Title
81342
    1CHL1    C3    1   5.297   4.401  10.163  0.0604  0.0474  0.0321
    1CHL1    H3    2   5.407   4.398  10.145  0.1101  1.0586  0.0979
    1CHL1    O3    3   5.267   4.467  10.287  0.4702 -0.4413 -0.4854
    1CHL1   H3'    4   5.175   4.491  10.298  1.0829  1.5894  0.6060
    1CHL1    C4    5   5.218   4.458  10.047 -0.3469  0.2240  0.1466
    1CHL1   H4A    6   5.114   4.451  10.085  0.0453  1.8923  1.5490
    1CHL1   H4B    7   5.239   4.566  10.034 -0.6971  0.3057  0.2478
    1CHL1    C5    8   5.228   4.387   9.914 -0.1228 -0.5034  0.3726
    1CHL1    C6    9   5.255   4.459   9.805  0.1036  0.2326  0.3390
    1CHL1    H6   10   5.259   4.568   9.815  1.2352  0.4766 -2.4615
    1CHL1    C7   11   5.276   4.396   9.673 -0.2591  0.4375 -0.4309
    1CHL1   H7A   12   5.222   4.463   9.602 -3.3848 -0.6117  0.8293
    1CHL1   H7B   13   5.383   4.393   9.644  0.3760 -3.1228  2.0192
    1CHL1    C8   14   5.212   4.253   9.674 -0.7690  0.7017 -0.6303
    1CHL1    H8   15   5.103   4.272   9.663 -0.6124  1.9458 -0.1492
    1CHL1   C14   16   5.269   4.180   9.550 -0.4921  0.0354 -0.1497
    1CHL1   H14   17   5.380   4.184   9.562 -0.6144 -0.1927  1.1638
    1CHL1   C15   18   5.244   4.242   9.407 -0.0040  0.0173 -0.5690
    1CHL1  H15A   19   5.143   4.288   9.396  0.1139  0.5430  0.4800
    1CHL1  H15B   20   5.314   4.326   9.393  0.6167  0.0922  2.5733
    1CHL1   C16   21   5.262   4.128   9.307  0.2440 -0.4153  0.6036
    1CHL1  H16A   22   5.165   4.118   9.254  1.2551  0.8235 -1.5454
    1CHL1  H16B   23   5.340   4.141   9.229  0.8649  1.8052  1.5557
    1CHL1   C17   24   5.294   4.007   9.398  0.1811 -0.6259  0.4255
    1CHL1   H17   25   5.402   4.019   9.421 -0.3415  2.1402  1.7048
    1CHL1   C13   26   5.227   4.036   9.530 -0.4039  0.9277  0.0339
    1CHL1   C18   27   5.073   4.024   9.508  0.2799 -0.3605  0.3525
    1CHL1  H18A   28   5.039   4.085   9.422 -0.1832  0.5157  1.1459
    1CHL1  H18B   29   5.042   3.918   9.496 -0.4790  0.0700 -1.6353
    1CHL1  H18C   30   5.007   4.061   9.590  0.4810 -2.3889  1.4616
    1CHL1   C12   31   5.278   3.953   9.645  0.1901  0.1218  0.5777
    1CHL1  H12A   32   5.246   3.846   9.647 -3.4313  1.1665  1.6902
    1CHL1  H12B   33   5.389   3.958   9.647  0.1452  0.7219  1.5662
    1CHL1   C11   34   5.212   4.013   9.781  0.1673  0.1042 -0.9345
    1CHL1  H11A   35   5.101   4.001   9.779  0.3175 -1.1553 -3.0272
    1CHL1  H11B   36   5.261   3.950   9.858 -2.6117 -0.7126  0.2494
    1CHL1    C9   37   5.244   4.170   9.794 -0.3619 -0.4900 -0.0417
    1CHL1    H9   38   5.354   4.166   9.806 -0.2808 -0.2007 -0.6638
    1CHL1   C10   39   5.211   4.242   9.927 -0.2897  0.2673 -0.1918
    1CHL1   C19   40   5.059   4.226   9.944 -0.6782 -0.2224 -0.6956
    1CHL1  H19A   41   5.010   4.284   9.863 -0.9576 -0.0309 -0.3930
    1CHL1  H19B   42   5.026   4.120   9.941 -1.6310  0.0015  1.3263
    1CHL1  H19C   43   5.016   4.268  10.038 -0.5649 -0.4052 -0.5619
    1CHL1    C1   44   5.284   4.189  10.046  0.7971 -0.1666  0.1486
    1CHL1   H1A   45   5.266   4.079  10.050  1.3395 -0.3042 -0.9991
    1CHL1   H1B   46   5.392   4.196  10.024  0.5161 -0.5206 -1.4244
    1CHL1    C2   47   5.251   4.259  10.177 -0.6644  0.4800  0.4540
    1CHL1   H2A   48   5.290   4.205  10.267 -3.4133  1.6450  2.4114
    1CHL1   H2B   49   5.141   4.256  10.195 -0.8323  1.2278 -0.4469
    1CHL1   C20   50   5.273   3.864   9.339  0.3953  0.0633 -0.3906
    1CHL1   H20   51   5.182   3.809   9.370  0.1387  1.2822  1.0437
    1CHL1   C21   52   5.392   3.776   9.387 -0.5693 -0.0500  0.5393
    1CHL1  H21A   53   5.381   3.673   9.346 -1.1330  0.7985 -1.5139
    1CHL1  H21B   54   5.399   3.770   9.498 -1.2653 -1.1143  0.5337
    1CHL1  H21C   55   5.487   3.808   9.339 -1.2966 -0.6100 -1.3268
    1CHL1   C22   56   5.275   3.868   9.182  0.0626  0.2842  0.3958
    1CHL1  H22A   57   5.184   3.920   9.145  0.0972  0.7706  0.9958
    1CHL1  H22B   58   5.365   3.924   9.147  0.3620  0.4531  1.4296
    1CHL1   C23   59   5.266   3.728   9.121 -0.2560 -0.0340 -0.7953
    1CHL1  H23A   60   5.369   3.688   9.135 -0.7244 -0.7622  0.7036
    1CHL1  H23B   61   5.192   3.659   9.168  1.4486  0.0538  2.1818
    1CHL1   C24   62   5.242   3.727   8.971 -0.9739 -0.1183 -0.1937
    1CHL1  H24A   63   5.141   3.770   8.962 -0.3291  1.7280  1.1397
    1CHL1  H24B   64   5.319   3.796   8.930  0.0458 -1.1381 -0.0334
    1CHL1   C25   65   5.261   3.591   8.903  0.3270 -0.0444  0.3255
    1CHL1   H25   66   5.226   3.599   8.798  0.0930 -0.6664  0.3582
    1CHL1   C26   67   5.411   3.563   8.880  0.9786 -0.0371 -0.6238
    1CHL1  H26A   68   5.475   3.653   8.867  1.3688 -0.1900  0.1608
    1CHL1  H26B   69   5.446   3.512   8.973  0.8511  0.1183 -0.4906
    1CHL1  H26C   70   5.426   3.489   8.799  0.5956  0.7923 -1.4525
    1CHL1   C27   71   5.186   3.475   8.956  0.0049 -0.0236  0.5156
    1CHL1  H27A   72   5.218   3.445   9.058 -0.9087  2.6624  1.6343
    1CHL1  H27B   73   5.080   3.506   8.959 -0.0453 -0.0604 -0.6793
    1CHL1  H27C   74   5.193   3.383   8.894  1.0558  0.7094 -0.4835
    2CHL1    C3   75   5.992   1.980  10.249 -0.7022 -0.8149 -0.0861
    2CHL1    H3   76   5.972   2.089  10.248  0.6360 -0.5559 -3.0458
    2CHL1    O3   77   5.987   1.927  10.382 -0.0553  0.6155 -1.3282
    2CHL1   H3'   78   5.994   1.831  10.374 -0.5099  0.4513  0.0579
    2CHL1    C4   79   5.891   1.911  10.159 -0.0664 -0.1990  0.7513
    2CHL1   H4A   80   5.906   1.801  10.164  1.8223 -0.0999 -1.7168
    2CHL1   H4B   81   5.790   1.930  10.201 -1.7524 -2.1134 -2.1613
    2CHL1    C5   82   5.883   1.961  10.014 -0.1933 -0.3599 -0.0655
    2CHL1    C6   83   5.772   2.015   9.964 -0.1510  0.1772 -0.4677
    2CHL1    H6   84   5.676   2.020  10.017  0.3082  0.1225  0.3683
    2CHL1    C7   85   5.757   2.047   9.815 -0.3569 -0.2070 -0.0124
    2CHL1   H7A   86   5.673   1.991   9.768  0.6524 -1.6612 -0.1114
    2CHL1   H7B   87   5.746   2.158   9.812 -0.7303 -0.2531 -0.4980
    2CHL1    C8   88   5.880   2.003   9.732  0.5890 -0.2186 -0.2598
    2CHL1    H8   89   5.879   1.895   9.708 -1.8963 -0.4521  0.7140
    2CHL1   C14   90   5.876   2.084   9.609  0.2693 -0.0546  1.5029
    2CHL1   H14   91   5.876   2.191   9.639 -0.2383  0.3276  0.1948
    2CHL1   C15   92   5.755   2.073   9.516  0.6321  0.1476  0.4496
    2CHL1  H15A   93   5.728   1.967   9.496  1.1980  0.1462 -0.3139
    2CHL1  H15B   94   5.663   2.122   9.554 -0.0447  1.2891 -2.4790
    2CHL1   C16   95   5.807   2.145   9.389 -0.2784 -0.1822  0.1858
    2CHL1  H16A   96   5.785   2.085   9.298  2.0319  0.6772 -0.9663
    2CHL1  H16B   97   5.771   2.247   9.363  1.0908 -0.0982 -1.4762
    2CHL1   C17   98   5.960   2.152   9.399  0.7231  0.1657 -0.2593
    2CHL1   H17   99   5.974   2.256   9.435 -0.3809  0.0341  0.5832
    2CHL1   C13  100   5.998   2.056   9.517  0.5671  0.3928 -0.3647
    2CHL1   C18  101   6.013   1.915   9.467 -0.0472 -0.5689 -0.1792
    2CHL1  H18A  102   5.988   1.849   9.553  0.5617  1.8152  1.9019
    2CHL1  H18B  103   5.928   1.890   9.401 -1.3318  0.8952  0.8885
    2CHL1  H18C  104   6.112   1.899   9.420 -0.9614 -1.4870 -1.8098
    2CHL1   C12  105   6.119   2.104   9.604  0.5279  0.0908 -0.2849
    2CHL1  H12A  106   6.215   2.119   9.550  1.0527  2.1887  1.1648
    2CHL1  H12B  107   6.088   2.208   9.627  0.2071 -0.3357  1.3025
    2CHL1   C11  108   6.138   2.025   9.732 -0.0803 -0.1153 -0.2207
    2CHL1  H11A  109   6.151   1.917   9.707  1.1756 -0.5702  2.2130
    2CHL1  H11B  110   6.224   2.061   9.793 -0.0746 -1.7684  0.7644
    2CHL1    C9  111   6.010   2.032   9.815  0.1105 -0.3518 -0.2541
    2CHL1    H9  112   5.993   2.138   9.842  1.0961 -0.6458  1.6533
    2CHL1   C10  113   6.024   1.947   9.943  0.7575  0.4661 -0.4869
    2CHL1   C19  114   6.066   1.802   9.920 -0.3997 -0.1966  0.1832
    2CHL1  H19A  115   6.002   1.754   9.843  1.3430 -0.3897 -1.1665
    2CHL1  H19B  116   6.176   1.798   9.905 -0.5354  1.9697 -1.5733
    2CHL1  H19C  117   6.049   1.748  10.016  3.6098  2.2560  2.4100
    2CHL1    C1  118   6.134   2.007  10.035 -0.2422 -0.1465 -0.2887
    2CHL1   H1A  119   6.238   1.988  10.001  0.3432  1.3922  0.6467
    2CHL1   H1B  120   6.125   2.117  10.034  1.3081  0.0054  1.1985
    2CHL1    C2  121   6.127   1.958  10.179 -0.5025 -0.1749 -0.3143
    2CHL1   H2A  122   6.190   2.016  10.249 -2.0476 -0.4304  1.3209
    2CHL1   H2B  123   6.164   1.853  10.174  1.1256  0.3905 -0.3028
    2CHL1   C20  124   6.037   2.141   9.256 -0.2873 -0.1654  0.3122
    2CHL1   H20  125   6.038   2.036   9.221 -0.5632 -1.2101  3.3592
    2CHL1   C21  126   6.181   2.179   9.282  0.1006 -0.8754 -0.1988
    2CHL1  H21A  127   6.220   2.216   9.185  2.4510  0.2236  1.1198
    2CHL1  H21B  128   6.246   2.095   9.316 -1.1875 -0.6924  2.9381
    2CHL1  H21C  129   6.198   2.255   9.361  0.0446 -2.7901  1.6930
    2CHL1   C22  130   5.971   2.231   9.145  0.4222  0.7287  0.1585
    2CHL1  H22A  131   5.868   2.268   9.163 -0.6177 -1.9747 -0.0225
    2CHL1  H22B  132   6.035   2.319   9.124  1.3958 -0.2319 -0.9479
    2CHL1   C23  133   5.959   2.160   9.008 -0.1832 -0.4319  0.1211
    2CHL1  H23A  134   6.058   2.113   8.986 -0.8828 -0.5904 -2.9320
    2CHL1  H23B  135   5.886   2.080   9.033 -1.0052  0.1579 -0.3759
    2CHL1   C24  136   5.898   2.243   8.895 -0.5508 -0.3238  0.4495
    2CHL1  H24A  137   5.824   2.317   8.934 -0.1034  0.7977 -0.7656
    2CHL1  H24B  138   5.983   2.303   8.855 -0.8112  0.2537  0.7656
    2CHL1   C25  139   5.823   2.155   8.792  0.8672 -0.5335 -0.0719
    2CHL1   H25  140   5.757   2.090   8.854  1.0122 -1.4885 -0.9144
    2CHL1   C26  141   5.740   2.249   8.696 -0.2773  0.0191 -0.6665
    2CHL1  H26A  142   5.694   2.189   8.614 -1.2420  0.3393 -0.3743
    2CHL1  H26B  143   5.668   2.317   8.747  1.3031  1.4364 -0.2813
    2CHL1  H26C  144   5.822   2.314   8.661  1.7565  0.0195  3.7374
    2CHL1   C27  145   5.909   2.065   8.705 -0.5834  0.2993  0.0334
    2CHL1  H27A  146   5.976   2.123   8.638  0.6388 -0.0184  0.9571
    2CHL1  H27B  147   5.970   1.988   8.757 -2.1345 -0.1480  1.2119
    2CHL1  H27C  148   5.840   2.005   8.643  0.8489 -2.2435  0.8298
    3CHL1    C3  149   6.612   2.156  10.506 -0.7726 -0.8971  0.0068
    3CHL1    H3  150   6.713   2.119  10.481 -0.7022 -1.3796  0.9523
    3CHL1    O3  151   6.587   2.135  10.639 -0.0171  0.4525  0.2528
    3CHL1   H3'  152   6.593   2.040  10.651  1.2405  0.0813 -2.8471
    3CHL1    C4  153   6.592   2.308  10.470  0.0646  0.3878  0.2498
    3CHL1   H4A  154   6.492   2.345  10.500 -0.2515  0.4778 -0.9116
    3CHL1   H4B  155   6.670   2.360  10.530  1.8844  0.0171 -1.7406
    3CHL1    C5  156   6.594   2.356  10.333 -0.0507 -0.2068  0.6714
    3CHL1    C6  157   6.669   2.456  10.284 -0.4667  0.0458 -0.2153
    3CHL1    H6  158   6.735   2.504  10.358 -2.8833  0.6047  1.6634
    3CHL1    C7  159   6.665   2.502  10.143 -0.3817  0.0003 -0.7088
    3CHL1   H7A  160   6.652   2.611  10.133 -0.4038  0.1793  1.1209
    3CHL1   H7B  161   6.764   2.480  10.097 -0.9792  0.5736 -2.3064
    3CHL1    C8  162   6.567   2.433  10.048  0.2326 -0.1333 -0.0222
    3CHL1    H8  163   6.469   2.484  10.059  2.3583  3.9695  1.0211
    3CHL1   C14  164   6.614   2.451   9.909 -0.1528  0.4875 -0.1726
    3CHL1   H14  165   6.707   2.391   9.904 -0.3537  0.2510 -1.1975
    3CHL1   C15  166   6.648   2.591   9.849  0.4557  0.0800  1.2166
    3CHL1  H15A  167   6.563   2.660   9.865  0.5435  0.0889  1.6397
    3CHL1  H15B  168   6.740   2.633   9.896  0.7760 -1.4594  2.0137
    3CHL1   C16  169   6.662   2.568   9.703  0.0726  0.2860  0.8181
    3CHL1  H16A  170   6.595   2.643   9.654  0.8570  0.1726 -0.4439
    3CHL1  H16B  171   6.763   2.590   9.662 -0.1326  0.5899  0.4716
    3CHL1   C17  172   6.608   2.416   9.673  0.2599  0.4024 -0.1672
    3CHL1   H17  173   6.692   2.343   9.676  0.1552  0.2304 -1.2418
    3CHL1   C13  174   6.529   2.379   9.802  0.3615  0.8639 -0.3462
    3CHL1   C18  175   6.385   2.422   9.799 -0.4091 -0.2226  0.1297
    3CHL1  H18A  176   6.374   2.530   9.774 -1.0850 -0.1326  0.8125
    3CHL1  H18B  177   6.325   2.360   9.729 -2.7468 -2.1783  3.6683
    3CHL1  H18C  178   6.334   2.405   9.896  0.0566 -0.9268  0.2583
    3CHL1   C12  179   6.538   2.227   9.841 -0.5327  0.1546 -0.0513
    3CHL1  H12A  180   6.481   2.160   9.773  1.9098 -2.9252  0.7856
    3CHL1  H12B  181   6.644   2.193   9.839  0.3408  2.8133 -0.6554
    3CHL1   C11  182   6.490   2.202   9.985 -0.3000  0.5078 -0.3019
    3CHL1  H11A  183   6.380   2.219   9.983 -0.9888 -3.2463  0.2266
    3CHL1  H11B  184   6.503   2.093  10.006 -1.4055  0.5890  0.9351
    3CHL1    C9  185   6.552   2.285  10.093  0.6263  1.1520  0.2056
    3CHL1    H9  186   6.655   2.245  10.089 -0.3768 -1.6058  0.5641
    3CHL1   C10  187   6.502   2.268  10.241  0.2378  1.0833 -0.3387
    3CHL1   C19  188   6.345   2.307  10.248  0.7941  0.8787 -0.3985
    3CHL1  H19A  189   6.282   2.251  10.175  1.1658 -1.0816  0.7532
    3CHL1  H19B  190   6.303   2.298  10.350  3.6756  1.2613  0.8519
    3CHL1  H19C  191   6.336   2.416  10.229  1.5441  0.8889 -0.7271
    3CHL1    C1  192   6.521   2.110  10.277  0.5793  0.2969 -0.2848
    3CHL1   H1A  193   6.446   2.053  10.218 -0.3159  0.2137  0.9123
    3CHL1   H1B  194   6.622   2.075  10.249  1.8054  1.5012  2.5195
    3CHL1    C2  195   6.513   2.075  10.426 -0.2733  0.5615 -0.0090
    3CHL1   H2A  196   6.507   1.967  10.449 -3.4778  0.1487 -2.4520
    3CHL1   H2B  197   6.410   2.106  10.454 -0.4113 -0.8212  1.0326
    3CHL1   C20  198   6.538   2.399   9.530 -0.7324 -0.3009 -0.0892
    3CHL1   H20  199   6.448   2.463   9.523 -1.6896 -1.5312  0.6511
    3CHL1   C21  200   6.498   2.252   9.506  0.1567 -0.4088  0.3903
    3CHL1  H21A  201   6.442   2.219   9.596  1.6031  0.4615  1.6454
    3CHL1  H21B  202   6.587   2.187   9.490  0.8053  0.8399 -1.1744
    3CHL1  H21C  203   6.433   2.250   9.416  2.2862 -1.8495 -1.1447
    3CHL1   C22  204   6.629   2.456   9.416  0.3566 -0.8562 -0.3849
    3CHL1  H22A  205   6.651   2.562   9.439  1.0708 -0.8820 -0.9145
    3CHL1  H22B  206   6.722   2.395   9.418  1.2498  0.4525 -1.2957
    3CHL1   C23  207   6.566   2.465   9.277  0.4699 -0.3768 -0.2405
    3CHL1  H23A  208   6.551   2.366   9.230  0.4301 -1.3484  1.7935
    3CHL1  H23B  209   6.463   2.505   9.287  0.1875 -1.0365 -0.4846
    3CHL1   C24  210   6.654   2.556   9.194  0.3842  0.1706 -0.0746
    3CHL1  H24A  211   6.667   2.652   9.249  2.0060 -0.1966  0.2044
    3CHL1  H24B  212   6.754   2.507   9.197  0.0804 -0.8667 -3.7363
    3CHL1   C25  213   6.615   2.579   9.043  0.3449  1.0578 -0.3091
    3CHL1   H25  214   6.686   2.655   9.004  0.9899  1.8685  2.3303
    3CHL1   C26  215   6.643   2.446   8.956  0.1695  0.3863 -0.0973
    3CHL1  H26A  216   6.627   2.456   8.846 -1.0467 -0.7979 -0.0447
    3CHL1  H26B  217   6.738   2.393   8.981  0.4385 -0.8651 -3.4231
    3CHL1  H26C  218   6.571   2.371   8.995  0.7592  0.2974  0.8375
    3CHL1   C27  219   6.467   2.645   9.026 -0.1904  0.1289  0.1384
    3CHL1  H27A  220   6.395   2.567   9.059 -0.0481  0.7961  2.0802
    3CHL1  H27B  221   6.454   2.739   9.085 -1.4056  0.0482  0.0244
    3CHL1  H27C  222   6.446   2.658   8.918 -0.5536 -0.4897  0.1342
    4CHL1    C3  223   6.674   4.362  10.354  0.3115  0.5173 -0.3886
    4CHL1    H3  224   6.785   4.358  10.361  0.4041 -3.5252 -2.4114
    4CHL1    O3  225   6.623   4.338  10.487 -0.1312 -0.4101  0.7817
    4CHL1   H3'  226   6.528   4.327  10.481 -0.0379 -0.7542 -0.2566
    4CHL1    C4  227   6.640   4.502  10.315 -0.5259  0.4557 -0.4202
    4CHL1   H4A  228   6.532   4.523  10.333 -1.1250 -1.8418 -1.2227
    4CHL1   H4B  229   6.700   4.573  10.377 -0.5013  0.5484 -0.5503
    4CHL1    C5  230   6.678   4.548  10.176 -0.4349  0.1012  1.1528
    4CHL1    C6  231   6.746   4.657  10.145  0.1993 -0.9823  0.4245
    4CHL1    H6  232   6.787   4.722  10.225  1.0472 -0.5551 -0.3426
    4CHL1    C7  233   6.783   4.700  10.012 -1.0516 -0.2264  0.7929
    4CHL1   H7A  234   6.773   4.810   9.997  0.5552 -0.0173  1.1802
    4CHL1   H7B  235   6.892   4.681  10.001 -1.0157  0.3113  0.1662
    4CHL1    C8  236   6.699   4.633   9.905  0.0490  0.2253 -0.0592
    4CHL1    H8  237   6.598   4.680   9.906  0.0263  0.1724  0.1082
    4CHL1   C14  238   6.768   4.657   9.769 -0.6659  0.1254 -0.2461
    4CHL1   H14  239   6.871   4.617   9.777  0.1574  1.6666 -2.6862
    4CHL1   C15  240   6.801   4.794   9.721 -0.3295  0.0991 -0.2716
    4CHL1  H15A  241   6.714   4.862   9.719  0.6117  1.2942 -0.6718
    4CHL1  H15B  242   6.881   4.848   9.776 -1.6890 -0.4925  2.4048
    4CHL1   C16  243   6.844   4.781   9.578 -0.0149 -0.0444  0.0278
    4CHL1  H16A  244   6.786   4.861   9.528  2.2882  1.5346 -0.1873
    4CHL1  H16B  245   6.952   4.795   9.556  0.0219 -0.1542  0.1335
    4CHL1   C17  246   6.804   4.644   9.526 -0.3646  0.2861  0.5831
    4CHL1   H17  247   6.894   4.579   9.535  0.6304  1.3431 -1.3420
    4CHL1   C13  248   6.709   4.592   9.650 -0.4058  0.6123 -0.1143
    4CHL1   C18  249   6.573   4.655   9.623  0.5213  0.4552 -0.0790
    4CHL1  H18A  250   6.570   4.763   9.595 -2.7267  0.7674  1.2671
    4CHL1  H18B  251   6.515   4.597   9.548  0.3453  0.2176  0.2420
    4CHL1  H18C  252   6.500   4.636   9.705  1.4867 -1.0433  0.4450
    4CHL1   C12  253   6.714   4.444   9.679  0.3733 -0.3339 -0.0659
    4CHL1  H12A  254   6.678   4.393   9.588  0.7792  0.3783 -0.6326
    4CHL1  H12B  255   6.820   4.415   9.690 -0.1754 -2.3670  0.1036
    4CHL1   C11  256   6.633   4.405   9.802 -0.2175 -0.0095 -0.7971
    4CHL1  H11A  257   6.524   4.427   9.796 -0.3890 -0.5804  0.1989
    4CHL1  H11B  258   6.651   4.296   9.816 -0.3763 -0.0353 -0.7946
    4CHL1    C9  259   6.694   4.484   9.928  1.6690  1.0618 -0.0837
    4CHL1    H9  260   6.797   4.447   9.947  1.7992  1.0927 -0.7195
    4CHL1   C10  261   6.633   4.448  10.065  0.6612  0.0722  0.2853
    4CHL1   C19  262   6.478   4.462  10.068  0.3582 -0.0575  0.0882
    4CHL1  H19A  263   6.441   4.434  10.169  0.3631 -0.6349 -0.0714
    4CHL1  H19B  264   6.449   4.568  10.050 -0.6430 -0.2317  0.6248
    4CHL1  H19C  265   6.424   4.395   9.999  1.0264  0.4547 -0.9370
    4CHL1    C1  266   6.674   4.301  10.105  0.2613  0.6817 -1.1450
    4CHL1   H1A  267   6.653   4.219  10.034 -0.8568 -0.7455  0.7578
    4CHL1   H1B  268   6.785   4.304  10.104  0.3808 -1.0595  1.5826
    4CHL1    C2  269   6.625   4.259  10.248  0.2526 -0.7915 -0.2674
    4CHL1   H2A  270   6.670   4.162  10.279  1.7833 -0.1237 -0.3566
    4CHL1   H2B  271   6.514   4.250  10.236 -0.1685 -0.3625  2.9470
    4CHL1   C20  272   6.758   4.628   9.381 -0.1162 -0.2619 -0.3788
    4CHL1   H20  273   6.663   4.684   9.378 -0.6351 -1.1545 -0.9936
    4CHL1   C21  274   6.734   4.480   9.360  0.2969 -0.3479  0.1175
    4CHL1  H21A  275   6.631   4.451   9.391  0.0226 -0.3173 -0.7649
    4CHL1  H21B  276   6.805   4.416   9.418  0.4464 -1.3654 -1.1647
    4CHL1  H21C  277   6.743   4.465   9.251 -1.2144  2.6494 -0.4571
    4CHL1   C22  278   6.860   4.694   9.283  0.0683 -0.9112  0.3299
    4CHL1  H22A  279   6.882   4.794   9.325  0.4915 -1.1952  0.7909
    4CHL1  H22B  280   6.959   4.645   9.277  0.3847 -0.0516 -2.2395
    4CHL1   C23  281   6.807   4.710   9.141 -0.5400 -0.3253 -0.1444
    4CHL1  H23A  282   6.775   4.614   9.095  0.3677  0.3620 -2.2782
    4CHL1  H23B  283   6.726   4.786   9.137  1.2850  1.6511 -0.7176
    4CHL1   C24  284   6.921   4.772   9.046  0.8490 -0.6023 -0.3174
    4CHL1  H24A  285   6.936   4.874   9.087 -3.0051 -0.3639  0.6788
    4CHL1  H24B  286   7.009   4.704   9.047 -0.1913 -1.9754  0.5890
    4CHL1   C25  287   6.878   4.784   8.900  0.5033  0.0046  0.2512
    4CHL1   H25  288   6.844   4.683   8.868 -0.9164  0.3412  0.6654
    4CHL1   C26  289   6.765   4.881   8.873 -0.2068 -0.4618  0.6303
    4CHL1  H26A  290   6.729   4.873   8.768  2.0823  0.0286 -0.2195
    4CHL1  H26B  291   6.678   4.860   8.939 -0.1548 -0.9777  0.5408
    4CHL1  H26C  292   6.799   4.986   8.885  2.8036 -1.0016 -2.4285
    4CHL1   C27  293   6.998   4.838   8.818  0.0554 -0.5829  0.2252
    4CHL1  H27A  294   6.985   4.850   8.708 -1.6110  0.2907  0.5058
    4CHL1  H27B  295   7.034   4.938   8.853  0.2055 -0.0771 -1.3237
    4CHL1  H27C  296   7.076   4.759   8.816  0.1087 -0.5334  0.3768
    5CHL1    C3  297   0.125   1.946  10.258  0.2684 -0.3210 -0.7285
    5CHL1    H3  298   0.017   1.919  10.253 -0.6987  3.4282 -0.9927
    5CHL1    O3  299   0.161   1.924  10.392  0.0534 -0.3957  0.3998
    5CHL1   H3'  300   0.256   1.936  10.389  0.1808 -1.1919  1.2040
    5CHL1    C4  301   0.208   1.851  10.176  0.2883 -0.3445 -0.2216
    5CHL1   H4A  302   0.313   1.859  10.212 -0.2419 -1.2120  1.5601
    5CHL1   H4B  303   0.194   1.742  10.192 -0.3182 -0.1235  0.8384
    5CHL1    C5  304   0.179   1.874  10.027 -0.4215  0.1498 -0.3675
    5CHL1    C6  305   0.148   1.768   9.945 -0.3360  0.6146 -0.4581
    5CHL1    H6  306   0.136   1.667   9.987  0.1441 -0.5851 -3.1018
    5CHL1    C7  307   0.135   1.785   9.798 -0.5621  0.5903 -0.0316
    5CHL1   H7A  308   0.189   1.703   9.746  1.3225  0.1175  2.5593
    5CHL1   H7B  309   0.026   1.770   9.781 -0.9455  4.2761 -1.0869
    5CHL1    C8  310   0.190   1.910   9.739  0.2730 -0.7031 -0.3429
    5CHL1    H8  311   0.301   1.902   9.746  0.1137 -2.0550  1.1665
    5CHL1   C14  312   0.150   1.929   9.587 -0.4257  0.4339  0.6195
    5CHL1   H14  313   0.041   1.910   9.577 -0.3534  0.4987 -0.2485
    5CHL1   C15  314   0.205   1.816   9.489  0.2919 -0.0413  0.2228
    5CHL1  H15A  315   0.312   1.798   9.511  1.1051  1.3735 -2.3781
    5CHL1  H15B  316   0.146   1.722   9.480 -2.2275  1.4658  0.4105
    5CHL1   C16  317   0.202   1.889   9.347  0.2060  0.0371  0.1317
    5CHL1  H16A  318   0.301   1.872   9.300 -0.7742 -2.2472 -1.2219
    5CHL1  H16B  319   0.119   1.828   9.304  0.5734 -0.9014  0.7292
    5CHL1   C17  320   0.157   2.033   9.382 -0.1674  0.1338 -0.7070
    5CHL1   H17  321   0.047   2.024   9.380 -0.1580 -0.1429 -0.0191
    5CHL1   C13  322   0.193   2.060   9.528  0.2428  0.2596 -0.2088
    5CHL1   C18  323   0.344   2.090   9.538 -0.0069 -0.8841  0.5097
    5CHL1  H18A  324   0.373   2.183   9.483 -0.3913 -1.5891 -0.9004
    5CHL1  H18B  325   0.366   2.111   9.645 -1.2317  2.1440  0.2290
    5CHL1  H18C  326   0.390   1.995   9.507  3.0512  0.8393 -0.4226
    5CHL1   C12  327   0.115   2.173   9.605 -0.8118 -0.1331 -0.6144
    5CHL1  H12A  328   0.152   2.269   9.563 -4.9221  1.6514 -0.3427
    5CHL1  H12B  329   0.006   2.171   9.586 -0.4909  2.4671 -2.9237
    5CHL1   C11  330   0.146   2.167   9.759  0.1934 -0.4161 -0.2906
    5CHL1  H11A  331   0.243   2.214   9.784  0.0140  0.5126 -1.2710
    5CHL1  H11B  332   0.073   2.235   9.808 -0.3887 -0.5231 -0.9820
    5CHL1    C9  333   0.127   2.022   9.820  0.0813 -0.2378 -0.5971
    5CHL1    H9  334   0.019   2.001   9.829 -0.0980  0.5291 -0.8896
    5CHL1   C10  335   0.185   2.011   9.971  0.2611 -0.1653 -0.3271
    5CHL1   C19  336   0.335   2.061   9.984  0.0087 -0.4679  0.4087
    5CHL1  H19A  337   0.399   2.001   9.916 -0.6386  1.0744 -1.6187
    5CHL1  H19B  338   0.340   2.171   9.969  0.6557 -0.5180  0.2459
    5CHL1  H19C  339   0.373   2.031  10.084  2.2555 -1.8865 -0.8279
    5CHL1    C1  340   0.093   2.095  10.072 -0.5304  0.3538  0.7370
    5CHL1   H1A  341   0.097   2.202  10.042 -1.5824  0.5291  1.1992
    5CHL1   H1B  342  -0.013   2.062  10.070 -0.3528 -0.1578 -1.2765
    5CHL1    C2  343   0.136   2.091  10.219  0.2859  0.6460  0.9540
    5CHL1   H2A  344   0.060   2.155  10.267 -1.8495 -0.1666 -1.2397
    5CHL1   H2B  345   0.238   2.130  10.239  0.7638 -0.5465  0.9329
    5CHL1   C20  346   0.186   2.133   9.268 -0.4359  0.2223 -1.0825
    5CHL1   H20  347   0.296   2.149   9.268 -0.6185  1.7640  1.0220
    5CHL1   C21  348   0.120   2.267   9.297  0.0799 -0.2675  0.5430
    5CHL1  H21A  349   0.012   2.264   9.321 -0.0848  3.0509  0.5257
    5CHL1  H21B  350   0.119   2.320   9.199 -2.2837 -1.8495 -0.3225
    5CHL1  H21C  351   0.172   2.334   9.369 -0.6224  1.8681 -0.8740
    5CHL1   C22  352   0.145   2.068   9.129 -0.1250  0.3761 -0.8115
    5CHL1  H22A  353   0.164   1.959   9.118 -1.4909  0.0353  0.0536
    5CHL1  H22B  354   0.036   2.080   9.110 -0.6179 -1.5937  0.5269
    5CHL1   C23  355   0.218   2.132   9.006 -0.2963  0.3302  0.1257
    5CHL1  H23A  356   0.224   2.243   9.015  3.9215  0.2442 -0.3997
    5CHL1  H23B  357   0.317   2.082   8.997 -1.4886 -1.8812 -0.9615
    5CHL1   C24  358   0.141   2.090   8.884 -0.3154  0.1170 -0.4446
    5CHL1  H24A  359   0.121   1.982   8.870 -0.9851 -0.4039  3.8199
    5CHL1  H24B  360   0.039   2.125   8.913 -0.9475 -3.1033  1.4285
    5CHL1   C25  361   0.183   2.170   8.757 -1.0384 -0.4554  0.3714
    5CHL1   H25  362   0.199   2.276   8.786  0.7147 -0.3230 -0.9906
    5CHL1   C26  363   0.318   2.130   8.697 -0.6063  0.2625 -0.5546
    5CHL1  H26A  364   0.292   2.034   8.647  0.7809  0.0946 -0.9583
    5CHL1  H26B  365   0.349   2.203   8.619  1.6704  0.1297  0.2173
    5CHL1  H26C  366   0.399   2.113   8.769  0.6580  1.1148 -1.7437
    5CHL1   C27  367   0.080   2.167   8.639  0.2447 -0.0481 -0.5280
    5CHL1  H27A  368  -0.013   2.226   8.655  1.0688  1.4675 -1.1972
    5CHL1  H27B  369   0.130   2.202   8.546  0.2407  1.9995  0.2036
    5CHL1  H27C  370   0.045   2.064   8.616 -2.5100  1.2860 -2.6730
    6CHL1    C3  371   4.583   6.261  10.339  0.5579  0.7371 -0.4783
    6CHL1    H3  372   4.590   6.151  10.354 -0.8338  0.2591 -3.0732
    6CHL1    O3  373   4.552   6.310  10.468 -0.0784  0.0155 -0.4106
    6CHL1   H3'  374   4.472   6.361  10.453 -0.0071  0.9701  2.2766
    6CHL1    C4  375   4.724   6.310  10.291  0.5537  0.2626 -0.0017
    6CHL1   H4A  376   4.724   6.418  10.268  0.6166  0.0217 -1.1702
    6CHL1   H4B  377   4.787   6.293  10.381  1.2154  0.6403 -0.3925
    6CHL1    C5  378   4.769   6.241  10.164 -0.7916  0.4917  0.3653
    6CHL1    C6  379   4.883   6.168  10.168  0.4341  0.6371 -0.0182
    6CHL1    H6  380   4.940   6.157  10.262 -0.3121 -4.2931 -0.0272
    6CHL1    C7  381   4.926   6.088  10.051  0.2935  0.0582 -0.0878
    6CHL1   H7A  382   5.036   6.100  10.041  0.8852 -2.5842  2.4544
    6CHL1   H7B  383   4.892   5.983  10.066  0.2371  0.1400  0.3771
    6CHL1    C8  384   4.854   6.137   9.921  0.0210  0.0862 -0.3511
    6CHL1    H8  385   4.881   6.242   9.896  0.0076 -0.1353 -1.3529
    6CHL1   C14  386   4.892   6.042   9.808 -0.5957  0.6168  0.3445
    6CHL1   H14  387   4.855   5.943   9.840  1.7746  0.2289  1.9924
    6CHL1   C15  388   5.039   6.037   9.767 -0.0974  0.6601  0.6994
    6CHL1  H15A  389   5.079   6.141   9.768  1.6776  0.0640 -2.7989
    6CHL1  H15B  390   5.085   5.975   9.847  1.6829  1.3757  0.2420
    6CHL1   C16  391   5.037   5.968   9.629 -0.1318 -1.1598 -0.2922
    6CHL1  H16A  392   5.107   6.029   9.568 -0.4556  0.3400  0.8083
    6CHL1  H16B  393   5.055   5.859   9.640  1.0206 -1.0195 -0.7240
    6CHL1   C17  394   4.883   5.979   9.576  0.3791  0.4316 -0.0007
    6CHL1   H17  395   4.843   5.878   9.600 -1.5392  0.9616 -0.9193
    6CHL1   C13  396   4.816   6.079   9.670 -0.0662  0.2074 -0.7643
    6CHL1   C18  397   4.854   6.223   9.632 -0.2230  0.1950 -0.2544
    6CHL1  H18A  398   4.962   6.246   9.619 -0.3180  1.8849  1.8493
    6CHL1  H18B  399   4.785   6.260   9.553 -0.6255  2.9449  1.3449
    6CHL1  H18C  400   4.826   6.298   9.709 -3.3487 -1.7143  0.5613
    6CHL1   C12  401   4.665   6.057   9.700 -0.1873  0.0304 -0.4639
    6CHL1  H12A  402   4.603   6.092   9.615 -0.1739  1.7897  0.2237
    6CHL1  H12B  403   4.653   5.951   9.731  0.5145 -0.0415 -0.4350
    6CHL1   C11  404   4.619   6.154   9.817  0.3770  0.4180 -0.0181
    6CHL1  H11A  405   4.621   6.253   9.767  0.9712 -1.2730 -3.4603
    6CHL1  H11B  406   4.512   6.133   9.840  0.4298  1.2210  0.9845
    6CHL1    C9  407   4.704   6.141   9.943  0.2504  0.1755 -0.4381
    6CHL1    H9  408   4.688   6.039   9.985 -0.2669 -0.1459 -1.4060
    6CHL1   C10  409   4.660   6.247  10.049  0.2166  0.7237 -0.2259
    6CHL1   C19  410   4.655   6.384   9.977 -0.5242 -0.4990 -0.0319
    6CHL1  H19A  411   4.562   6.378   9.916 -0.5845 -0.6017  0.0695
    6CHL1  H19B  412   4.626   6.455  10.058  2.0087 -0.7931  1.1836
    6CHL1  H19C  413   4.746   6.402   9.916 -0.2261 -3.2150 -0.4277
    6CHL1    C1  414   4.520   6.214  10.106  0.2255  0.8202  0.1890
    6CHL1   H1A  415   4.453   6.244  10.022 -0.6793 -0.6078  0.3749
    6CHL1   H1B  416   4.508   6.104  10.114 -0.2818  0.7839 -0.8683
    6CHL1    C2  417   4.472   6.284  10.234  1.0619  0.0071  0.3876
    6CHL1   H2A  418   4.379   6.248  10.282 -0.9397  2.3214 -1.6693
    6CHL1   H2B  419   4.467   6.394  10.224  4.7916  0.2621  0.6063
    6CHL1   C20  420   4.884   6.000   9.421 -0.7868 -0.3164  0.1175
    6CHL1   H20  421   4.912   6.106   9.401 -0.9137 -0.1317  0.8800
    6CHL1   C21  422   4.745   5.978   9.365 -0.6159 -0.0011  0.2456
    6CHL1  H21A  423   4.738   6.007   9.258 -1.9348 -1.8956 -0.2029
    6CHL1  H21B  424   4.666   6.038   9.415  0.1978  0.4996  0.9565
    6CHL1  H21C  425   4.708   5.874   9.377  1.8123 -0.6094  2.9573
    6CHL1   C22  426   4.984   5.908   9.350 -0.1481  0.2711 -0.1466
    6CHL1  H22A  427   5.085   5.912   9.395 -2.1137  0.5115  4.5012
    6CHL1  H22B  428   4.947   5.805   9.372  1.0426  0.0089  0.7100
    6CHL1   C23  429   4.995   5.942   9.199  0.1996 -0.4545 -1.5758
    6CHL1  H23A  430   4.891   5.938   9.159 -0.9074  2.9069  0.7317
    6CHL1  H23B  431   5.019   6.049   9.181  0.2058  0.6117  3.8513
    6CHL1   C24  432   5.094   5.849   9.135  0.5831  0.6432  0.1299
    6CHL1  H24A  433   5.190   5.858   9.190  1.2547  1.8405 -1.1957
    6CHL1  H24B  434   5.046   5.752   9.161  0.1056  0.9053  0.2365
    6CHL1   C25  435   5.098   5.860   8.977 -0.0515  0.1614  0.5125
    6CHL1   H25  436   5.166   5.941   8.944 -0.2692 -0.1466 -0.7209
    6CHL1   C26  437   5.162   5.732   8.919  0.3773  0.5581  0.1850
    6CHL1  H26A  438   5.105   5.645   8.958 -1.6042  2.4166  1.5629
    6CHL1  H26B  439   5.174   5.727   8.809 -1.4507  0.7718 -0.0442
    6CHL1  H26C  440   5.263   5.726   8.964  0.4733 -0.9348 -0.2141
    6CHL1   C27  441   4.960   5.860   8.916  0.5011 -0.3274  0.7902
    6CHL1  H27A  442   4.901   5.952   8.936 -0.1010 -0.6295  0.3864
    6CHL1  H27B  443   4.976   5.855   8.806 -2.3970 -0.8752  0.3508
    6CHL1  H27C  444   4.902   5.774   8.953 -0.1094  0.5807  1.9780
    7CHL1    C3  445   1.310   2.555  10.269 -1.0105 -0.5476 -0.0527
    7CHL1    H3  446   1.389   2.484  10.238 -0.3436 -0.6701  1.8850
    7CHL1    O3  447   1.310   2.543  10.412 -0.3909  0.3582  0.6449
    7CHL1   H3'  448   1.375   2.603  10.449 -2.2072  2.9186 -0.1368
    7CHL1    C4  449   1.357   2.696  10.230 -0.3577  0.3554 -0.0354
    7CHL1   H4A  450   1.285   2.765  10.277 -0.0951 -1.2820  2.9189
    7CHL1   H4B  451   1.457   2.718  10.273 -0.2624  2.8075 -1.4470
    7CHL1    C5  452   1.361   2.706  10.079  0.4383  0.5702 -0.1368
    7CHL1    C6  453   1.475   2.750  10.022  0.3787 -0.2464  0.4165
    7CHL1    H6  454   1.556   2.771  10.094  0.1041 -1.5301  1.1130
    7CHL1    C7  455   1.485   2.776   9.878  0.2948  0.1809  0.3471
    7CHL1   H7A  456   1.529   2.874   9.852  0.2213  0.1317  0.0254
    7CHL1   H7B  457   1.544   2.698   9.825  0.0979 -0.3367  0.8839
    7CHL1    C8  458   1.349   2.777   9.799 -0.6527 -0.7654 -0.4191
    7CHL1    H8  459   1.303   2.878   9.806 -0.4265 -0.5558 -1.8887
    7CHL1   C14  460   1.378   2.746   9.654  0.0197 -0.2567  0.0023
    7CHL1   H14  461   1.401   2.638   9.655  0.1355 -0.2341 -0.3133
    7CHL1   C15  462   1.489   2.828   9.589 -0.9820  0.0440 -0.4083
    7CHL1  H15A  463   1.490   2.930   9.632  0.1136 -0.4773  0.8255
    7CHL1  H15B  464   1.584   2.780   9.621 -0.7032 -0.4737 -1.9650
    7CHL1   C16  465   1.461   2.814   9.442 -0.1145 -0.3238 -0.1314
    7CHL1  H16A  466   1.452   2.917   9.403 -0.3553 -0.3550 -0.1550
    7CHL1  H16B  467   1.538   2.755   9.387 -1.3394 -2.3456  0.2670
    7CHL1   C17  468   1.329   2.731   9.426  0.7190  0.2211  0.3607
    7CHL1   H17  469   1.353   2.623   9.419 -3.3389 -0.7733  0.3418
    7CHL1   C13  470   1.250   2.751   9.556 -0.3518 -0.8019 -0.0161
    7CHL1   C18  471   1.193   2.895   9.556  1.4590 -0.3328  0.3693
    7CHL1  H18A  472   1.100   2.896   9.495  0.8927  0.6083  1.2308
    7CHL1  H18B  473   1.163   2.920   9.660 -1.0497 -1.2322 -0.0907
    7CHL1  H18C  474   1.259   2.977   9.520 -1.7879  2.2326  0.0078
    7CHL1   C12  475   1.151   2.640   9.604  0.3759 -0.4280 -0.0204
    7CHL1  H12A  476   1.053   2.640   9.553  1.1510  1.4318 -1.5759
    7CHL1  H12B  477   1.187   2.535   9.595  1.1239 -0.3308  1.5893
    7CHL1   C11  478   1.126   2.660   9.760  0.6813 -0.0910 -0.5019
    7CHL1  H11A  479   1.049   2.738   9.778  1.4025  0.2976  1.0301
    7CHL1  H11B  480   1.072   2.566   9.785  0.8127 -0.0455 -0.0380
    7CHL1    C9  481   1.249   2.673   9.854  0.0393  0.1732  0.3968
    7CHL1    H9  482   1.297   2.574   9.843 -1.8814 -0.6910 -0.3386
    7CHL1   C10  483   1.231   2.687  10.005 -0.6419 -0.1447 -0.4148
    7CHL1   C19  484   1.140   2.811  10.030  0.3019  0.8040 -0.0184
    7CHL1  H19A  485   1.162   2.911   9.988 -1.3201  0.3090 -2.1115
    7CHL1  H19B  486   1.046   2.795   9.974 -0.6627  0.5312  1.6348
    7CHL1  H19C  487   1.118   2.817  10.139 -1.9531 -0.1041 -0.4001
    7CHL1    C1  488   1.174   2.549  10.052  0.0719 -0.1359 -0.9393
    7CHL1   H1A  489   1.075   2.527  10.008 -0.8180  0.7334  0.6126
    7CHL1   H1B  490   1.242   2.474  10.005  1.2260  1.0142 -1.1212
    7CHL1    C2  491   1.174   2.524  10.207 -0.4248 -0.0659  0.9774
    7CHL1   H2A  492   1.146   2.419  10.232  0.7791 -0.2697  1.5085
    7CHL1   H2B  493   1.103   2.582  10.270  0.9506 -0.2057  2.6856
    7CHL1   C20  494   1.250   2.771   9.290 -0.1749  0.5847  0.6815
    7CHL1   H20  495   1.216   2.876   9.283  0.3380  0.6117 -1.9942
    7CHL1   C21  496   1.126   2.678   9.275  0.1113  0.2412  0.0550
    7CHL1  H21A  497   1.157   2.571   9.275 -0.0509  0.1933 -0.0441
    7CHL1  H21B  498   1.063   2.698   9.185 -0.3019  1.8265  0.6781
    7CHL1  H21C  499   1.061   2.693   9.364  1.4834  0.6063  0.9917
    7CHL1   C22  500   1.345   2.745   9.168  0.8108 -0.1828 -0.6875
    7CHL1  H22A  501   1.427   2.820   9.169  0.0786  0.7144 -4.0628
    7CHL1  H22B  502   1.376   2.638   9.171 -1.7368 -0.9371  0.7401
    7CHL1   C23  503   1.267   2.746   9.036 -0.1493  0.8353  0.2464
    7CHL1  H23A  504   1.198   2.659   9.037 -1.0864  1.5784  1.1110
    7CHL1  H23B  505   1.200   2.833   9.021 -0.3147  0.8211  0.8797
    7CHL1   C24  506   1.373   2.733   8.921 -0.4395 -0.4244  0.7338
    7CHL1  H24A  507   1.451   2.810   8.938 -1.0941  0.9833 -2.2906
    7CHL1  H24B  508   1.422   2.633   8.924 -0.1007 -0.2798  0.1928
    7CHL1   C25  509   1.304   2.734   8.782  0.2847 -0.2149 -0.1740
    7CHL1   H25  510   1.218   2.664   8.772  1.4258 -1.6973  0.1793
    7CHL1   C26  511   1.254   2.876   8.746  0.1824  0.1494 -0.6957
    7CHL1  H26A  512   1.201   2.919   8.833 -2.0947 -0.3021 -1.8188
    7CHL1  H26B  513   1.347   2.931   8.720 -0.1865  1.9351  1.6336
    7CHL1  H26C  514   1.184   2.886   8.661 -0.4572 -1.1593 -0.3416
    7CHL1   C27  515   1.393   2.694   8.662  1.0728  0.1356 -0.1099
    7CHL1  H27A  516   1.492   2.743   8.656  0.6951  0.7338 -1.6126
    7CHL1  H27B  517   1.402   2.584   8.679  1.8838  0.3954  1.2312
    7CHL1  H27C  518   1.335   2.700   8.567  1.2064 -0.1053 -0.2073
    8CHL1    C3  519   1.557   4.329  10.218  0.3948  0.6575  0.1261
    8CHL1    H3  520   1.458   4.311  10.264  0.2494 -0.7943 -0.7377
    8CHL1    O3  521   1.651   4.366  10.317 -0.4602 -0.0756 -0.1566
    8CHL1   H3'  522   1.614   4.443  10.361  0.4018 -0.7183  1.7372
    8CHL1    C4  523   1.622   4.204  10.154  0.4560 -0.4602  0.6152
    8CHL1   H4A  524   1.731   4.226  10.150  0.1167  1.0556 -1.1412
    8CHL1   H4B  525   1.608   4.112  10.214 -2.0526 -1.2443 -1.1025
    8CHL1    C5  526   1.571   4.157  10.021  0.6180 -0.0078 -0.3665
    8CHL1    C6  527   1.535   4.028   9.998 -0.0588 -0.8440 -0.2889
    8CHL1    H6  528   1.566   3.956  10.075  1.4852 -0.1213 -0.2109
    8CHL1    C7  529   1.466   3.981   9.870  0.0694 -0.3070  0.0244
    8CHL1   H7A  530   1.493   3.875   9.855  2.7597  0.6565 -2.4671
    8CHL1   H7B  531   1.357   3.982   9.892 -0.4093 -0.1137 -2.2255
    8CHL1    C8  532   1.489   4.074   9.747 -0.2426 -0.2062  0.0035
    8CHL1    H8  533   1.596   4.071   9.717 -0.3023 -0.0315 -0.2282
    8CHL1   C14  534   1.396   4.026   9.631  0.6231 -0.1643  0.4441
    8CHL1   H14  535   1.291   4.027   9.668  0.4521  3.2695 -0.0013
    8CHL1   C15  536   1.418   3.897   9.563  0.4511  0.4869 -0.4558
    8CHL1  H15A  537   1.528   3.883   9.549  0.2877  0.2663 -1.6063
    8CHL1  H15B  538   1.383   3.812   9.625  2.0246 -0.9992 -1.5327
    8CHL1   C16  539   1.338   3.909   9.430  0.4090 -0.3471  0.1867
    8CHL1  H16A  540   1.395   3.873   9.342 -1.3952 -1.6569 -0.4630
    8CHL1  H16B  541   1.243   3.851   9.431 -0.4532  1.0120 -0.8600
    8CHL1   C17  542   1.294   4.058   9.403 -0.9396  0.1643 -0.1163
    8CHL1   H17  543   1.191   4.076   9.442 -0.8180 -1.3368  0.9180
    8CHL1   C13  544   1.394   4.124   9.510 -0.8759  0.5024  0.8455
    8CHL1   C18  545   1.531   4.151   9.445 -0.0676  0.1334 -0.2198
    8CHL1  H18A  546   1.578   4.060   9.403 -1.4383 -0.2650 -0.9028
    8CHL1  H18B  547   1.518   4.232   9.370 -0.1606 -0.8297 -1.2427
    8CHL1  H18C  548   1.600   4.196   9.520 -0.8407  2.3379 -0.7884
    8CHL1   C12  549   1.346   4.254   9.573  0.7300  0.0499 -0.2268
    8CHL1  H12A  550   1.324   4.333   9.498 -2.5882 -2.1825 -1.7347
    8CHL1  H12B  551   1.249   4.220   9.617  0.1388  4.3975  2.0828
    8CHL1   C11  552   1.430   4.312   9.685 -0.2614  0.2270 -0.4786
    8CHL1  H11A  553   1.525   4.349   9.641 -0.9272  1.2164 -1.0983
    8CHL1  H11B  554   1.384   4.405   9.726  1.3946  0.1283  1.6746
    8CHL1    C9  555   1.444   4.208   9.796  0.1618 -0.0585 -0.2385
    8CHL1    H9  556   1.340   4.191   9.829  0.6194  0.2474  1.4022
    8CHL1   C10  557   1.536   4.265   9.919 -0.2823 -0.4282  0.3344
    8CHL1   C19  558   1.675   4.308   9.869 -0.5101 -0.1615  0.2961
    8CHL1  H19A  559   1.717   4.222   9.812  0.5840  0.0099  0.8309
    8CHL1  H19B  560   1.674   4.401   9.809 -0.2002 -1.1719 -1.3155
    8CHL1  H19C  561   1.750   4.326   9.948 -0.8962 -2.5203  1.2477
    8CHL1    C1  562   1.472   4.389   9.991 -0.4619 -0.2237 -0.1450
    8CHL1   H1A  563   1.472   4.475   9.920  0.3798  0.7250  0.9880
    8CHL1   H1B  564   1.367   4.356  10.007 -0.4588  0.1699  0.7064
    8CHL1    C2  565   1.545   4.436  10.118 -0.2308 -0.4474  0.1080
    8CHL1   H2A  566   1.486   4.518  10.163 -1.1888 -1.3695  0.5553
    8CHL1   H2B  567   1.643   4.485  10.099 -0.8343  1.3965  1.6650
    8CHL1   C20  568   1.302   4.097   9.251  0.5605  0.3998 -0.9897
    8CHL1   H20  569   1.408   4.082   9.221  0.6797 -2.4239  0.5590
    8CHL1   C21  570   1.269   4.247   9.236  0.3244 -0.2906 -0.6146
    8CHL1  H21A  571   1.168   4.262   9.278  0.8492 -0.2394  0.6515
    8CHL1  H21B  572   1.293   4.286   9.134 -0.3500 -1.4123 -1.2067
    8CHL1  H21C  573   1.339   4.303   9.302 -3.2128  1.5265  1.7386
    8CHL1   C22  574   1.214   4.004   9.159  0.4992  0.3291 -0.7951
    8CHL1  H22A  575   1.229   3.895   9.170  3.2226  0.6014 -1.5028
    8CHL1  H22B  576   1.107   4.031   9.172  0.1042 -1.2776 -0.5836
    8CHL1   C23  577   1.264   4.025   9.013  1.0257 -0.7079  0.2438
    8CHL1  H23A  578   1.257   4.132   8.985 -2.4725 -0.9516 -0.0929
    8CHL1  H23B  579   1.372   3.999   9.006  0.9716 -0.9121  0.1417
    8CHL1   C24  580   1.176   3.952   8.909 -0.3157 -0.1640  0.7946
    8CHL1  H24A  581   1.196   3.843   8.920 -0.6580 -0.1324  1.7162
    8CHL1  H24B  582   1.069   3.970   8.931 -1.1160  0.9161 -3.5765
    8CHL1   C25  583   1.220   4.001   8.768 -0.3596  0.3494 -0.9611
    8CHL1   H25  584   1.211   4.111   8.772  0.3011  0.3766 -0.2987
    8CHL1   C26  585   1.365   3.968   8.729 -0.4872  0.0591  0.5222
    8CHL1  H26A  586   1.397   3.862   8.722 -2.2692 -0.3009 -3.3575
    8CHL1  H26B  587   1.378   4.014   8.629  0.2206 -0.0536  0.5626
    8CHL1  H26C  588   1.422   4.028   8.803  0.2507  0.0575 -0.0542
    8CHL1   C27  589   1.126   3.943   8.666 -0.7916  0.3632 -0.5653
    8CHL1  H27A  590   1.122   4.006   8.574 -0.5259  1.9781  0.5007
    8CHL1  H27B  591   1.173   3.848   8.632 -1.7832 -0.2949 -0.0975
    8CHL1  H27C  592   1.026   3.928   8.710 -0.4549  2.9791  1.2099
    9CHL1    C3  593   4.041   0.455  10.093  0.0441  0.8910  0.3367
    9CHL1    H3  594   4.111   0.379  10.051 -2.5900 -1.5380  0.1868
    9CHL1    O3  595   4.035   0.426  10.233  0.0944  0.0010 -0.0091
    9CHL1   H3'  596   4.114   0.375  10.252 -1.1019 -1.1009  2.2036
    9CHL1    C4  597   4.115   0.593  10.082  0.5530  0.2715 -0.4738
    9CHL1   H4A  598   4.049   0.664  10.137  2.7890  2.4211 -0.4726
    9CHL1   H4B  599   4.213   0.593  10.135  0.4960 -1.2798 -0.3558
    9CHL1    C5  600   4.123   0.640   9.938 -0.4434 -0.4841 -0.2925
    9CHL1    C6  601   4.238   0.671   9.878 -0.4838 -0.4313  0.3463
    9CHL1    H6  602   4.334   0.659   9.932  0.2359 -2.7023 -1.3861
    9CHL1    C7  603   4.254   0.716   9.737  0.0911  0.0671 -0.1367
    9CHL1   H7A  604   4.342   0.783   9.747 -0.5933  0.5936  2.8593
    9CHL1   H7B  605   4.278   0.640   9.660  0.1059 -0.1093  0.0425
    9CHL1    C8  606   4.117   0.769   9.682 -0.2735  0.1418  0.3266
    9CHL1    H8  607   4.096   0.867   9.729  1.5162  0.2709  0.8697
    9CHL1   C14  608   4.139   0.782   9.534 -0.3195  0.1860 -0.3864
    9CHL1   H14  609   4.156   0.678   9.498  0.2815  0.3744 -0.6545
    9CHL1   C15  610   4.257   0.860   9.483  0.0930 -0.2236 -0.0105
    9CHL1  H15A  611   4.275   0.960   9.528 -2.2827 -0.7225  2.1604
    9CHL1  H15B  612   4.354   0.808   9.472 -0.8463 -1.9973 -0.0343
    9CHL1   C16  613   4.222   0.886   9.335  0.4159 -0.5201  0.3880
    9CHL1  H16A  614   4.224   0.997   9.327 -2.1002 -0.5376 -0.8340
    9CHL1  H16B  615   4.295   0.838   9.267 -1.9742  0.1648 -2.7827
    9CHL1   C17  616   4.080   0.835   9.308  0.3739  0.1155  0.4577
    9CHL1   H17  617   4.067   0.730   9.273 -2.4326  1.0186 -1.3740
    9CHL1   C13  618   4.017   0.824   9.457 -0.1368  0.8451  0.3703
    9CHL1   C18  619   3.969   0.965   9.513  0.2916 -0.8914 -0.4918
    9CHL1  H18A  620   3.945   0.953   9.620  2.3068  0.0942  0.0876
    9CHL1  H18B  621   4.046   1.044   9.522 -1.8327  1.1970 -0.2064
    9CHL1  H18C  622   3.877   1.006   9.465 -1.5872 -0.8182  2.9859
    9CHL1   C12  623   3.902   0.723   9.481 -0.6002  0.7586 -0.0695
    9CHL1  H12A  624   3.807   0.759   9.437 -1.2575  1.2966  1.7306
    9CHL1  H12B  625   3.926   0.629   9.426 -2.2118  0.2138  0.1281
    9CHL1   C11  626   3.881   0.694   9.633  0.7516 -0.2470 -0.2850
    9CHL1  H11A  627   3.831   0.784   9.674 -0.3180 -0.5886 -0.8199
    9CHL1  H11B  628   3.809   0.610   9.630 -1.1369  1.1691  2.8112
    9CHL1    C9  629   4.008   0.665   9.707  0.2093 -0.2754 -0.7150
    9CHL1    H9  630   4.046   0.569   9.668  0.3716  0.0767 -1.4364
    9CHL1   C10  631   3.993   0.641   9.855  1.3395 -0.2901  0.3210
    9CHL1   C19  632   3.921   0.762   9.921  0.0388 -0.1878 -0.3722
    9CHL1  H19A  633   3.979   0.857   9.915  0.9137 -0.7210 -0.3786
    9CHL1  H19B  634   3.818   0.773   9.882  0.4478  0.3133 -1.3196
    9CHL1  H19C  635   3.905   0.741  10.029  1.7712 -0.4262 -0.1504
    9CHL1    C1  636   3.915   0.504   9.876 -0.6534 -0.1371  0.4752
    9CHL1   H1A  637   3.813   0.524   9.836 -0.2730 -0.1176 -0.5117
    9CHL1   H1B  638   3.970   0.426   9.819  0.6921  0.0812  1.4410
    9CHL1    C2  639   3.906   0.453  10.021 -0.1192 -0.2767 -1.1342
    9CHL1   H2A  640   3.857   0.354  10.031 -1.7861  0.7054  1.0948
    9CHL1   H2B  641   3.845   0.529  10.074  0.9968  0.5738 -1.0494
    9CHL1   C20  642   4.011   0.928   9.205  0.2988  0.7148 -0.1466
    9CHL1   H20  643   4.002   1.029   9.252  0.7594  0.0759  1.3471
    9CHL1   C21  644   3.869   0.877   9.176  0.7782  0.2300 -0.4807
    9CHL1  H21A  645   3.834   0.925   9.082 -1.2680 -0.0930  0.0971
    9CHL1  H21B  646   3.795   0.889   9.257  0.5101 -0.3875 -0.6263
    9CHL1  H21C  647   3.881   0.770   9.147  0.0413 -0.1132  0.4660
    9CHL1   C22  648   4.091   0.955   9.068 -0.1752 -0.3237 -0.5917
    9CHL1  H22A  649   4.028   1.024   9.007  0.0206 -0.3506 -0.8280
    9CHL1  H22B  650   4.191   0.997   9.089 -0.6336  0.2489  0.4797
    9CHL1   C23  651   4.099   0.838   8.959 -0.4025 -0.1535  0.6527
    9CHL1  H23A  652   4.152   0.747   8.994 -1.2938 -1.5514 -1.5426
    9CHL1  H23B  653   3.993   0.809   8.947 -0.6184 -0.2820  2.6616
    9CHL1   C24  654   4.138   0.881   8.816 -0.6041 -0.0863 -0.0790
    9CHL1  H24A  655   4.050   0.937   8.778 -0.6196  2.0741  2.9435
    9CHL1  H24B  656   4.219   0.957   8.823 -0.8180  0.1142  0.2805
    9CHL1   C25  657   4.186   0.768   8.725 -1.0321  0.0615  0.1320
    9CHL1   H25  658   4.239   0.695   8.789 -1.0046 -0.5144 -0.5413
    9CHL1   C26  659   4.064   0.689   8.675 -0.3623 -0.2605 -0.2376
    9CHL1  H26A  660   4.109   0.610   8.612 -2.1292 -1.1300 -0.4261
    9CHL1  H26B  661   3.994   0.656   8.755 -0.5615 -1.6901 -0.9965
    9CHL1  H26C  662   4.000   0.752   8.609 -1.4094 -1.5069 -0.4334
    9CHL1   C27  663   4.281   0.830   8.619  0.1557 -0.7977  0.6946
    9CHL1  H27A  664   4.216   0.893   8.556  1.1770 -1.4848 -1.0799
    9CHL1  H27B  665   4.372   0.883   8.656 -1.7332  0.9920  2.9513
    9CHL1  H27C  666   4.316   0.761   8.540  1.5592  0.4449  0.2088
   10CHL1    C3  667   3.588   4.502  10.154  0.1436  0.3604 -0.0827
   10CHL1    H3  668   3.596   4.396  10.121 -0.1628  0.3092  0.0014
   10CHL1    O3  669   3.593   4.510  10.295  0.4656 -0.0574  0.1804
   10CHL1   H3'  670   3.676   4.553  10.315  1.1372 -1.7442  1.0932
   10CHL1    C4  671   3.706   4.593  10.096 -0.0665  0.5849  0.9646
   10CHL1   H4A  672   3.696   4.700  10.128  0.3414 -0.0309  3.2816
   10CHL1   H4B  673   3.801   4.556  10.140 -1.4958 -1.4410  2.4561
   10CHL1    C5  674   3.705   4.583   9.939  0.4947 -0.7283  0.6011
   10CHL1    C6  675   3.808   4.538   9.875 -0.1128 -0.6327 -0.3437
   10CHL1    H6  676   3.899   4.510   9.930  0.3266 -1.1021 -1.3018
   10CHL1    C7  677   3.806   4.539   9.720 -0.8689  0.1932  0.0808
   10CHL1   H7A  678   3.899   4.595   9.699 -0.6110  0.3017  1.5124
   10CHL1   H7B  679   3.821   4.435   9.682  1.0891 -0.6030  2.8836
   10CHL1    C8  680   3.690   4.602   9.642  0.3087 -0.6656 -0.3725
   10CHL1    H8  681   3.701   4.713   9.638 -0.1444 -0.6729 -3.0026
   10CHL1   C14  682   3.665   4.538   9.501 -0.3440  0.3167  0.0107
   10CHL1   H14  683   3.639   4.435   9.535 -1.0947  0.8744  1.1824
   10CHL1   C15  684   3.782   4.522   9.405  0.1679 -0.8979  0.4087
   10CHL1  H15A  685   3.840   4.616   9.391  0.5064 -1.0443  0.7871
   10CHL1  H15B  686   3.851   4.444   9.446 -0.8014 -2.1772 -0.3956
   10CHL1   C16  687   3.712   4.479   9.278  1.2786  0.1024  0.0428
   10CHL1  H16A  688   3.768   4.516   9.189 -2.4773  0.5840 -2.2185
   10CHL1  H16B  689   3.719   4.369   9.268 -2.0536 -0.0135 -1.7500
   10CHL1   C17  690   3.565   4.522   9.291  0.7434  0.1207  0.1725
   10CHL1   H17  691   3.503   4.432   9.311  0.0391  0.1508 -1.7844
   10CHL1   C13  692   3.559   4.606   9.420  0.0517 -0.0575  0.2373
   10CHL1   C18  693   3.591   4.755   9.386  0.5030 -0.1114  0.6773
   10CHL1  H18A  694   3.503   4.802   9.337  0.3845  0.6554  1.6089
   10CHL1  H18B  695   3.600   4.812   9.481 -0.1375  0.1359  0.5940
   10CHL1  H18C  696   3.683   4.764   9.323  0.2417  0.3251  0.3572
   10CHL1   C12  697   3.423   4.597   9.497 -0.4303  0.3790  0.2381
   10CHL1  H12A  698   3.347   4.655   9.440  0.8254  2.2486  0.4288
   10CHL1  H12B  699   3.392   4.490   9.501 -0.3251  0.3825  1.4230
   10CHL1   C11  700   3.435   4.651   9.645  0.1653  0.5177 -0.1316
   10CHL1  H11A  701   3.448   4.761   9.640 -1.2698  0.6243 -2.2417
   10CHL1  H11B  702   3.348   4.624   9.709 -0.0718 -0.4699 -0.8514
   10CHL1    C9  703   3.558   4.588   9.720 -0.0291 -0.1778  0.9283
   10CHL1    H9  704   3.537   4.479   9.715  0.1430 -0.2098  0.8978
   10CHL1   C10  705   3.572   4.626   9.875 -0.2094 -0.5688 -0.1661
   10CHL1   C19  706   3.575   4.776   9.892  0.2781  0.4275 -0.0636
   10CHL1  H19A  707   3.654   4.824   9.829 -0.4106  1.0175 -0.4943
   10CHL1  H19B  708   3.488   4.832   9.852 -1.0863 -1.6308 -0.0399
   10CHL1  H19C  709   3.577   4.803   9.999  1.1107 -0.9806  0.2814
   10CHL1    C1  710   3.452   4.566   9.955  0.0706 -0.0232  0.2385
   10CHL1   H1A  711   3.359   4.619   9.926 -0.9286 -0.5199  2.3775
   10CHL1   H1B  712   3.432   4.460   9.927 -2.5821 -0.1174  2.2014
   10CHL1    C2  713   3.459   4.569  10.110  0.1949  0.4454 -0.4550
   10CHL1   H2A  714   3.369   4.518  10.150  1.1291 -0.2511  0.8159
   10CHL1   H2B  715   3.455   4.670  10.155 -0.9781  0.3983 -0.4428
   10CHL1   C20  716   3.518   4.575   9.157 -0.1035 -0.0454 -0.1436
   10CHL1   H20  717   3.575   4.666   9.132  0.0466  0.0312  0.4669
   10CHL1   C21  718   3.367   4.605   9.167 -0.0702  0.1016  0.1610
   10CHL1  H21A  719   3.332   4.641   9.068  2.5717  3.0956  0.2400
   10CHL1  H21B  720   3.333   4.679   9.242  0.3004  1.2503 -0.7946
   10CHL1  H21C  721   3.304   4.516   9.189  1.6508 -1.0499  0.5465
   10CHL1   C22  722   3.546   4.483   9.038 -1.0426  0.0080  0.9163
   10CHL1  H22A  723   3.640   4.426   9.050 -1.4774 -0.6834  1.0865
   10CHL1  H22B  724   3.464   4.409   9.027 -1.1421  0.2302  0.0944
   10CHL1   C23  725   3.567   4.558   8.904  0.3673  0.3081  0.5636
   10CHL1  H23A  726   3.474   4.617   8.890 -0.8055 -1.7207 -0.4740
   10CHL1  H23B  727   3.654   4.626   8.904 -0.0647  0.8764  1.2540
   10CHL1   C24  728   3.593   4.456   8.793 -0.7160 -0.4468  0.2911
   10CHL1  H24A  729   3.676   4.388   8.822  1.2468  1.2344 -1.2781
   10CHL1  H24B  730   3.509   4.383   8.788  0.2736 -1.5903  0.0663
   10CHL1   C25  731   3.621   4.519   8.656 -1.3513  0.3086 -0.4212
   10CHL1   H25  732   3.709   4.584   8.677 -0.1190 -1.0582 -1.3040
   10CHL1   C26  733   3.674   4.409   8.563 -0.3592  0.6821 -1.1013
   10CHL1  H26A  734   3.771   4.365   8.592  1.1863  2.7114 -3.0222
   10CHL1  H26B  735   3.594   4.332   8.564  0.5315 -0.2412 -1.2787
   10CHL1  H26C  736   3.667   4.445   8.458 -2.4652  0.2418 -1.1372
   10CHL1   C27  737   3.509   4.601   8.594  0.2063 -0.5120 -0.0395
   10CHL1  H27A  738   3.421   4.534   8.595 -0.1506 -0.0762  2.2945
   10CHL1  H27B  739   3.485   4.688   8.659  1.6006 -0.6784  0.7430
   10CHL1  H27C  740   3.536   4.637   8.493 -0.0669 -0.3474 -0.0530
   11CHL1    C3  741   6.111   0.640  10.166 -0.0264  0.3414  1.1498
   11CHL1    H3  742   6.006   0.620  10.136  0.6974  1.6605 -2.4750
   11CHL1    O3  743   6.117   0.682  10.299  0.1918  0.2124 -0.5295
   11CHL1   H3'  744   6.198   0.725  10.326 -0.6977  2.2843 -1.1218
   11CHL1    C4  745   6.191   0.515  10.144 -0.1786  0.2902 -0.2261
   11CHL1   H4A  746   6.294   0.535  10.179  0.4480  2.7546 -3.2769
   11CHL1   H4B  747   6.159   0.431  10.210  2.4257 -0.4913  0.1006
   11CHL1    C5  748   6.188   0.476   9.997 -0.1194  1.2306  0.2719
   11CHL1    C6  749   6.165   0.352   9.948 -0.4492 -0.0218  0.7513
   11CHL1    H6  750   6.127   0.284  10.026 -0.3805 -0.8749  0.0632
   11CHL1    C7  751   6.169   0.301   9.803 -0.0976  0.1685  0.4097
   11CHL1   H7A  752   6.212   0.199   9.807  0.7175  0.4975 -0.0843
   11CHL1   H7B  753   6.065   0.286   9.768 -0.3356  0.6262  0.8987
   11CHL1    C8  754   6.235   0.400   9.710 -0.6631  0.6749  1.1172
   11CHL1    H8  755   6.344   0.394   9.731  0.0383 -1.9585 -2.6150
   11CHL1   C14  756   6.212   0.358   9.561 -0.0203  0.6918  0.6913
   11CHL1   H14  757   6.102   0.353   9.551 -0.0433 -3.0815  2.0842
   11CHL1   C15  758   6.239   0.213   9.505 -0.1743 -0.1829  0.9104
   11CHL1  H15A  759   6.337   0.172   9.539 -0.0144 -0.0250  0.6453
   11CHL1  H15B  760   6.166   0.132   9.523 -1.9597  0.7283 -1.9473
   11CHL1   C16  761   6.248   0.229   9.353  0.6057  1.0799 -0.3828
   11CHL1  H16A  762   6.341   0.181   9.317  1.1863  1.9433 -0.0559
   11CHL1  H16B  763   6.163   0.183   9.299 -0.2293  0.9538  0.9978
   11CHL1   C17  764   6.243   0.384   9.323  0.7580 -0.5170  0.0465
   11CHL1   H17  765   6.139   0.406   9.291  0.8438  0.2282  0.2642
   11CHL1   C13  766   6.264   0.457   9.463 -0.4917  0.2005 -0.2279
   11CHL1   C18  767   6.419   0.472   9.492  0.2269  0.4511 -0.2600
   11CHL1  H18A  768   6.472   0.377   9.465  0.1871 -0.5391  2.9547
   11CHL1  H18B  769   6.451   0.549   9.419 -3.7214  0.6187 -1.9242
   11CHL1  H18C  770   6.449   0.515   9.590  1.4458  1.1748 -0.9364
   11CHL1   C12  771   6.196   0.591   9.478  0.0171  0.5863 -0.1269
   11CHL1  H12A  772   6.230   0.671   9.409  3.7310  0.2100  1.1529
   11CHL1  H12B  773   6.087   0.576   9.459 -0.4641 -0.2343  2.9106
   11CHL1   C11  774   6.217   0.642   9.620 -0.3365  0.4299  0.3162
   11CHL1  H11A  775   6.317   0.688   9.638 -0.5454  0.7805  0.5863
   11CHL1  H11B  776   6.154   0.733   9.635 -2.4737 -0.6941 -1.5669
   11CHL1    C9  777   6.182   0.547   9.740 -0.2567  0.7649  1.1789
   11CHL1    H9  778   6.071   0.536   9.736 -0.1873  0.1127  1.1166
   11CHL1   C10  779   6.218   0.587   9.887  0.1249  0.1516  0.5303
   11CHL1   C19  780   6.369   0.619   9.892 -0.7175  0.1811 -0.3899
   11CHL1  H19A  781   6.421   0.688   9.822 -0.2597 -0.1680 -0.3945
   11CHL1  H19B  782   6.388   0.651   9.997 -0.0090  1.8259 -1.0035
   11CHL1  H19C  783   6.414   0.520   9.872 -2.0135 -0.0583 -2.3149
   11CHL1    C1  784   6.132   0.702   9.926  0.3370 -0.1565 -0.5752
   11CHL1   H1A  785   6.149   0.788   9.858 -1.0049 -1.5253 -2.7106
   11CHL1   H1B  786   6.026   0.670   9.913  0.5213 -1.4278  0.9304
   11CHL1    C2  787   6.141   0.754  10.067  0.1495  0.3186 -0.1528
   11CHL1   H2A  788   6.065   0.833  10.083 -0.7470 -0.6643  0.5954
   11CHL1   H2B  789   6.244   0.786  10.092  0.5944 -1.1659 -0.0136
   11CHL1   C20  790   6.320   0.430   9.191  0.3974  0.3082 -0.1979
   11CHL1   H20  791   6.427   0.401   9.200  0.1184 -0.0291  2.2988
   11CHL1   C21  792   6.306   0.575   9.147  0.3178  0.2337  0.7953
   11CHL1  H21A  793   6.352   0.641   9.223 -1.2822  1.3666  0.8255
   11CHL1  H21B  794   6.203   0.616   9.138  0.0956 -0.6060 -0.5858
   11CHL1  H21C  795   6.365   0.583   9.053  0.2993 -0.0924  0.7564
   11CHL1   C22  796   6.287   0.334   9.067  0.1658 -0.6472  1.1519
   11CHL1  H22A  797   6.334   0.243   9.111  3.6989  1.6063  2.2235
   11CHL1  H22B  798   6.177   0.318   9.061  0.5006 -2.1726 -1.7805
   11CHL1   C23  799   6.346   0.364   8.926 -0.3742 -0.4980 -0.2393
   11CHL1  H23A  800   6.443   0.416   8.943 -0.0979 -0.6228 -1.3920
   11CHL1  H23B  801   6.376   0.275   8.867  0.5198  0.7193 -1.6828
   11CHL1   C24  802   6.246   0.435   8.832  0.3072 -0.4134 -0.3062
   11CHL1  H24A  803   6.164   0.361   8.820  0.0562 -0.1545 -0.1720
   11CHL1  H24B  804   6.210   0.514   8.901  1.2015 -0.6943  0.5070
   11CHL1   C25  805   6.288   0.487   8.700 -0.0520 -0.3533 -0.0525
   11CHL1   H25  806   6.369   0.563   8.707  1.1727 -1.7199  1.2396
   11CHL1   C26  807   6.354   0.380   8.607 -0.3702 -0.2651  0.6838
   11CHL1  H26A  808   6.365   0.411   8.501  1.6615  0.1293  0.9838
   11CHL1  H26B  809   6.459   0.360   8.638  1.1727  1.9284 -2.8726
   11CHL1  H26C  810   6.294   0.287   8.604  0.7185 -0.9445 -0.3835
   11CHL1   C27  811   6.170   0.549   8.627 -0.3240 -0.6086  0.0638
   11CHL1  H27A  812   6.119   0.606   8.707 -2.4521  1.2322 -2.5324
   11CHL1  H27B  813   6.215   0.617   8.552 -1.0306 -0.5097 -0.2733
   11CHL1  H27C  814   6.097   0.478   8.581 -0.6674  1.5912 -2.9689
   12CHL1    C3  815   2.240   3.830  10.352 -0.2208  0.0881 -0.1301
   12CHL1    H3  816   2.302   3.918  10.322  2.0354 -1.5555 -0.4408
   12CHL1    O3  817   2.256   3.814  10.497  0.1160  0.0257  0.2094
   12CHL1   H3'  818   2.173   3.779  10.531  0.4054 -1.5717 -0.6707
   12CHL1    C4  819   2.096   3.860  10.325 -0.6055 -0.3882 -0.4078
   12CHL1   H4A  820   2.033   3.780  10.370 -1.2423  0.5096  0.3285
   12CHL1   H4B  821   2.072   3.948  10.388  3.3306 -0.6666  1.6102
   12CHL1    C5  822   2.057   3.885  10.178 -0.0885  0.0553  0.2833
   12CHL1    C6  823   2.007   3.995  10.133  0.6297 -0.2281 -1.0652
   12CHL1    H6  824   2.005   4.082  10.201  0.4149  1.2236 -2.8661
   12CHL1    C7  825   1.978   4.027   9.995 -0.4403  0.0628 -0.3327
   12CHL1   H7A  826   1.888   4.090   9.980  1.0481  2.2430 -0.3848
   12CHL1   H7B  827   2.063   4.088   9.958 -0.3380 -0.8185 -1.5807
   12CHL1    C8  828   1.982   3.901   9.903  0.4120 -0.5199 -0.3057
   12CHL1    H8  829   1.888   3.847   9.929  0.5712  0.0366  1.4431
   12CHL1   C14  830   1.990   3.945   9.755  0.1387 -0.9489  0.0862
   12CHL1   H14  831   2.089   3.995   9.759 -0.5435  0.3077  2.1401
   12CHL1   C15  832   1.889   4.049   9.698  0.1356  1.0315 -0.8272
   12CHL1  H15A  833   1.799   4.026   9.760  2.1319 -1.3297  1.3014
   12CHL1  H15B  834   1.934   4.147   9.726  1.3793 -0.0688  1.2192
   12CHL1   C16  835   1.902   4.024   9.547 -0.6754 -0.1518  0.0602
   12CHL1  H16A  836   1.802   4.013   9.499  0.2367  1.3838 -2.3142
   12CHL1  H16B  837   1.944   4.121   9.512  1.4582 -0.8024  0.7608
   12CHL1   C17  838   1.995   3.905   9.523 -0.8138  0.0274 -0.0948
   12CHL1   H17  839   2.098   3.944   9.510  0.1854 -2.6791 -0.6015
   12CHL1   C13  840   1.996   3.829   9.657 -0.4015  0.0746  0.8933
   12CHL1   C18  841   1.867   3.747   9.665  0.4412  0.1235  0.7789
   12CHL1  H18A  842   1.889   3.663   9.596  1.3816  0.6657  0.4105
   12CHL1  H18B  843   1.851   3.709   9.768 -1.1012 -1.7513 -0.1126
   12CHL1  H18C  844   1.770   3.794   9.639 -0.4904 -1.7482  0.8007
   12CHL1   C12  845   2.127   3.745   9.696  0.1225 -0.2667 -0.3893
   12CHL1  H12A  846   2.115   3.650   9.641  0.8606  0.2808 -1.5046
   12CHL1  H12B  847   2.218   3.805   9.676  0.9568 -1.6724 -0.8385
   12CHL1   C11  848   2.123   3.707   9.840  0.0225  0.5053 -0.1641
   12CHL1  H11A  849   2.037   3.636   9.849 -0.5146  1.2346  0.4766
   12CHL1  H11B  850   2.211   3.645   9.868 -1.0391 -0.0176  2.0937
   12CHL1    C9  851   2.104   3.821   9.945  0.6478 -0.2462  0.0916
   12CHL1    H9  852   2.193   3.886   9.931  0.2661  0.5160  1.1252
   12CHL1   C10  853   2.099   3.769  10.091 -0.4294 -0.3457  0.8547
   12CHL1   C19  854   1.997   3.655  10.103  0.5454 -0.1140  0.3232
   12CHL1  H19A  855   1.903   3.692  10.056  0.1392 -0.5403  0.8061
   12CHL1  H19B  856   2.043   3.565  10.057  1.1442 -0.2521  1.1803
   12CHL1  H19C  857   1.980   3.632  10.210 -1.1493 -0.4319 -0.0096
   12CHL1    C1  858   2.241   3.717  10.133 -0.8708  0.1188  0.3771
   12CHL1   H1A  859   2.274   3.626  10.078 -2.0091 -1.0904  1.6408
   12CHL1   H1B  860   2.306   3.792  10.084 -0.5125  0.3249  1.1584
   12CHL1    C2  861   2.269   3.705  10.284 -0.5644  0.0423 -0.0442
   12CHL1   H2A  862   2.376   3.679  10.304 -0.3794  1.1450  0.4215
   12CHL1   H2B  863   2.216   3.611  10.312 -2.2893  0.7731 -0.8332
   12CHL1   C20  864   1.952   3.833   9.391  0.0056  0.5558 -0.1276
   12CHL1   H20  865   1.850   3.793   9.408  0.0401  0.1069 -0.9107
   12CHL1   C21  866   2.052   3.715   9.367 -0.7884  0.1825 -0.1281
   12CHL1  H21A  867   2.041   3.651   9.457  1.7328  2.2159  1.7221
   12CHL1  H21B  868   2.157   3.753   9.365 -1.0233  0.8178 -0.6983
   12CHL1  H21C  869   2.018   3.669   9.272 -2.0793  1.2686 -0.2058
   12CHL1   C22  870   1.946   3.927   9.266  0.5555 -0.3190 -0.5663
   12CHL1  H22A  871   1.914   4.027   9.301  1.8933  1.2118 -3.5976
   12CHL1  H22B  872   2.048   3.940   9.225  2.1362 -2.2279  2.5903
   12CHL1   C23  873   1.847   3.874   9.164  1.2808 -0.6891  0.5564
   12CHL1  H23A  874   1.881   3.774   9.132 -0.0461 -0.8699 -0.2829
   12CHL1  H23B  875   1.749   3.856   9.214  0.2306  1.5118 -0.6293
   12CHL1   C24  876   1.835   3.951   9.032 -0.0274  0.3692 -0.0052
   12CHL1  H24A  877   1.846   4.062   9.040 -1.4527  0.5744 -0.6960
   12CHL1  H24B  878   1.923   3.918   8.974 -0.4106  0.2987 -0.5444
   12CHL1   C25  879   1.709   3.929   8.944  0.6958  0.2654 -0.4386
   12CHL1   H25  880   1.631   3.995   8.988  0.0216 -0.4367 -0.5687
   12CHL1   C26  881   1.733   3.984   8.806 -0.0425  0.2889  0.1993
   12CHL1  H26A  882   1.664   3.947   8.727  1.6703 -1.4064 -0.5694
   12CHL1  H26B  883   1.735   4.094   8.818 -0.4670  0.1610  1.4479
   12CHL1  H26C  884   1.828   3.949   8.761  2.2735  1.1108  4.2141
   12CHL1   C27  885   1.680   3.782   8.929  0.6747  0.2316 -0.3969
   12CHL1  H27A  886   1.633   3.736   9.019 -1.2894 -1.4561 -2.2157
   12CHL1  H27B  887   1.623   3.758   8.837 -1.7877  1.3459  0.7888
   12CHL1  H27C  888   1.777   3.728   8.919  0.7637  0.0428  1.2188
   13CHL1    C3  889   1.105   5.692   9.972 -0.1775  0.0709  0.7166
   13CHL1    H3  890   1.135   5.797   9.991 -0.4086 -0.0509  1.7484
   13CHL1    O3  891   1.139   5.615  10.090 -0.8007  0.0080 -0.0770
   13CHL1   H3'  892   1.064   5.560  10.113  0.1322 -0.7475  1.2566
   13CHL1    C4  893   0.952   5.686   9.943  0.6659  0.2369  0.3274
   13CHL1   H4A  894   0.926   5.578   9.933 -1.2007  0.6815  0.3926
   13CHL1   H4B  895   0.901   5.732  10.030  0.5311 -0.6193  0.7034
   13CHL1    C5  896   0.930   5.747   9.803 -0.3896 -0.0603  0.0061
   13CHL1    C6  897   0.844   5.844   9.803  0.8298  0.2749  0.9669
   13CHL1    H6  898   0.783   5.875   9.889 -1.5681 -3.0578  0.5878
   13CHL1    C7  899   0.818   5.903   9.667 -0.0151  0.1762  0.0271
   13CHL1   H7A  900   0.709   5.909   9.649 -0.0734 -0.0834  0.2853
   13CHL1   H7B  901   0.858   6.006   9.652 -0.7358  0.4361 -0.1548
   13CHL1    C8  902   0.865   5.820   9.541 -0.1943 -0.1885  0.0774
   13CHL1    H8  903   0.793   5.736   9.534  1.0015 -1.3389  1.1970
   13CHL1   C14  904   0.858   5.908   9.420  0.9624 -0.7718  0.3882
   13CHL1   H14  905   0.927   5.994   9.431  0.2301 -0.2929  1.3158
   13CHL1   C15  906   0.720   5.973   9.388 -0.8389  0.4215 -0.8807
   13CHL1  H15A  907   0.643   5.894   9.404 -1.2294  1.0635  0.5252
   13CHL1  H15B  908   0.689   6.063   9.445 -1.4427 -0.4187  0.1368
   13CHL1   C16  909   0.737   6.013   9.238  0.2212  0.2106 -0.1647
   13CHL1  H16A  910   0.647   5.981   9.181  0.1329 -2.7434  1.4966
   13CHL1  H16B  911   0.740   6.123   9.227 -1.4171  0.3264  0.3378
   13CHL1   C17  912   0.866   5.941   9.182 -0.6140  0.0550  0.5960
   13CHL1   H17  913   0.952   6.010   9.200 -1.7455  1.2581  1.4611
   13CHL1   C13  914   0.901   5.837   9.288  0.6554  0.3500 -0.7044
   13CHL1   C18  915   0.813   5.717   9.261 -0.1589 -0.4687  0.3785
   13CHL1  H18A  916   0.833   5.664   9.166  0.8408 -0.7850  0.7571
   13CHL1  H18B  917   0.842   5.642   9.338 -0.0252 -1.1980 -0.3791
   13CHL1  H18C  918   0.703   5.735   9.257 -0.3349 -0.9234  2.3979
   13CHL1   C12  919   1.050   5.809   9.302  0.0060  0.3143  0.8972
   13CHL1  H12A  920   1.089   5.766   9.207  3.2961 -0.3726  2.4886
   13CHL1  H12B  921   1.094   5.908   9.324 -0.0015  0.4399  0.3498
   13CHL1   C11  922   1.073   5.719   9.424  0.5235  0.5767  0.8419
   13CHL1  H11A  923   1.025   5.620   9.407 -2.4650  2.4650 -2.6018
   13CHL1  H11B  924   1.181   5.704   9.443  0.5354 -0.3354  0.0828
   13CHL1    C9  925   1.005   5.772   9.561  0.6087  1.2487 -0.2267
   13CHL1    H9  926   1.054   5.871   9.571  1.2439  0.7279  2.0752
   13CHL1   C10  927   1.012   5.683   9.687 -0.0724  0.2875 -0.7435
   13CHL1   C19  928   0.964   5.537   9.655 -0.3649  0.8805  0.4723
   13CHL1  H19A  929   1.042   5.486   9.595 -0.5207  0.7559  0.3751
   13CHL1  H19B  930   0.954   5.462   9.737  0.1396  1.2330  0.8628
   13CHL1  H19C  931   0.874   5.536   9.590  0.0691  0.8531 -0.1290
   13CHL1    C1  932   1.156   5.675   9.728  0.1955 -0.9678  0.4390
   13CHL1   H1A  933   1.206   5.611   9.653  2.0711 -2.1345  2.6509
   13CHL1   H1B  934   1.202   5.776   9.715  0.6526 -1.4269 -1.6880
   13CHL1    C2  935   1.185   5.623   9.864 -0.1613  0.1655 -0.3187
   13CHL1   H2A  936   1.291   5.629   9.894  0.3009 -1.1546 -1.6212
   13CHL1   H2B  937   1.149   5.518   9.857 -0.8832  0.5382 -2.8789
   13CHL1   C20  938   0.852   5.911   9.030  0.3998  0.5871 -0.1797
   13CHL1   H20  939   0.762   5.850   9.008  2.7632 -3.0699 -0.1674
   13CHL1   C21  940   0.975   5.838   8.974 -0.7201  0.0133  0.1269
   13CHL1  H21A  941   0.981   5.729   8.998 -1.7350  0.1002  0.8599
   13CHL1  H21B  942   1.068   5.878   9.020 -0.7198 -0.4888  0.5734
   13CHL1  H21C  943   0.964   5.855   8.865  0.0249  0.6055  0.1446
   13CHL1   C22  944   0.834   6.051   8.950 -0.1628  0.1642  0.5436
   13CHL1  H22A  945   0.765   6.117   9.005 -3.5837 -1.3429 -1.7260
   13CHL1  H22B  946   0.935   6.097   8.941  0.5865 -1.8789 -2.2991
   13CHL1   C23  947   0.765   6.040   8.813 -0.4662 -0.0139  0.0722
   13CHL1  H23A  948   0.840   6.014   8.735 -1.3957  0.3923 -0.9675
   13CHL1  H23B  949   0.690   5.958   8.814 -0.2821 -0.1974  2.8935
   13CHL1   C24  950   0.718   6.179   8.774 -0.0957 -0.2923 -0.0494
   13CHL1  H24A  951   0.625   6.205   8.831  1.6009  1.0805  2.1859
   13CHL1  H24B  952   0.794   6.255   8.801 -0.9132  0.6350 -0.3295
   13CHL1   C25  953   0.699   6.202   8.615  0.0384  0.8386  0.3399
   13CHL1   H25  954   0.800   6.186   8.573  0.2084  0.9709  0.7004
   13CHL1   C26  955   0.600   6.101   8.563  0.9270  0.1931  0.2021
   13CHL1  H26A  956   0.564   6.140   8.465  0.4252  1.1241  0.7498
   13CHL1  H26B  957   0.645   6.002   8.541  0.0809 -0.2646  0.4968
   13CHL1  H26C  958   0.511   6.084   8.628 -0.7226  0.5436 -1.9176
   13CHL1   C27  959   0.639   6.339   8.582  0.6321  0.6796 -0.4501
   13CHL1  H27A  960   0.645   6.344   8.472 -0.0532  0.5243 -0.5007
   13CHL1  H27B  961   0.530   6.333   8.606  0.9857  0.4888  1.1460
   13CHL1  H27C  962   0.696   6.419   8.634 -2.9986  0.8316  3.6681
   14CHL1    C3  963   0.845   2.175  10.156 -0.2369 -0.3941 -0.2411
   14CHL1    H3  964   0.859   2.065  10.155 -0.4530 -0.4316  0.7273
   14CHL1    O3  965   0.848   2.215  10.295 -0.0586  0.1002  0.5057
   14CHL1   H3'  966   0.826   2.309  10.294 -0.8392 -0.0801 -0.5770
   14CHL1    C4  967   0.946   2.254  10.070  0.5370 -0.0876 -0.0734
   14CHL1   H4A  968   0.943   2.360  10.102  1.7030  0.0214 -0.2973
   14CHL1   H4B  969   1.050   2.230  10.101  0.4069 -0.4652  0.0746
   14CHL1    C5  970   0.926   2.257   9.921 -0.6042 -0.0420 -0.3111
   14CHL1    C6  971   1.021   2.221   9.839  0.2417  0.2063  0.2520
   14CHL1    H6  972   1.118   2.191   9.879 -0.3247  1.0473  2.3325
   14CHL1    C7  973   1.008   2.228   9.686  0.4283  0.4548  0.0554
   14CHL1   H7A  974   1.097   2.281   9.645  1.6890 -0.3012  1.7165
   14CHL1   H7B  975   0.985   2.129   9.641  0.8858  0.4662 -0.2064
   14CHL1    C8  976   0.899   2.320   9.644 -0.3199  0.2207  0.4375
   14CHL1    H8  977   0.921   2.424   9.676 -0.4332  0.3771  0.0083
   14CHL1   C14  978   0.876   2.314   9.494  0.4970 -0.3133  0.9503
   14CHL1   H14  979   0.867   2.206   9.472  1.2271 -0.0684 -0.5744
   14CHL1   C15  980   0.986   2.357   9.394 -0.2466  1.0792 -0.7083
   14CHL1  H15A  981   0.999   2.463   9.425 -3.3390  1.9592 -2.1611
   14CHL1  H15B  982   1.081   2.301   9.394 -0.7705  0.1801 -0.1083
   14CHL1   C16  983   0.913   2.376   9.263 -0.1219  0.1539 -0.7109
   14CHL1  H16A  984   0.933   2.475   9.217 -0.6304  0.7347  0.3053
   14CHL1  H16B  985   0.933   2.294   9.190  0.1192 -0.4007 -0.0219
   14CHL1   C17  986   0.760   2.367   9.298 -0.7621 -0.1787 -0.2041
   14CHL1   H17  987   0.741   2.258   9.285  2.2254 -0.4897 -2.4415
   14CHL1   C13  988   0.748   2.393   9.448  0.7567  0.1740 -0.0567
   14CHL1   C18  989   0.745   2.545   9.486  0.4392  0.6012  0.6298
   14CHL1  H18A  990   0.788   2.553   9.589  2.0508  1.1121 -0.0748
   14CHL1  H18B  991   0.808   2.602   9.415 -0.0439 -0.4314 -0.6367
   14CHL1  H18C  992   0.640   2.579   9.480  0.9033  2.3610  1.9518
   14CHL1   C12  993   0.628   2.318   9.510 -0.7381 -0.1926 -0.4789
   14CHL1  H12A  994   0.529   2.362   9.488  0.7258  2.7612 -1.3239
   14CHL1  H12B  995   0.633   2.211   9.478 -0.6406 -0.2862 -0.1598
   14CHL1   C11  996   0.635   2.325   9.666 -0.4492 -1.0528 -0.2480
   14CHL1  H11A  997   0.611   2.431   9.692 -3.3496 -1.8836  0.7373
   14CHL1  H11B  998   0.557   2.268   9.721 -1.6603  0.3959 -0.4082
   14CHL1    C9  999   0.776   2.270   9.722  0.4423  0.1579 -0.0540
   14CHL1    H9 1000   0.772   2.161   9.704  0.4269  0.0720  0.4436
   14CHL1   C10 1001   0.788   2.296   9.876  0.4121 -0.0692 -0.5245
   14CHL1   C19 1002   0.764   2.447   9.907 -0.4763 -0.5029 -0.7525
   14CHL1  H19A 1003   0.824   2.515   9.843  0.0247 -0.3636 -0.1363
   14CHL1  H19B 1004   0.658   2.476   9.890 -1.1861 -1.2094  2.1243
   14CHL1  H19C 1005   0.786   2.476  10.012  1.9191 -1.3903 -0.9853
   14CHL1    C1 1006   0.688   2.202   9.948 -0.5203  0.7066  0.5468
   14CHL1   H1A 1007   0.581   2.216   9.923 -0.3638  0.9634  0.0154
   14CHL1   H1B 1008   0.710   2.104   9.903  0.3928  1.2411 -0.1919
   14CHL1    C2 1009   0.700   2.191  10.099 -0.4509  0.5671 -0.6552
   14CHL1   H2A 1010   0.632   2.109  10.131 -0.3297 -0.3253 -2.6285
   14CHL1   H2B 1011   0.648   2.280  10.141 -1.2174  0.3377 -1.0996
   14CHL1   C20 1012   0.660   2.434   9.201  0.0048 -0.1549 -0.0047
   14CHL1   H20 1013   0.650   2.540   9.233 -1.8581 -0.0999 -0.6994
   14CHL1   C21 1014   0.518   2.363   9.208 -0.5276 -0.5244  0.2360
   14CHL1  H21A 1015   0.453   2.405   9.128  1.4744  0.6837 -0.8209
   14CHL1  H21B 1016   0.480   2.399   9.306 -0.3484  0.1839  0.0450
   14CHL1  H21C 1017   0.533   2.253   9.207  0.3894 -0.4050 -1.0060
   14CHL1   C22 1018   0.702   2.443   9.048 -0.3880  0.4355  0.1390
   14CHL1  H22A 1019   0.638   2.502   8.979  0.8772  0.8775 -0.6860
   14CHL1  H22B 1020   0.811   2.468   9.047 -0.4696  0.7831  0.0321
   14CHL1   C23 1021   0.683   2.309   8.969  0.6067 -0.4385  0.1351
   14CHL1  H23A 1022   0.749   2.252   9.039  2.3149  1.7659  0.3767
   14CHL1  H23B 1023   0.576   2.280   8.970  0.1835  1.0233 -0.6862
   14CHL1   C24 1024   0.747   2.317   8.828 -0.5526 -0.4188  0.2785
   14CHL1  H24A 1025   0.704   2.408   8.781 -2.1171 -0.4048  1.7098
   14CHL1  H24B 1026   0.857   2.329   8.833 -0.7360  0.9515  1.1239
   14CHL1   C25 1027   0.727   2.197   8.722 -0.4888  0.0054  0.7829
   14CHL1   H25 1028   0.619   2.174   8.716 -0.6101  1.0415 -1.2173
   14CHL1   C26 1029   0.781   2.234   8.582 -0.1489  0.1307 -0.3553
   14CHL1  H26A 1030   0.892   2.237   8.589 -0.0973 -1.6463 -0.0385
   14CHL1  H26B 1031   0.746   2.169   8.499  0.9916 -0.5051 -0.3440
   14CHL1  H26C 1032   0.748   2.338   8.559  0.5447  0.2997 -0.5838
   14CHL1   C27 1033   0.812   2.080   8.763  0.3607 -0.5916  0.2643
   14CHL1  H27A 1034   0.812   1.998   8.688 -1.1156  2.0230 -2.7626
   14CHL1  H27B 1035   0.913   2.114   8.795 -0.0525 -0.1410  1.1180
   14CHL1  H27C 1036   0.788   2.034   8.861  0.5750 -0.1825  0.5160
   15CHL1    C3 1037   1.103   1.233  10.067  0.8910  0.9741 -0.1477
   15CHL1    H3 1038   1.173   1.156  10.030 -0.3334 -0.0420 -0.3702
   15CHL1    O3 1039   1.109   1.241  10.205 -0.5957  0.2575 -0.3057
   15CHL1   H3' 1040   1.084   1.331  10.228  1.6541  0.6009  0.9273
   15CHL1    C4 1041   1.137   1.373  10.014 -0.0922 -0.2399 -0.2996
   15CHL1   H4A 1042   1.052   1.433  10.052  0.0438 -0.6243  0.6314
   15CHL1   H4B 1043   1.228   1.417  10.060 -0.4520 -1.1552  1.3187
   15CHL1    C5 1044   1.133   1.376   9.862 -0.2809  0.2252 -1.2158
   15CHL1    C6 1045   1.244   1.396   9.793 -0.1285 -0.2633 -0.3787
   15CHL1    H6 1046   1.338   1.399   9.851  1.3674  1.3016 -2.7722
   15CHL1    C7 1047   1.253   1.402   9.646  0.8011  0.9809 -0.1004
   15CHL1   H7A 1048   1.308   1.490   9.608 -0.0073  1.7218  0.4166
   15CHL1   H7B 1049   1.314   1.315   9.615 -1.5965 -1.3396  1.4005
   15CHL1    C8 1050   1.122   1.406   9.570 -0.2083  0.4283  0.0903
   15CHL1    H8 1051   1.091   1.512   9.569  0.7868  0.7967  2.6967
   15CHL1   C14 1052   1.134   1.362   9.426 -0.5211  0.0576 -0.0066
   15CHL1   H14 1053   1.164   1.255   9.428 -0.3971  0.0674 -0.9716
   15CHL1   C15 1054   1.230   1.445   9.339 -0.3321  0.4053 -0.1786
   15CHL1  H15A 1055   1.239   1.556   9.347 -0.1646  0.2975  1.2848
   15CHL1  H15B 1056   1.331   1.401   9.353 -0.4280  0.5811  1.2065
   15CHL1   C16 1057   1.183   1.405   9.202  0.1231 -0.4500  0.4004
   15CHL1  H16A 1058   1.168   1.488   9.129 -2.4460 -2.1859 -1.1036
   15CHL1  H16B 1059   1.255   1.346   9.142  1.3289  1.3983 -0.0245
   15CHL1   C17 1060   1.052   1.317   9.210  0.1938  0.2114  0.2359
   15CHL1   H17 1061   1.083   1.211   9.221  1.1909  0.6460  1.7849
   15CHL1   C13 1062   1.000   1.363   9.345 -0.1464 -0.3855 -0.0593
   15CHL1   C18 1063   0.943   1.512   9.338  0.1220  0.0467  0.4758
   15CHL1  H18A 1064   0.995   1.582   9.269 -0.2168  0.0970  0.2685
   15CHL1  H18B 1065   0.840   1.503   9.297 -0.1790  3.0400  0.4431
   15CHL1  H18C 1066   0.930   1.565   9.435 -0.3193  2.5218 -0.8944
   15CHL1   C12 1067   0.900   1.272   9.418  0.0950 -0.3066  0.2266
   15CHL1  H12A 1068   0.798   1.272   9.373  0.7037 -1.0784 -1.1949
   15CHL1  H12B 1069   0.943   1.170   9.406  0.3354 -0.3046  1.0672
   15CHL1   C11 1070   0.869   1.311   9.566 -0.2278 -0.4364 -0.2240
   15CHL1  H11A 1071   0.823   1.412   9.570 -2.5116 -1.4750  1.0376
   15CHL1  H11B 1072   0.803   1.235   9.614 -0.4646  0.3243  0.6745
   15CHL1    C9 1073   1.010   1.329   9.645  0.0287  0.5292 -0.5311
   15CHL1    H9 1074   1.042   1.223   9.637  0.6088  0.8202 -2.1930
   15CHL1   C10 1075   0.995   1.345   9.800  0.1489  0.6649 -0.3543
   15CHL1   C19 1076   0.900   1.468   9.816  0.3418  0.1427  0.1494
   15CHL1  H19A 1077   0.926   1.550   9.746  0.9492 -1.5565 -1.6945
   15CHL1  H19B 1078   0.801   1.426   9.790 -0.1060  1.1598  0.2240
   15CHL1  H19C 1079   0.900   1.493   9.924 -0.4465  0.0871  0.1633
   15CHL1    C1 1080   0.940   1.215   9.870 -0.4479 -0.3745  0.3746
   15CHL1   H1A 1081   0.837   1.208   9.828 -0.4129 -1.6343  0.4962
   15CHL1   H1B 1082   0.995   1.128   9.828 -0.3401  0.1135 -0.5236
   15CHL1    C2 1083   0.958   1.209  10.025 -0.0504 -0.2199 -0.4088
   15CHL1   H2A 1084   0.930   1.103  10.043  1.4143 -0.7148 -0.9913
   15CHL1   H2B 1085   0.881   1.276  10.070 -2.2216 -1.8123 -1.6201
   15CHL1   C20 1086   0.966   1.332   9.077  0.4838  0.0266 -0.2480
   15CHL1   H20 1087   0.949   1.438   9.049  0.9154  0.2827  0.4432
   15CHL1   C21 1088   0.831   1.260   9.098 -0.4035  0.2649 -0.2617
   15CHL1  H21A 1089   0.850   1.155   9.128 -2.0907 -0.1786 -0.6585
   15CHL1  H21B 1090   0.770   1.260   9.005  1.0396  1.5494 -1.2314
   15CHL1  H21C 1091   0.770   1.313   9.174 -0.1530  1.0539 -0.6001
   15CHL1   C22 1092   1.043   1.266   8.958  0.4525  0.0223 -0.0601
   15CHL1  H22A 1093   1.141   1.319   8.949  0.7042 -0.2067  1.2119
   15CHL1  H22B 1094   1.077   1.161   8.968  0.2868 -0.3689 -2.9921
   15CHL1   C23 1095   0.971   1.267   8.821 -0.0477  0.0983  0.1866
   15CHL1  H23A 1096   0.878   1.212   8.846 -0.4481  0.2430 -0.9479
   15CHL1  H23B 1097   0.946   1.372   8.794  0.9331  0.3104  0.0975
   15CHL1   C24 1098   1.058   1.214   8.702 -0.1907  0.7594  0.4234
   15CHL1  H24A 1099   1.142   1.283   8.680  0.3949  0.4191  1.5544
   15CHL1  H24B 1100   1.111   1.125   8.742  0.5526  1.2361  0.5142
   15CHL1   C25 1101   0.980   1.184   8.572  0.4788  0.4789 -0.0230
   15CHL1   H25 1102   0.895   1.118   8.600  0.3158  0.4123 -0.6759
   15CHL1   C26 1103   0.906   1.308   8.508  0.6903  0.5655  0.4194
   15CHL1  H26A 1104   0.818   1.273   8.449 -0.1707  0.7917  1.5649
   15CHL1  H26B 1105   0.849   1.369   8.581  0.8555 -1.4626  2.2660
   15CHL1  H26C 1106   0.979   1.367   8.448  0.1003 -0.3672 -1.2676
   15CHL1   C27 1107   1.070   1.109   8.470  0.3040  0.6816 -0.2787
   15CHL1  H27A 1108   1.011   1.090   8.378  0.1157  2.5947 -0.5752
   15CHL1  H27B 1109   1.149   1.178   8.433  1.9646  0.2068  2.2156
   15CHL1  H27C 1110   1.110   1.016   8.515  0.9548  1.6491  1.1957
   16CHL1    C3 1111   1.799   1.738  10.490 -0.0341  0.0488 -0.6760
   16CHL1    H3 1112   1.716   1.806  10.463 -1.5196 -0.9320  1.2684
   16CHL1    O3 1113   1.809   1.742  10.633  0.1515 -0.2195 -0.5403
   16CHL1   H3' 1114   1.804   1.835  10.655 -1.1312 -0.0523 -1.5185
   16CHL1    C4 1115   1.775   1.589  10.448  0.3700 -0.5379  0.2398
   16CHL1   H4A 1116   1.862   1.530  10.485 -0.4119 -0.0718  2.9070
   16CHL1   H4B 1117   1.678   1.553  10.489 -0.4094  1.9559  0.6444
   16CHL1    C5 1118   1.758   1.589  10.296 -0.2101 -0.2812  0.2464
   16CHL1    C6 1119   1.649   1.549  10.227  0.7474 -0.0250  0.0497
   16CHL1    H6 1120   1.557   1.507  10.272  0.9369 -0.1972  0.2739
   16CHL1    C7 1121   1.635   1.540  10.078  0.2500 -0.5782 -0.0970
   16CHL1   H7A 1122   1.602   1.438  10.049  0.3411 -0.7679  0.4468
   16CHL1   H7B 1123   1.554   1.608  10.045  1.3595  0.8106 -0.0172
   16CHL1    C8 1124   1.768   1.575  10.004 -0.2387 -0.8165 -0.4674
   16CHL1    H8 1125   1.830   1.484   9.987  0.6677 -0.4628  0.9120
   16CHL1   C14 1126   1.731   1.612   9.861  0.1253 -0.4746  0.1138
   16CHL1   H14 1127   1.675   1.707   9.873  1.3155  0.0150  2.2700
   16CHL1   C15 1128   1.648   1.512   9.784 -0.4126 -0.2196 -0.7341
   16CHL1  H15A 1129   1.685   1.408   9.794 -0.6237 -0.2942 -0.7437
   16CHL1  H15B 1130   1.542   1.528   9.811 -0.0876  2.3382 -0.8745
   16CHL1   C16 1131   1.651   1.562   9.642  0.0377 -0.8093  0.4742
   16CHL1  H16A 1132   1.686   1.477   9.579 -1.8547 -1.5483  0.3889
   16CHL1  H16B 1133   1.560   1.612   9.603  0.2676 -0.2162  0.6978
   16CHL1   C17 1134   1.764   1.674   9.642  0.5614  0.0827  0.2471
   16CHL1   H17 1135   1.708   1.766   9.667  2.1232  1.1538 -0.1069
   16CHL1   C13 1136   1.844   1.651   9.768  0.0876  0.4489  0.1251
   16CHL1   C18 1137   1.952   1.539   9.748  0.1490 -0.1889  0.4478
   16CHL1  H18A 1138   1.902   1.453   9.699  0.1968 -1.2031  2.1484
   16CHL1  H18B 1139   2.036   1.570   9.681  0.8591  0.3569  1.5817
   16CHL1  H18C 1140   1.973   1.505   9.851  0.9373 -2.6307 -0.4852
   16CHL1   C12 1141   1.902   1.778   9.834  0.3360  0.8442  0.8481
   16CHL1  H12A 1142   1.991   1.813   9.777 -0.5811 -0.4027 -1.4142
   16CHL1  H12B 1143   1.828   1.861   9.831 -2.1054 -1.2382  2.0558
   16CHL1   C11 1144   1.956   1.752   9.982 -0.0716  0.0958 -0.8067
   16CHL1  H11A 1145   2.038   1.678   9.972  0.3399  0.5790 -1.0704
   16CHL1  H11B 1146   2.001   1.844  10.026  0.7999 -0.3230 -0.7997
   16CHL1    C9 1147   1.844   1.688  10.073 -0.0792 -0.7086 -0.3723
   16CHL1    H9 1148   1.762   1.763  10.074  0.9107  0.4063  2.1085
   16CHL1   C10 1149   1.878   1.648  10.217 -0.2711  1.0566 -0.1666
   16CHL1   C19 1150   1.987   1.537  10.219  0.4521  0.5004 -0.1690
   16CHL1  H19A 1151   1.954   1.450  10.158 -2.1053 -0.7731  2.8687
   16CHL1  H19B 1152   2.077   1.586  10.178 -0.1042  1.5193 -0.1857
   16CHL1  H19C 1153   2.010   1.507  10.323 -0.6231 -0.8431 -0.2906
   16CHL1    C1 1154   1.935   1.774  10.282  0.4091 -0.4975 -0.0823
   16CHL1   H1A 1155   2.037   1.793  10.241  1.2536 -0.4987  1.9684
   16CHL1   H1B 1156   1.872   1.859  10.248 -0.3126 -1.7124 -1.8174
   16CHL1    C2 1157   1.933   1.787  10.437 -0.1805 -0.6947 -0.0738
   16CHL1   H2A 1158   1.964   1.886  10.475 -1.0681 -1.1700  1.9455
   16CHL1   H2B 1159   2.013   1.715  10.466  1.3340  0.5103 -1.2175
   16CHL1   C20 1160   1.838   1.682   9.508  0.1866  0.1656  0.0696
   16CHL1   H20 1161   1.889   1.584   9.489 -1.3294 -1.1644  2.5731
   16CHL1   C21 1162   1.938   1.797   9.507 -0.5374  0.1890  0.2390
   16CHL1  H21A 1163   2.011   1.763   9.583  0.7746  2.1798 -0.0813
   16CHL1  H21B 1164   1.891   1.897   9.520 -2.7147 -0.5899 -1.2779
   16CHL1  H21C 1165   1.982   1.806   9.405  0.9080  2.6919  1.0260
   16CHL1   C22 1166   1.747   1.681   9.378  0.2995 -0.5488  0.1256
   16CHL1  H22A 1167   1.812   1.658   9.291 -0.8850  0.6316 -1.1137
   16CHL1  H22B 1168   1.683   1.591   9.390 -1.4110  0.5686 -0.3433
   16CHL1   C23 1169   1.648   1.798   9.356  0.5436  0.2133 -0.1827
   16CHL1  H23A 1170   1.585   1.808   9.447  0.0713  0.2562 -0.5121
   16CHL1  H23B 1171   1.689   1.896   9.324 -3.6602  1.6574 -1.4012
   16CHL1   C24 1172   1.538   1.773   9.247 -0.5489  0.2599  0.0992
   16CHL1  H24A 1173   1.506   1.667   9.254 -3.2213  0.7823 -3.3803
   16CHL1  H24B 1174   1.449   1.839   9.248 -1.6090 -1.1417  1.7527
   16CHL1   C25 1175   1.603   1.779   9.102 -0.1488  0.3500 -0.5753
   16CHL1   H25 1176   1.672   1.692   9.097 -0.9894 -0.4957  2.0146
   16CHL1   C26 1177   1.492   1.744   8.996  0.2397  0.3369  0.3222
   16CHL1  H26A 1178   1.516   1.733   8.889  0.5778 -2.6303  0.6437
   16CHL1  H26B 1179   1.436   1.656   9.035 -0.3260  0.8660  0.6950
   16CHL1  H26C 1180   1.419   1.828   9.002 -0.4916 -0.2474 -0.2948
   16CHL1   C27 1181   1.662   1.913   9.066  1.4118 -0.2895 -0.7448
   16CHL1  H27A 1182   1.766   1.920   9.103  0.5371  1.5379  1.5118
   16CHL1  H27B 1183   1.660   1.928   8.956  1.1630 -0.2560 -0.7385
   16CHL1  H27C 1184   1.607   1.987   9.128  0.3556 -0.7757 -1.0820
   17CHL1    C3 1185   4.354   5.211  10.425 -0.0185 -0.4051  0.5425
   17CHL1    H3 1186   4.252   5.169  10.418  0.1382 -0.7222  0.1245
   17CHL1    O3 1187   4.377   5.260  10.555  0.2984  0.4533 -0.0054
   17CHL1   H3' 1188   4.293   5.293  10.589  0.8208  0.7226  1.0372
   17CHL1    C4 1189   4.452   5.102  10.382  0.6188 -0.5420  0.0441
   17CHL1   H4A 1190   4.559   5.125  10.398  1.2432 -2.8684 -0.6348
   17CHL1   H4B 1191   4.444   5.007  10.439  2.3803 -0.8771 -0.2525
   17CHL1    C5 1192   4.443   5.069  10.238  0.0864  0.1005  0.5194
   17CHL1    C6 1193   4.443   4.946  10.187 -0.3000 -0.0479  0.0968
   17CHL1    H6 1194   4.458   4.864  10.258  0.3906 -0.9711 -1.1033
   17CHL1    C7 1195   4.450   4.901  10.042 -0.2522  0.2474 -1.0619
   17CHL1   H7A 1196   4.543   4.839  10.038 -0.0729  0.5918 -2.7806
   17CHL1   H7B 1197   4.363   4.834  10.022 -0.9825  1.0403 -0.5515
   17CHL1    C8 1198   4.479   5.021   9.954  0.1791  0.6005 -0.2561
   17CHL1    H8 1199   4.587   5.045   9.962 -0.0134  1.3047  0.2508
   17CHL1   C14 1200   4.435   4.984   9.818 -0.2574  0.6818 -0.3139
   17CHL1   H14 1201   4.326   4.964   9.826  0.3142 -1.6482  2.6164
   17CHL1   C15 1202   4.492   4.849   9.770  0.2216  0.3017 -0.8241
   17CHL1  H15A 1203   4.597   4.842   9.807 -0.7268  1.6088  2.2683
   17CHL1  H15B 1204   4.428   4.764   9.801  0.9015  0.3850  0.8425
   17CHL1   C16 1205   4.497   4.860   9.617 -0.2103 -1.4202  0.0390
   17CHL1  H16A 1206   4.602   4.855   9.582  0.3930  4.7021  0.3209
   17CHL1  H16B 1207   4.438   4.784   9.563 -1.2311 -2.1784  2.1850
   17CHL1   C17 1208   4.435   5.003   9.581  0.0994 -0.4975 -0.0622
   17CHL1   H17 1209   4.325   5.004   9.568  0.3994 -1.1798 -2.9310
   17CHL1   C13 1210   4.473   5.085   9.710 -0.2402 -0.2061  0.3211
   17CHL1   C18 1211   4.624   5.108   9.711  0.0971 -0.1626  0.2300
   17CHL1  H18A 1212   4.648   5.160   9.807 -1.2806 -1.0572  1.0801
   17CHL1  H18B 1213   4.692   5.023   9.693  1.1107  0.2847  1.8248
   17CHL1  H18C 1214   4.650   5.176   9.627 -2.3709 -1.8131 -1.9581
   17CHL1   C12 1215   4.387   5.210   9.744 -0.0852  0.5353  0.6186
   17CHL1  H12A 1216   4.415   5.296   9.680 -1.0878  0.0624 -0.4653
   17CHL1  H12B 1217   4.278   5.187   9.746  0.1346 -0.6662 -0.6396
   17CHL1   C11 1218   4.419   5.256   9.890 -0.4313  0.7655 -0.0463
   17CHL1  H11A 1219   4.525   5.289   9.903 -0.3833  0.6282 -0.0913
   17CHL1  H11B 1220   4.362   5.349   9.911 -1.4277  0.0905  0.2340
   17CHL1    C9 1221   4.405   5.145   9.998 -0.4050 -1.0011 -0.4782
   17CHL1    H9 1222   4.296   5.125  10.001 -0.6056  0.2589  2.2064
   17CHL1   C10 1223   4.446   5.192  10.142  0.3564  1.2050  0.4291
   17CHL1   C19 1224   4.596   5.237  10.145 -0.2346  0.2173 -0.0872
   17CHL1  H19A 1225   4.601   5.333  10.088  1.1114  1.8389  2.6380
   17CHL1  H19B 1226   4.619   5.256  10.252 -0.5191  2.4746 -0.3965
   17CHL1  H19C 1227   4.664   5.162  10.101  0.7820 -0.0259  1.8569
   17CHL1    C1 1228   4.347   5.298  10.182  0.3408 -0.9797  0.0138
   17CHL1   H1A 1229   4.337   5.388  10.117 -0.5627 -0.8231  0.3576
   17CHL1   H1B 1230   4.245   5.256  10.173  0.5142 -1.1802 -1.1558
   17CHL1    C2 1231   4.357   5.332  10.335  0.3168 -0.5128 -0.0616
   17CHL1   H2A 1232   4.275   5.397  10.373 -0.9021 -2.1399  0.1656
   17CHL1   H2B 1233   4.451   5.388  10.350  0.4713 -1.5746  3.3146
   17CHL1   C20 1234   4.481   5.049   9.448  0.6176 -0.4214 -0.7465
   17CHL1   H20 1235   4.592   5.061   9.446  0.5098  0.9604  1.4644
   17CHL1   C21 1236   4.431   5.193   9.419  0.3197  0.5164  0.1914
   17CHL1  H21A 1237   4.472   5.212   9.317  0.4032 -2.4913 -0.3699
   17CHL1  H21B 1238   4.477   5.265   9.490  1.0172 -0.4111  0.6838
   17CHL1  H21C 1239   4.320   5.200   9.416  0.1038 -1.8904  1.3202
   17CHL1   C22 1240   4.451   4.946   9.338 -0.8777 -0.0715 -0.1450
   17CHL1  H22A 1241   4.515   4.856   9.338  3.4187  2.7329  3.8702
   17CHL1  H22B 1242   4.348   4.907   9.356 -0.3818 -0.7404  1.4017
   17CHL1   C23 1243   4.459   4.991   9.193 -0.6538 -0.1552  0.7647
   17CHL1  H23A 1244   4.373   5.056   9.165  0.6968  2.1233  1.7976
   17CHL1  H23B 1245   4.551   5.048   9.170  0.1806 -0.7360  2.5613
   17CHL1   C24 1246   4.451   4.883   9.091  0.0188  0.8555  0.0169
   17CHL1  H24A 1247   4.502   4.793   9.133 -0.5469 -0.2198 -1.5548
   17CHL1  H24B 1248   4.350   4.838   9.079  0.7557 -0.6886 -0.5266
   17CHL1   C25 1249   4.503   4.910   8.952 -0.4064 -0.3408 -0.6728
   17CHL1   H25 1250   4.477   4.831   8.878 -1.5796 -0.0865 -0.5430
   17CHL1   C26 1251   4.458   5.039   8.886 -0.0871 -0.1363  0.1515
   17CHL1  H26A 1252   4.503   5.051   8.786 -2.1153  1.0765 -0.6674
   17CHL1  H26B 1253   4.349   5.057   8.876  0.5586  3.7306 -0.8729
   17CHL1  H26C 1254   4.504   5.126   8.938 -0.5290  0.6181 -0.6968
   17CHL1   C27 1255   4.660   4.911   8.953 -0.2089  0.3584  0.0014
   17CHL1  H27A 1256   4.698   4.976   9.035 -1.5441  1.9230 -0.5766
   17CHL1  H27B 1257   4.703   4.809   8.956  2.2165  1.3177 -0.6671
   17CHL1  H27C 1258   4.705   4.961   8.865  0.7388 -0.3749  0.0626
   18CHL1    C3 1259   3.743   4.010  10.126 -0.4946 -0.3106 -0.4196
   18CHL1    H3 1260   3.649   3.974  10.172  0.1402 -0.5403  0.7065
   18CHL1    O3 1261   3.841   4.002  10.233 -0.1778  0.0604  0.4529
   18CHL1   H3' 1262   3.859   3.907  10.237 -0.1254  0.0621  0.2666
   18CHL1    C4 1263   3.779   3.902  10.023 -0.3556 -0.2701  0.5954
   18CHL1   H4A 1264   3.889   3.902  10.007 -0.2756 -1.6699  1.0385
   18CHL1   H4B 1265   3.771   3.806  10.078 -2.6594  0.0918  0.9204
   18CHL1    C5 1266   3.703   3.904   9.891  0.1475  0.0592 -0.4367
   18CHL1    C6 1267   3.654   3.790   9.841  0.2721  0.5128  0.9426
   18CHL1    H6 1268   3.681   3.698   9.895 -0.0556  2.0489  3.8476
   18CHL1    C7 1269   3.593   3.777   9.699  0.1839 -0.1110 -0.2311
   18CHL1   H7A 1270   3.645   3.699   9.639  1.3798  0.9873 -0.6218
   18CHL1   H7B 1271   3.487   3.745   9.702 -0.5911  2.5066  1.5835
   18CHL1    C8 1272   3.615   3.913   9.625  0.4810  0.0061  0.2472
   18CHL1    H8 1273   3.713   3.920   9.574  0.2535  3.1718  0.1520
   18CHL1   C14 1274   3.514   3.914   9.505 -0.0263  0.4528 -0.4440
   18CHL1   H14 1275   3.419   3.920   9.561 -0.4433  0.6577 -1.1676
   18CHL1   C15 1276   3.510   3.800   9.407 -0.0486  0.0908  0.2745
   18CHL1  H15A 1277   3.613   3.780   9.372 -0.1963  0.9770 -0.7175
   18CHL1  H15B 1278   3.458   3.715   9.456 -0.0208  0.7921  1.5313
   18CHL1   C16 1279   3.430   3.847   9.283  0.5159  0.4684  0.2080
   18CHL1  H16A 1280   3.496   3.831   9.194 -2.1751  0.8192 -1.9031
   18CHL1  H16B 1281   3.332   3.797   9.273  1.2631 -1.0329  0.2185
   18CHL1   C17 1282   3.407   4.001   9.311 -0.5227 -0.4117  0.2284
   18CHL1   H17 1283   3.318   4.013   9.376 -0.3171 -0.5971  0.5484
   18CHL1   C13 1284   3.524   4.046   9.408  0.2640  0.3535 -0.5378
   18CHL1   C18 1285   3.659   4.045   9.321 -0.3336 -0.1012  0.5025
   18CHL1  H18A 1286   3.658   4.146   9.274  0.6394  0.4855  1.7187
   18CHL1  H18B 1287   3.746   4.051   9.390  0.4767  0.6236 -0.5619
   18CHL1  H18C 1288   3.670   3.969   9.240  1.8155  0.5550  0.1417
   18CHL1   C12 1289   3.499   4.170   9.499 -0.5839  0.3818 -0.0034
   18CHL1  H12A 1290   3.513   4.264   9.441  1.7832  0.0809  0.0355
   18CHL1  H12B 1291   3.395   4.162   9.539 -0.6902 -0.1572 -0.3821
   18CHL1   C11 1292   3.594   4.167   9.622  0.2408  0.0074  0.1144
   18CHL1  H11A 1293   3.694   4.187   9.577  0.9885  0.1403  1.8060
   18CHL1  H11B 1294   3.583   4.261   9.679 -0.8454  0.2718 -0.5138
   18CHL1    C9 1295   3.594   4.039   9.709  0.2254  0.2467 -0.0774
   18CHL1    H9 1296   3.493   4.019   9.749 -0.7568  1.1128 -2.0734
   18CHL1   C10 1297   3.691   4.039   9.831 -0.6949  0.0290  0.7909
   18CHL1   C19 1298   3.830   4.088   9.781  0.5140 -0.2150  0.0333
   18CHL1  H19A 1299   3.911   4.053   9.848  0.8773 -0.6846 -0.6436
   18CHL1  H19B 1300   3.854   4.048   9.681  0.9325  0.2995 -0.0756
   18CHL1  H19C 1301   3.824   4.199   9.778 -1.6731 -0.3397 -1.5101
   18CHL1    C1 1302   3.642   4.134   9.939 -0.2457 -0.2230 -0.7783
   18CHL1   H1A 1303   3.605   4.232   9.900 -1.3044 -0.3048 -0.0056
   18CHL1   H1B 1304   3.547   4.087   9.974 -0.9806  0.4679 -1.8151
   18CHL1    C2 1305   3.731   4.147  10.064 -0.0447  0.3906 -0.4405
   18CHL1   H2A 1306   3.692   4.222  10.135  0.9962  0.0896  0.4586
   18CHL1   H2B 1307   3.830   4.187  10.034  2.1356 -3.9771  0.5499
   18CHL1   C20 1308   3.385   4.078   9.178  0.3315 -0.0837  0.1495
   18CHL1   H20 1309   3.478   4.107   9.125 -0.0810 -1.1568 -1.2041
   18CHL1   C21 1310   3.304   4.202   9.215 -0.2079 -0.9612  0.2968
   18CHL1  H21A 1311   3.203   4.189   9.258 -0.7087  0.4476 -0.4238
   18CHL1  H21B 1312   3.298   4.261   9.121 -1.1028 -0.2270  0.8123
   18CHL1  H21C 1313   3.345   4.275   9.288 -0.9762 -0.8412  0.6082
   18CHL1   C22 1314   3.308   3.998   9.068  0.0884  0.8169 -0.0958
   18CHL1  H22A 1315   3.359   3.902   9.044  1.9869  1.1691  2.3430
   18CHL1  H22B 1316   3.208   3.973   9.108  0.0177 -0.2393 -0.9134
   18CHL1   C23 1317   3.296   4.077   8.937  0.0491  0.3057 -0.9411
   18CHL1  H23A 1318   3.227   4.163   8.953 -0.6111 -0.7320  2.2005
   18CHL1  H23B 1319   3.397   4.115   8.912  0.6024 -0.2098  0.4554
   18CHL1   C24 1320   3.243   3.989   8.824 -0.8267 -0.0488 -0.5397
   18CHL1  H24A 1321   3.318   3.912   8.795  0.9673  1.5825 -0.3574
   18CHL1  H24B 1322   3.153   3.939   8.865 -0.8501  0.2435 -0.2380
   18CHL1   C25 1323   3.201   4.055   8.695  0.5127  0.0345  0.0991
   18CHL1   H25 1324   3.107   4.111   8.717  0.0164 -0.0142 -1.7553
   18CHL1   C26 1325   3.304   4.155   8.645 -0.1321 -0.5364 -0.2220
   18CHL1  H26A 1326   3.406   4.115   8.626 -0.7591 -2.3176  0.0676
   18CHL1  H26B 1327   3.271   4.214   8.556  1.2325  1.5711  0.6135
   18CHL1  H26C 1328   3.311   4.245   8.710  0.3026 -0.3894 -0.4666
   18CHL1   C27 1329   3.149   3.957   8.588  0.1708  0.0242 -1.1920
   18CHL1  H27A 1330   3.141   4.003   8.487  0.2915 -0.4711 -1.4293
   18CHL1  H27B 1331   3.228   3.881   8.573  1.8286  1.3348  0.6617
   18CHL1  H27C 1332   3.045   3.925   8.609  0.3000  0.7222  0.6193
   19CHL1    C3 1333   0.574   0.813  10.093  0.2806 -0.5931  0.7623
   19CHL1    H3 1334   0.529   0.711  10.086 -0.1035 -0.3862  0.1824
   19CHL1    O3 1335   0.579   0.849  10.235  0.0384  0.2813 -0.0483
   19CHL1   H3' 1336   0.659   0.809  10.269  1.6514  0.4311 -3.4737
   19CHL1    C4 1337   0.715   0.814  10.029  0.6668  0.0016 -0.3180
   19CHL1   H4A 1338   0.753   0.918  10.042  1.9054 -0.1154 -2.7308
   19CHL1   H4B 1339   0.780   0.751  10.094  1.0069  1.1563  0.4879
   19CHL1    C5 1340   0.708   0.776   9.881 -0.5443  0.2511 -0.5022
   19CHL1    C6 1341   0.778   0.667   9.834 -0.4337 -0.0126 -0.0971
   19CHL1    H6 1342   0.846   0.613   9.901 -0.5746 -0.5986 -0.4266
   19CHL1    C7 1343   0.784   0.630   9.687  0.3369 -1.1532 -0.0320
   19CHL1   H7A 1344   0.888   0.614   9.652  0.0313 -0.5773 -1.2357
   19CHL1   H7B 1345   0.719   0.540   9.673 -2.9833  1.5042 -2.6380
   19CHL1    C8 1346   0.728   0.750   9.595  0.5227 -0.1639  0.6954
   19CHL1    H8 1347   0.807   0.828   9.601  1.2083 -0.6850 -1.2244
   19CHL1   C14 1348   0.718   0.714   9.446 -0.2002  0.3671  0.0755
   19CHL1   H14 1349   0.643   0.633   9.432 -0.9651  0.6946  2.0917
   19CHL1   C15 1350   0.838   0.648   9.387 -0.5717  0.4063 -0.1239
   19CHL1  H15A 1351   0.933   0.688   9.430  1.3241 -5.5771  1.7283
   19CHL1  H15B 1352   0.836   0.546   9.431  1.4987  0.5927  0.4444
   19CHL1   C16 1353   0.828   0.676   9.238 -0.5380 -0.1547 -0.1984
   19CHL1  H16A 1354   0.918   0.727   9.198  0.6317 -0.5272  1.8554
   19CHL1  H16B 1355   0.830   0.584   9.176  0.6164 -1.2163  1.3494
   19CHL1   C17 1356   0.694   0.758   9.218  0.2768 -0.4454  0.3135
   19CHL1   H17 1357   0.613   0.682   9.213 -1.8329  1.7446  0.0481
   19CHL1   C13 1358   0.668   0.827   9.355  0.9522  0.0010 -0.6227
   19CHL1   C18 1359   0.754   0.957   9.370 -0.2674 -0.2357 -0.3357
   19CHL1  H18A 1360   0.754   0.996   9.474 -1.8774 -1.7577  0.2588
   19CHL1  H18B 1361   0.861   0.936   9.351  0.2550  1.4149  0.6267
   19CHL1  H18C 1362   0.724   1.047   9.312 -2.0737  0.5308  1.7010
   19CHL1   C12 1363   0.523   0.852   9.396  0.8892 -0.6644 -0.5546
   19CHL1  H12A 1364   0.466   0.925   9.335  1.5601  1.8228  1.6860
   19CHL1  H12B 1365   0.473   0.754   9.380 -2.7090  0.8000  1.2395
   19CHL1   C11 1366   0.512   0.884   9.552  0.2354  0.1657 -0.3328
   19CHL1  H11A 1367   0.544   0.989   9.565 -1.6667  0.9376 -1.5964
   19CHL1  H11B 1368   0.404   0.882   9.579  0.0666  0.0497 -1.0012
   19CHL1    C9 1369   0.590   0.799   9.652 -0.0024  0.1435 -0.2857
   19CHL1    H9 1370   0.528   0.709   9.671  0.2463  0.2230  0.9949
   19CHL1   C10 1371   0.606   0.863   9.795  0.0135 -0.4695 -0.4228
   19CHL1   C19 1372   0.674   1.006   9.779 -0.1001  0.1311  0.8186
   19CHL1  H19A 1373   0.695   1.055   9.876  1.1681 -0.7021  0.9769
   19CHL1  H19B 1374   0.765   1.002   9.715 -1.7217  1.7316 -1.6804
   19CHL1  H19C 1375   0.612   1.071   9.713  2.9656  1.4544 -0.8350
   19CHL1    C1 1376   0.473   0.863   9.871 -0.5120  0.1399 -0.5733
   19CHL1   H1A 1377   0.394   0.927   9.826 -1.1849 -0.1453  0.1771
   19CHL1   H1B 1378   0.427   0.762   9.878 -0.2324  0.1116  1.0317
   19CHL1    C2 1379   0.476   0.910  10.021 -0.2955 -0.0335 -0.1657
   19CHL1   H2A 1380   0.375   0.915  10.067 -0.0177  2.2576  0.2350
   19CHL1   H2B 1381   0.519   1.012  10.013 -3.8014  1.5595  0.4412
   19CHL1   C20 1382   0.697   0.851   9.096  0.1281 -0.9511  0.5319
   19CHL1   H20 1383   0.786   0.917   9.105  0.6653 -1.5164 -0.5124
   19CHL1   C21 1384   0.569   0.935   9.078 -0.1374  1.1277  0.1631
   19CHL1  H21A 1385   0.573   1.016   9.154 -0.8464  0.5829  0.8021
   19CHL1  H21B 1386   0.477   0.874   9.095 -0.6824  1.8605 -0.1053
   19CHL1  H21C 1387   0.566   0.985   8.979  1.5089  0.5174 -0.2056
   19CHL1   C22 1388   0.734   0.781   8.966 -0.3356  0.0605  0.1093
   19CHL1  H22A 1389   0.716   0.856   8.886  2.1360 -0.7220 -1.2077
   19CHL1  H22B 1390   0.841   0.752   8.956 -0.3408 -0.8540  2.3861
   19CHL1   C23 1391   0.653   0.657   8.922 -0.2711 -0.7735  0.0852
   19CHL1  H23A 1392   0.670   0.563   8.977  0.4571 -0.8972 -0.3477
   19CHL1  H23B 1393   0.547   0.672   8.954 -0.2262 -1.7598  0.7018
   19CHL1   C24 1394   0.653   0.631   8.769 -0.5190 -0.1083 -0.1526
   19CHL1  H24A 1395   0.630   0.723   8.712  1.1991 -0.6308 -1.7327
   19CHL1  H24B 1396   0.763   0.623   8.754 -0.0995  1.1507  2.0083
   19CHL1   C25 1397   0.565   0.514   8.718  0.0287 -0.3301 -0.2751
   19CHL1   H25 1398   0.559   0.442   8.802  0.7794  1.1127  1.0400
   19CHL1   C26 1399   0.431   0.573   8.684  0.1358 -0.1656 -0.1820
   19CHL1  H26A 1400   0.438   0.643   8.597  2.2307 -0.0966  0.0221
   19CHL1  H26B 1401   0.356   0.495   8.660 -2.0513  0.5294  4.0031
   19CHL1  H26C 1402   0.387   0.631   8.768 -0.4345 -0.1157 -0.5112
   19CHL1   C27 1403   0.632   0.437   8.605  0.2903  0.3692 -0.9984
   19CHL1  H27A 1404   0.731   0.400   8.639  0.3438  1.5068  0.1112
   19CHL1  H27B 1405   0.584   0.342   8.574 -1.5974  1.2282 -0.7612
   19CHL1  H27C 1406   0.641   0.493   8.509  3.1363  3.0899  0.7564
   20CHL1    C3 1407   2.963   1.207  10.213 -0.0622  0.5636  0.3664
   20CHL1    H3 1408   2.989   1.313  10.197 -3.0961  1.1306 -1.2347
   20CHL1    O3 1409   2.962   1.178  10.356  0.1718 -0.0570  0.3356
   20CHL1   H3' 1410   2.957   1.083  10.348  2.7275 -0.1303 -0.8411
   20CHL1    C4 1411   2.823   1.181  10.156  0.1080  0.1530  0.2218
   20CHL1   H4A 1412   2.790   1.080  10.189 -0.7147  0.1111 -0.7006
   20CHL1   H4B 1413   2.747   1.246  10.204  1.7038  1.8496  0.5031
   20CHL1    C5 1414   2.810   1.189  10.003 -0.2816 -0.0476  0.6843
   20CHL1    C6 1415   2.712   1.261   9.950  0.0525 -1.0220 -0.8954
   20CHL1    H6 1416   2.638   1.311  10.015 -1.8137 -3.2035 -1.2873
   20CHL1    C7 1417   2.696   1.289   9.801  0.3056 -0.0913  0.1490
   20CHL1   H7A 1418   2.597   1.263   9.757 -0.0091  2.0099 -0.4003
   20CHL1   H7B 1419   2.705   1.396   9.774 -0.2637  0.1201  0.7629
   20CHL1    C8 1420   2.788   1.203   9.712 -0.2599  0.2880  0.0466
   20CHL1    H8 1421   2.745   1.101   9.702  0.3301  0.1743 -1.3821
   20CHL1   C14 1422   2.800   1.257   9.560  0.2162 -0.4546 -0.1622
   20CHL1   H14 1423   2.864   1.348   9.571  0.9172 -0.8627 -0.8503
   20CHL1   C15 1424   2.673   1.295   9.485  0.1800 -0.1431 -0.0691
   20CHL1  H15A 1425   2.603   1.211   9.503 -0.7568  0.6789  0.1721
   20CHL1  H15B 1426   2.642   1.396   9.522  2.9494  1.3516 -1.6162
   20CHL1   C16 1427   2.722   1.302   9.340  0.0236 -0.0205 -0.2077
   20CHL1  H16A 1428   2.660   1.235   9.277  3.1428  0.7861 -4.3723
   20CHL1  H16B 1429   2.707   1.398   9.286  1.2296  1.0150  1.2459
   20CHL1   C17 1430   2.870   1.248   9.339 -0.5557 -0.5183  0.1915
   20CHL1   H17 1431   2.923   1.346   9.341 -1.8824  0.1960  2.3833
   20CHL1   C13 1432   2.882   1.168   9.465 -0.4616  0.4375 -0.6336
   20CHL1   C18 1433   2.815   1.028   9.444  0.0619  0.4592 -0.1249
   20CHL1  H18A 1434   2.786   0.972   9.535 -1.9130 -1.8484 -2.0889
   20CHL1  H18B 1435   2.732   1.035   9.370 -0.3711  0.1014  0.3278
   20CHL1  H18C 1436   2.887   0.963   9.390  1.2334  1.5145  0.1567
   20CHL1   C12 1437   3.029   1.148   9.533  0.5298 -0.0053  0.0951
   20CHL1  H12A 1438   3.094   1.094   9.461  0.9084  2.0629 -1.1574
   20CHL1  H12B 1439   3.073   1.248   9.550 -0.1184  0.7347 -2.3656
   20CHL1   C11 1440   3.013   1.085   9.670 -0.9275 -0.7512  0.2479
   20CHL1  H11A 1441   2.976   0.980   9.660  1.3251 -1.7435  1.9794
   20CHL1  H11B 1442   3.109   1.069   9.724  0.1589  1.0525 -1.1000
   20CHL1    C9 1443   2.927   1.176   9.762 -0.1628  0.3998 -0.6934
   20CHL1    H9 1444   2.979   1.273   9.774  2.1958 -1.1852  2.6917
   20CHL1   C10 1445   2.918   1.118   9.916 -0.1490 -1.7258  0.5733
   20CHL1   C19 1446   2.884   0.965   9.907  0.8898 -0.5085 -0.2273
   20CHL1  H19A 1447   2.873   0.918  10.007 -1.0869 -2.0983 -1.1623
   20CHL1  H19B 1448   2.792   0.950   9.847 -0.7494  0.0277  2.0879
   20CHL1  H19C 1449   2.965   0.914   9.850  0.6041 -2.6699  1.2395
   20CHL1    C1 1450   3.059   1.140   9.981  0.7329  0.1914 -0.1689
   20CHL1   H1A 1451   3.122   1.061   9.934  1.0139  0.8788 -0.9542
   20CHL1   H1B 1452   3.116   1.231   9.951  2.4551 -0.9805 -0.5748
   20CHL1    C2 1453   3.060   1.119  10.132 -0.0605 -0.0554  0.4701
   20CHL1   H2A 1454   3.161   1.130  10.177  0.3806 -1.6203 -0.0900
   20CHL1   H2B 1455   3.024   1.016  10.154  1.0248 -0.3115  1.1352
   20CHL1   C20 1456   2.906   1.184   9.202 -0.0483 -0.3797  0.0667
   20CHL1   H20 1457   2.840   1.095   9.188  2.1049 -2.0060 -0.0241
   20CHL1   C21 1458   3.048   1.127   9.207  0.3783 -0.2562  0.5587
   20CHL1  H21A 1459   3.086   1.099   9.107  0.3865 -1.0554  0.7745
   20CHL1  H21B 1460   3.053   1.023   9.248  0.7287 -0.5688 -0.2703
   20CHL1  H21C 1461   3.120   1.198   9.254  1.8918 -1.8498  0.7024
   20CHL1   C22 1462   2.889   1.270   9.075 -0.7099  0.2510  0.3511
   20CHL1  H22A 1463   2.790   1.319   9.088 -0.9854  0.7523 -3.2965
   20CHL1  H22B 1464   2.966   1.350   9.061  2.5199 -2.7959  0.1061
   20CHL1   C23 1465   2.900   1.194   8.944 -0.4912  0.1095 -0.1067
   20CHL1  H23A 1466   3.002   1.152   8.937  0.5393  2.8356 -2.4760
   20CHL1  H23B 1467   2.831   1.107   8.935  0.0297 -0.1695 -1.5667
   20CHL1   C24 1468   2.882   1.277   8.817  0.0379 -0.3174 -0.1087
   20CHL1  H24A 1469   2.794   1.343   8.832 -0.5506 -1.3463  0.9873
   20CHL1  H24B 1470   2.974   1.337   8.801  0.7146 -1.1652  0.5890
   20CHL1   C25 1471   2.837   1.188   8.693 -0.0448 -0.5512 -0.2729
   20CHL1   H25 1472   2.773   1.111   8.741 -0.4890 -0.1533 -0.2158
   20CHL1   C26 1473   2.761   1.276   8.588 -0.1642 -0.2862 -0.7779
   20CHL1  H26A 1474   2.722   1.211   8.507 -1.0775 -0.0748 -0.5140
   20CHL1  H26B 1475   2.669   1.318   8.635  0.9190  0.0053  1.1488
   20CHL1  H26C 1476   2.820   1.358   8.543  1.6043 -1.7619 -1.1795
   20CHL1   C27 1477   2.946   1.115   8.615 -0.1777 -0.2612 -0.4746
   20CHL1  H27A 1478   2.995   1.180   8.540 -1.2951  0.2896 -0.7219
   20CHL1  H27B 1479   3.009   1.054   8.685  0.4013 -1.9815 -2.4291
   20CHL1  H27C 1480   2.886   1.045   8.554  0.8759 -2.3794  0.8269
   21CHL1    C3 1481   2.746   4.057  10.164 -0.9049 -0.5431 -0.2566
   21CHL1    H3 1482   2.829   4.053  10.090  1.3399  1.4143  2.0658
   21CHL1    O3 1483   2.797   4.018  10.292  0.1254  0.0013 -0.6976
   21CHL1   H3' 1484   2.721   4.026  10.349  0.6818 -0.6309  0.1404
   21CHL1    C4 1485   2.681   4.194  10.161 -0.0372 -0.4046 -0.6382
   21CHL1   H4A 1486   2.589   4.193  10.223 -0.4477  0.0457 -1.2369
   21CHL1   H4B 1487   2.740   4.282  10.196  0.8203 -0.1160 -2.7393
   21CHL1    C5 1488   2.629   4.230  10.023 -0.0853  0.0587 -0.7562
   21CHL1    C6 1489   2.664   4.333   9.953 -0.4092 -0.3920  0.2850
   21CHL1    H6 1490   2.729   4.411   9.995 -0.7540 -0.0966  0.2721
   21CHL1    C7 1491   2.622   4.363   9.817  0.3290  0.4530 -0.5766
   21CHL1   H7A 1492   2.606   4.473   9.810 -0.8811  0.2989 -0.3665
   21CHL1   H7B 1493   2.705   4.338   9.748 -0.1161 -1.2844 -0.4955
   21CHL1    C8 1494   2.491   4.292   9.777 -0.4538  0.7671 -0.2697
   21CHL1    H8 1495   2.409   4.350   9.825  0.3207  2.0127 -0.4291
   21CHL1   C14 1496   2.473   4.304   9.629  0.5914 -0.6673  0.2570
   21CHL1   H14 1497   2.565   4.260   9.585 -1.6350 -4.6343 -0.6145
   21CHL1   C15 1498   2.445   4.442   9.570  0.0523  0.0353 -0.1348
   21CHL1  H15A 1499   2.366   4.492   9.630 -0.5482 -0.3883 -0.5602
   21CHL1  H15B 1500   2.537   4.503   9.579  0.0073  0.4016 -1.9667
   21CHL1   C16 1501   2.402   4.403   9.419 -0.8273  0.3017 -0.7249
   21CHL1  H16A 1502   2.312   4.465   9.397 -0.5268  1.5936  1.4499
   21CHL1  H16B 1503   2.478   4.438   9.346  0.5769 -0.6080  0.2594
   21CHL1   C17 1504   2.383   4.256   9.414 -0.7204  0.1609 -0.0497
   21CHL1   H17 1505   2.476   4.209   9.376 -2.6278 -1.0007 -3.4520
   21CHL1   C13 1506   2.366   4.216   9.562  0.7485 -0.3470 -0.6102
   21CHL1   C18 1507   2.227   4.259   9.622  0.0381  0.0832 -0.0309
   21CHL1  H18A 1508   2.200   4.354   9.571 -1.3840 -1.3601 -2.0662
   21CHL1  H18B 1509   2.143   4.192   9.595 -2.1232  2.4250  0.6861
   21CHL1  H18C 1510   2.227   4.269   9.733  1.1942  2.5375 -0.2208
   21CHL1   C12 1511   2.394   4.070   9.599 -0.3215 -0.3517  0.4774
   21CHL1  H12A 1512   2.319   4.003   9.551 -0.4469  0.5309 -0.5847
   21CHL1  H12B 1513   2.495   4.045   9.563 -0.3167 -0.9885  0.9309
   21CHL1   C11 1514   2.401   4.045   9.747  0.0715 -0.1096 -0.0085
   21CHL1  H11A 1515   2.302   4.059   9.796  0.1466  0.7575 -0.1103
   21CHL1  H11B 1516   2.428   3.938   9.760 -1.4857 -0.3700  1.3550
   21CHL1    C9 1517   2.501   4.142   9.814  0.1263 -0.5046  0.6343
   21CHL1    H9 1518   2.596   4.115   9.763 -0.1354  0.8560 -0.6131
   21CHL1   C10 1519   2.533   4.126   9.964  0.1993  0.0556  0.7317
   21CHL1   C19 1520   2.397   4.156  10.038 -0.1480  1.0303 -0.7701
   21CHL1  H19A 1521   2.379   4.265  10.046  3.3832  1.6815 -0.8166
   21CHL1  H19B 1522   2.311   4.101   9.994  0.0001  1.0992 -1.1446
   21CHL1  H19C 1523   2.413   4.121  10.142  0.8509 -0.3856 -1.3866
   21CHL1    C1 1524   2.572   3.980   9.995  0.4798  0.4871 -0.5127
   21CHL1   H1A 1525   2.492   3.905   9.981 -0.5109  1.2638  0.8391
   21CHL1   H1B 1526   2.648   3.957   9.917  0.1522 -0.0691 -0.6633
   21CHL1    C2 1527   2.647   3.949  10.124 -0.1347  0.5507 -0.1629
   21CHL1   H2A 1528   2.702   3.853  10.110 -1.5477 -0.1011 -1.3770
   21CHL1   H2B 1529   2.575   3.946  10.209  1.3708  2.2041  1.1904
   21CHL1   C20 1530   2.281   4.192   9.317 -0.5125  0.3146  0.9937
   21CHL1   H20 1531   2.185   4.167   9.367 -0.4978 -0.1032  0.8156
   21CHL1   C21 1532   2.332   4.051   9.274  0.1867  0.6480 -0.9197
   21CHL1  H21A 1533   2.260   4.013   9.198 -1.3731  1.1165  0.2968
   21CHL1  H21B 1534   2.351   3.977   9.354 -2.3071 -0.9212 -1.7150
   21CHL1  H21C 1535   2.431   4.071   9.226  0.7762 -0.9012 -0.3778
   21CHL1   C22 1536   2.261   4.287   9.193  0.3364  0.1179 -0.4207
   21CHL1  H22A 1537   2.210   4.377   9.233 -0.2924 -0.2081 -0.4960
   21CHL1  H22B 1538   2.365   4.320   9.173  0.0577  1.3569  0.1392
   21CHL1   C23 1539   2.173   4.225   9.090  0.4212 -1.2802 -0.0342
   21CHL1  H23A 1540   2.210   4.127   9.051  0.5011 -0.7921 -1.2194
   21CHL1  H23B 1541   2.070   4.205   9.127  0.1031  1.7560  0.8299
   21CHL1   C24 1542   2.153   4.321   8.965 -0.6992  0.2427 -0.7005
   21CHL1  H24A 1543   2.095   4.407   9.004  1.2152  0.4128  1.8698
   21CHL1  H24B 1544   2.253   4.352   8.928  0.7389 -2.2015  1.0475
   21CHL1   C25 1545   2.074   4.242   8.858 -0.2187 -0.4328  0.1910
   21CHL1   H25 1546   2.018   4.161   8.909  0.0288 -0.0495  1.0721
   21CHL1   C26 1547   1.961   4.314   8.778 -0.4608  0.5308 -0.1033
   21CHL1  H26A 1548   1.915   4.252   8.699 -0.4988  1.7238 -1.0281
   21CHL1  H26B 1549   1.888   4.367   8.843 -0.4304  2.5564 -1.6985
   21CHL1  H26C 1550   2.005   4.399   8.722 -2.8607  2.2289  0.5173
   21CHL1   C27 1551   2.172   4.188   8.750 -0.1004  0.0902 -0.0781
   21CHL1  H27A 1552   2.234   4.271   8.708  2.2036 -0.1750  2.6716
   21CHL1  H27B 1553   2.239   4.108   8.786 -0.4386 -0.3971 -0.5343
   21CHL1  H27C 1554   2.113   4.139   8.670 -2.5344  0.3197  1.5192
   22CHL1    C3 1555   2.438   5.518  10.030  0.0419  0.9277 -0.1884
   22CHL1    H3 1556   2.398   5.621  10.017  0.7590  1.2395  0.0400
   22CHL1    O3 1557   2.435   5.466  10.166  0.3037 -0.2724 -0.2655
   22CHL1   H3' 1558   2.452   5.372  10.155  0.1454 -0.1146 -1.8796
   22CHL1    C4 1559   2.351   5.429   9.938  1.0315 -0.1091  0.1515
   22CHL1   H4A 1560   2.393   5.329   9.961  1.1825 -0.0423  0.1657
   22CHL1   H4B 1561   2.257   5.433   9.998  0.2397 -0.5580 -1.0369
   22CHL1    C5 1562   2.351   5.458   9.786  0.5027 -0.8431 -0.5564
   22CHL1    C6 1563   2.240   5.497   9.719 -0.0040 -0.4546 -0.0800
   22CHL1    H6 1564   2.147   5.499   9.777 -0.8352  0.5381 -1.4129
   22CHL1    C7 1565   2.244   5.516   9.566 -0.2996 -0.2578  0.1477
   22CHL1   H7A 1566   2.156   5.475   9.513 -0.5380 -1.8651  1.7372
   22CHL1   H7B 1567   2.241   5.624   9.539 -3.0088  0.3527  2.6729
   22CHL1    C8 1568   2.368   5.448   9.511 -0.5090 -0.3892  0.1143
   22CHL1    H8 1569   2.357   5.338   9.522  0.2214 -0.4220  0.6212
   22CHL1   C14 1570   2.385   5.493   9.365  0.5448 -0.5947 -0.2083
   22CHL1   H14 1571   2.414   5.599   9.382  1.3990 -0.7332 -0.7318
   22CHL1   C15 1572   2.263   5.490   9.274  0.2576 -0.3900 -0.1176
   22CHL1  H15A 1573   2.213   5.391   9.273 -0.9487  0.2162 -2.1196
   22CHL1  H15B 1574   2.188   5.567   9.301  1.2102  0.8004 -0.7767
   22CHL1   C16 1575   2.325   5.503   9.133 -0.5442  0.0068  0.1723
   22CHL1  H16A 1576   2.300   5.410   9.078 -1.7444  1.2787 -1.4915
   22CHL1  H16B 1577   2.298   5.594   9.074 -4.0997 -1.2933 -0.3507
   22CHL1   C17 1578   2.484   5.508   9.149 -0.5602 -0.1922 -0.1160
   22CHL1   H17 1579   2.512   5.615   9.160  2.5926 -0.9094 -0.6616
   22CHL1   C13 1580   2.502   5.440   9.284  0.3383  0.0975  0.1916
   22CHL1   C18 1581   2.508   5.288   9.268  0.2260  0.3789 -0.6944
   22CHL1  H18A 1582   2.606   5.256   9.226  1.1678  2.5618 -0.2370
   22CHL1  H18B 1583   2.491   5.237   9.365  2.0623 -0.5568 -0.8532
   22CHL1  H18C 1584   2.430   5.251   9.197  1.0647  0.2506 -1.5623
   22CHL1   C12 1585   2.627   5.487   9.364 -0.1723 -0.7402  0.7514
   22CHL1  H12A 1586   2.712   5.437   9.312 -1.4262 -1.5563 -0.5260
   22CHL1  H12B 1587   2.636   5.598   9.366 -0.4969 -0.6331 -1.7834
   22CHL1   C11 1588   2.627   5.444   9.506  0.2211 -0.1406 -0.4690
   22CHL1  H11A 1589   2.643   5.334   9.506  0.2294 -0.1490  0.7173
   22CHL1  H11B 1590   2.709   5.488   9.567  1.3380 -1.9797 -0.5997
   22CHL1    C9 1591   2.503   5.485   9.589  0.0374  0.1264  0.0045
   22CHL1    H9 1592   2.491   5.596   9.586 -0.2963  0.0473 -2.0659
   22CHL1   C10 1593   2.496   5.449   9.734 -0.0843  1.0091 -0.3035
   22CHL1   C19 1594   2.557   5.313   9.752 -0.5751  0.0118 -0.3305
   22CHL1  H19A 1595   2.564   5.283   9.859  2.8055  0.1879 -0.4385
   22CHL1  H19B 1596   2.488   5.240   9.707 -0.6612  0.1207 -0.3760
   22CHL1  H19C 1597   2.662   5.309   9.715  0.0801 -0.7648  1.5609
   22CHL1    C1 1598   2.583   5.547   9.823 -0.4701 -0.5198  0.5054
   22CHL1   H1A 1599   2.692   5.534   9.803 -0.8402 -0.4622 -1.6879
   22CHL1   H1B 1600   2.564   5.654   9.801  2.4649  0.1776  1.1554
   22CHL1    C2 1601   2.574   5.524   9.977  0.4732 -0.6917 -0.2144
   22CHL1   H2A 1602   2.634   5.589  10.044  2.4595 -1.7838 -0.8902
   22CHL1   H2B 1603   2.626   5.427   9.996 -0.9926 -1.9510 -2.4351
   22CHL1   C20 1604   2.562   5.449   9.034  0.2839 -0.1350 -1.2615
   22CHL1   H20 1605   2.557   5.338   9.027 -1.2985 -0.1000 -0.9781
   22CHL1   C21 1606   2.711   5.477   9.039  0.5112  0.7411  0.0100
   22CHL1  H21A 1607   2.765   5.396   9.091  1.0097 -1.7416 -4.1681
   22CHL1  H21B 1608   2.735   5.573   9.091  2.6544 -0.9539  2.2504
   22CHL1  H21C 1609   2.751   5.488   8.936 -1.2071  2.0970 -0.5454
   22CHL1   C22 1610   2.507   5.501   8.891  0.7225  0.3030 -0.0189
   22CHL1  H22A 1611   2.570   5.460   8.809  0.4596  0.6229 -0.3792
   22CHL1  H22B 1612   2.404   5.466   8.873  0.6378  0.2441  0.5761
   22CHL1   C23 1613   2.495   5.658   8.879 -0.1245  0.3643 -0.2997
   22CHL1  H23A 1614   2.424   5.696   8.955  1.2906 -0.4594  1.4692
   22CHL1  H23B 1615   2.594   5.704   8.899 -0.2056  0.1193  0.7073
   22CHL1   C24 1616   2.468   5.695   8.731  0.9416  0.7293  0.4125
   22CHL1  H24A 1617   2.390   5.626   8.691  1.5927 -0.5017  1.2566
   22CHL1  H24B 1618   2.422   5.796   8.718 -1.4722 -0.3618  0.1340
   22CHL1   C25 1619   2.586   5.685   8.627  0.9804 -0.0700 -1.2507
   22CHL1   H25 1620   2.630   5.584   8.638  0.5530  0.0767  2.8395
   22CHL1   C26 1621   2.553   5.703   8.477 -0.7970 -0.3591  0.3241
   22CHL1  H26A 1622   2.493   5.796   8.465  0.5007  0.7375  2.1003
   22CHL1  H26B 1623   2.646   5.706   8.416  0.3354  1.3730  2.0780
   22CHL1  H26C 1624   2.487   5.623   8.437 -2.7527  0.8521  1.0502
   22CHL1   C27 1625   2.709   5.774   8.661 -0.4793 -0.3333  0.7725
   22CHL1  H27A 1626   2.784   5.769   8.580  0.0559 -1.7036  1.3344
   22CHL1  H27B 1627   2.690   5.883   8.674 -1.2335 -0.3049 -0.4823
   22CHL1  H27C 1628   2.763   5.737   8.751  0.8549  0.5091  0.3239
   23CHL1    C3 1629   5.631   6.364  10.154  0.1488  0.7763  0.9316
   23CHL1    H3 1630   5.725   6.383  10.099 -0.5196 -0.0153 -0.5241
   23CHL1    O3 1631   5.658   6.364  10.292  0.4991 -0.1174 -0.4673
   23CHL1   H3' 1632   5.580   6.333  10.338 -1.2591  4.8971  0.3064
   23CHL1    C4 1633   5.514   6.465  10.138 -0.8771  0.1280 -0.4212
   23CHL1   H4A 1634   5.425   6.431  10.196 -0.2124 -0.2431  0.3968
   23CHL1   H4B 1635   5.550   6.561  10.181 -0.1071 -0.2323 -0.2504
   23CHL1    C5 1636   5.481   6.465   9.988 -0.1712 -0.1754  0.3623
   23CHL1    C6 1637   5.493   6.578   9.915 -0.4291 -0.2817 -0.4256
   23CHL1    H6 1638   5.544   6.663   9.964 -1.4198  0.2296 -0.2542
   23CHL1    C7 1639   5.449   6.589   9.776  0.0557 -0.2237  0.2018
   23CHL1   H7A 1640   5.370   6.667   9.766  0.7800  0.6649  1.2384
   23CHL1   H7B 1641   5.537   6.621   9.717 -0.6135  0.9331 -0.1873
   23CHL1    C8 1642   5.386   6.463   9.718 -0.6965  1.1326  0.6641
   23CHL1    H8 1643   5.275   6.471   9.730 -0.8533  1.1776 -0.7002
   23CHL1   C14 1644   5.412   6.460   9.566 -0.2974  0.0184  0.1883
   23CHL1   H14 1645   5.523   6.460   9.563 -0.2236 -2.5156  1.3143
   23CHL1   C15 1646   5.377   6.584   9.478  0.0373 -1.1535 -0.2498
   23CHL1  H15A 1647   5.268   6.604   9.484 -0.2993 -3.4358  2.7963
   23CHL1  H15B 1648   5.440   6.675   9.490 -1.3161 -0.1686 -0.5147
   23CHL1   C16 1649   5.393   6.531   9.335 -0.8099 -0.5306  0.5201
   23CHL1  H16A 1650   5.304   6.560   9.274 -1.0942  0.5238  1.4295
   23CHL1  H16B 1651   5.482   6.579   9.290  1.1227 -4.1678  0.2407
   23CHL1   C17 1652   5.410   6.371   9.347 -0.2670  0.4784  0.0966
   23CHL1   H17 1653   5.520   6.354   9.350 -0.4200 -0.5143  0.4354
   23CHL1   C13 1654   5.364   6.336   9.490 -0.4288  0.7099  0.0478
   23CHL1   C18 1655   5.205   6.332   9.486 -0.6225 -0.7739  0.3661
   23CHL1  H18A 1656   5.160   6.364   9.582  0.0470 -1.0221  0.7622
   23CHL1  H18B 1657   5.175   6.411   9.413  0.9066  1.5175  2.1390
   23CHL1  H18C 1658   5.173   6.228   9.466 -1.5607 -0.5941  0.9500
   23CHL1   C12 1659   5.424   6.212   9.549 -0.2837  0.9873  0.4038
   23CHL1  H12A 1660   5.371   6.121   9.513  3.3305 -1.9184  2.1179
   23CHL1  H12B 1661   5.532   6.205   9.525 -0.0556 -1.0608  1.8646
   23CHL1   C11 1662   5.397   6.210   9.699 -0.6937 -0.2559 -0.5151
   23CHL1  H11A 1663   5.291   6.186   9.722  0.0181 -2.5645  0.5548
   23CHL1  H11B 1664   5.442   6.121   9.748  0.2584  1.2351  1.4099
   23CHL1    C9 1665   5.440   6.337   9.773  0.1580  0.0403  0.0495
   23CHL1    H9 1666   5.549   6.340   9.751  0.6225 -0.0398  2.2287
   23CHL1   C10 1667   5.429   6.327   9.926  0.8333 -0.0620 -0.2700
   23CHL1   C19 1668   5.282   6.292   9.977 -0.6799  0.6324  0.6283
   23CHL1  H19A 1669   5.294   6.283  10.087 -1.3683 -0.5357  0.6099
   23CHL1  H19B 1670   5.204   6.366   9.948  1.0423  1.2395 -2.7491
   23CHL1  H19C 1671   5.266   6.189   9.939  1.2032  0.5056  0.1299
   23CHL1    C1 1672   5.535   6.218   9.974  0.0771 -0.0810  0.2797
   23CHL1   H1A 1673   5.497   6.117   9.944 -1.0698  0.1740  0.8132
   23CHL1   H1B 1674   5.623   6.232   9.909  0.6779  0.2589  1.1607
   23CHL1    C2 1675   5.580   6.219  10.122 -0.0164  0.4623 -1.0661
   23CHL1   H2A 1676   5.663   6.146  10.134 -1.3482 -0.7836  1.1119
   23CHL1   H2B 1677   5.500   6.180  10.189 -0.0104 -1.9500 -2.3749
   23CHL1   C20 1678   5.351   6.286   9.229  0.4319  0.2555  0.2107
   23CHL1   H20 1679   5.241   6.299   9.221  0.5412  0.3016 -1.1963
   23CHL1   C21 1680   5.384   6.135   9.235  0.5121  0.3300 -0.6012
   23CHL1  H21A 1681   5.341   6.074   9.153  1.4770  0.2618 -1.0553
   23CHL1  H21B 1682   5.339   6.090   9.327  0.4016  0.8822 -0.3850
   23CHL1  H21C 1683   5.494   6.125   9.228  0.2682 -3.8023 -0.1118
   23CHL1   C22 1684   5.406   6.339   9.096  0.3602 -0.6630 -0.4318
   23CHL1  H22A 1685   5.361   6.438   9.072 -1.5390 -0.9283  1.8222
   23CHL1  H22B 1686   5.516   6.350   9.102  0.2895 -0.6390  0.9178
   23CHL1   C23 1687   5.353   6.263   8.979 -0.2950 -0.0672 -0.4269
   23CHL1  H23A 1688   5.390   6.158   8.982 -0.7891 -0.2644 -1.0249
   23CHL1  H23B 1689   5.242   6.270   8.980 -0.3751 -0.5915 -3.0014
   23CHL1   C24 1690   5.390   6.323   8.843  0.0585  0.4780 -0.2171
   23CHL1  H24A 1691   5.352   6.427   8.832 -1.9135  0.1721  3.0934
   23CHL1  H24B 1692   5.501   6.326   8.854 -0.1418  0.9600  1.8030
   23CHL1   C25 1693   5.361   6.242   8.713 -0.4954  0.0446  0.1040
   23CHL1   H25 1694   5.411   6.143   8.720 -0.1397  0.1592 -0.8231
   23CHL1   C26 1695   5.214   6.221   8.693 -0.7691  0.2059 -0.5757
   23CHL1  H26A 1696   5.159   6.314   8.721 -1.2537  0.6359 -2.8687
   23CHL1  H26B 1697   5.171   6.203   8.593 -0.1107  2.8050 -1.3589
   23CHL1  H26C 1698   5.180   6.131   8.749 -0.1269 -0.0085 -0.5335
   23CHL1   C27 1699   5.409   6.315   8.584  0.3817 -0.6356  0.6423
   23CHL1  H27A 1700   5.368   6.418   8.575  0.3604 -0.7987 -1.2847
   23CHL1  H27B 1701   5.519   6.318   8.599  0.3765  1.4269  0.4019
   23CHL1  H27C 1702   5.389   6.251   8.496 -0.6800 -2.0445  1.8750
   24CHL1    C3 1703   0.145   0.662  10.101 -0.2769  0.3970 -0.7019
   24CHL1    H3 1704   0.249   0.699  10.087  1.1030 -2.0379  2.5067
   24CHL1    O3 1705   0.128   0.640  10.239  0.5750 -0.7596  0.1811
   24CHL1   H3' 1706   0.045   0.593  10.247 -0.7344  1.7525  2.1605
   24CHL1    C4 1707   0.045   0.766  10.043 -0.2835 -0.5241  0.9251
   24CHL1   H4A 1708  -0.063   0.741  10.050 -1.0016  1.7218 -1.5113
   24CHL1   H4B 1709   0.056   0.859  10.102  0.6139  0.7662 -1.2207
   24CHL1    C5 1710   0.074   0.792   9.895 -0.3521  0.4464  0.0991
   24CHL1    C6 1711   0.090   0.914   9.846  1.0299 -0.8346 -0.0753
   24CHL1    H6 1712   0.079   1.003   9.909  0.3230 -1.6751  0.9914
   24CHL1    C7 1713   0.094   0.943   9.695 -0.1382  0.4132  0.1418
   24CHL1   H7A 1714   0.034   1.034   9.673  0.4011  0.7486  0.0296
   24CHL1   H7B 1715   0.200   0.973   9.679 -0.1873 -0.0881 -1.1968
   24CHL1    C8 1716   0.054   0.822   9.598  0.1969 -0.0776  0.1221
   24CHL1    H8 1717  -0.056   0.812   9.598  0.1780  0.0721 -1.7065
   24CHL1   C14 1718   0.113   0.834   9.462 -0.0162  0.3849  0.6370
   24CHL1   H14 1719   0.223   0.820   9.463  0.0731  0.5612 -1.8357
   24CHL1   C15 1720   0.081   0.963   9.382  0.0776  0.0222  0.7398
   24CHL1  H15A 1721  -0.021   0.999   9.406 -0.5602 -2.3532  1.7918
   24CHL1  H15B 1722   0.153   1.047   9.395  0.7435 -0.1927 -1.3685
   24CHL1   C16 1723   0.098   0.912   9.233  0.3344 -0.1930  0.8306
   24CHL1  H16A 1724   0.005   0.929   9.176  0.2251 -2.2605  0.3419
   24CHL1  H16B 1725   0.179   0.967   9.181  0.7879 -0.2680  1.4392
   24CHL1   C17 1726   0.131   0.755   9.237 -0.2753  0.4047 -0.2433
   24CHL1   H17 1727   0.239   0.755   9.262 -0.8353  0.9888  2.3492
   24CHL1   C13 1728   0.069   0.714   9.367  0.9041 -0.2525 -0.2158
   24CHL1   C18 1729  -0.083   0.701   9.344  0.2939 -0.0098 -0.1572
   24CHL1  H18A 1730  -0.113   0.610   9.287  1.9894 -0.5409 -0.2166
   24CHL1  H18B 1731  -0.145   0.713   9.435  0.2104  2.7172 -0.5318
   24CHL1  H18C 1732  -0.112   0.791   9.286 -0.2206 -0.0904 -0.0293
   24CHL1   C12 1733   0.126   0.583   9.429  0.1706  0.6630  0.2175
   24CHL1  H12A 1734   0.083   0.502   9.366  1.7077  0.1364 -0.1932
   24CHL1  H12B 1735   0.236   0.565   9.438 -0.1956 -2.0528 -0.1340
   24CHL1   C11 1736   0.073   0.566   9.567 -0.3753 -0.9812 -0.2180
   24CHL1  H11A 1737  -0.038   0.569   9.566 -0.3544 -0.0241  0.2268
   24CHL1  H11B 1738   0.101   0.467   9.608  0.1460 -1.0657 -0.7593
   24CHL1    C9 1739   0.107   0.692   9.659 -0.5731 -0.2939 -0.9278
   24CHL1    H9 1740   0.218   0.702   9.655 -0.8099  2.0239 -2.6752
   24CHL1   C10 1741   0.069   0.670   9.807 -0.0422  0.4727 -0.6088
   24CHL1   C19 1742  -0.076   0.620   9.815  0.3488 -0.8411  0.2637
   24CHL1  H19A 1743  -0.085   0.523   9.760  3.1511 -0.9578 -0.0922
   24CHL1  H19B 1744  -0.095   0.594   9.922  0.1590  2.8812  1.1891
   24CHL1  H19C 1745  -0.160   0.685   9.782 -0.7611 -2.1327  0.4767
   24CHL1    C1 1746   0.165   0.565   9.872 -0.9088 -0.5266 -0.2794
   24CHL1   H1A 1747   0.152   0.467   9.822  1.2863 -1.0379  0.1083
   24CHL1   H1B 1748   0.268   0.603   9.857 -0.2781 -2.1162 -0.0061
   24CHL1    C2 1749   0.141   0.535  10.021  0.2131 -0.1563  0.0083
   24CHL1   H2A 1750   0.222   0.467  10.056 -0.0067 -1.2184 -1.5309
   24CHL1   H2B 1751   0.047   0.478  10.037 -0.1606 -0.3751 -2.7576
   24CHL1   C20 1752   0.122   0.675   9.107  0.1266  0.2868 -0.4554
   24CHL1   H20 1753   0.106   0.569   9.136  0.9464 -0.4720 -2.6887
   24CHL1   C21 1754   0.261   0.690   9.040 -0.1595 -0.5702 -0.4225
   24CHL1  H21A 1755   0.339   0.652   9.110 -0.4057 -0.6184 -0.1734
   24CHL1  H21B 1756   0.284   0.794   9.010 -0.7845 -0.3104 -0.0163
   24CHL1  H21C 1757   0.270   0.636   8.943  0.8053 -0.2375 -0.5214
   24CHL1   C22 1758   0.003   0.707   9.013 -0.1685  0.2592  0.7103
   24CHL1  H22A 1759  -0.092   0.713   9.070  0.0594 -0.1476  1.1387
   24CHL1  H22B 1760   0.022   0.800   8.955 -2.8390  0.9954  0.9320
   24CHL1   C23 1761  -0.032   0.605   8.902 -0.1867  0.3503 -0.4953
   24CHL1  H23A 1762   0.064   0.565   8.863 -0.1414 -2.8312  2.6037
   24CHL1  H23B 1763  -0.079   0.516   8.949 -1.3192  0.2249 -1.8158
   24CHL1   C24 1764  -0.111   0.661   8.781 -0.3714 -0.1195 -0.3389
   24CHL1  H24A 1765  -0.129   0.580   8.707 -0.8561 -0.1442 -0.1961
   24CHL1  H24B 1766  -0.202   0.713   8.817 -2.5576 -1.7087 -3.2735
   24CHL1   C25 1767  -0.031   0.760   8.686 -0.7080  0.4696  0.5592
   24CHL1   H25 1768   0.011   0.848   8.738  1.6928  1.0976 -2.3229
   24CHL1   C26 1769   0.089   0.688   8.609 -0.1571 -0.0020 -0.1023
   24CHL1  H26A 1770   0.134   0.760   8.537 -0.3039  0.8769  0.6814
   24CHL1  H26B 1771   0.158   0.655   8.689 -1.0207  0.7419  0.9688
   24CHL1  H26C 1772   0.045   0.598   8.559 -0.2897 -0.8983  1.5939
   24CHL1   C27 1773  -0.123   0.830   8.576  0.4344  0.2069  0.7134
   24CHL1  H27A 1774  -0.168   0.751   8.512  3.0018  0.6739 -1.8052
   24CHL1  H27B 1775  -0.207   0.879   8.630  1.2570 -0.3384  2.5286
   24CHL1  H27C 1776  -0.062   0.902   8.516  0.0451  0.5969  0.7814
   25CHL1    C3 1777   1.623   2.139  10.351 -0.1609  0.8048 -0.0979
   25CHL1    H3 1778   1.733   2.148  10.349 -0.0828  0.3795  1.5674
   25CHL1    O3 1779   1.586   2.132  10.492 -0.5351  0.0256  0.3856
   25CHL1   H3' 1780   1.498   2.093  10.493 -1.6402  2.4165  1.7036
   25CHL1    C4 1781   1.555   2.263  10.299 -0.0906  0.1546  0.3650
   25CHL1   H4A 1782   1.447   2.251  10.321 -0.0954  0.6391  0.6257
   25CHL1   H4B 1783   1.585   2.356  10.352  0.8933  0.1046 -0.0807
   25CHL1    C5 1784   1.577   2.276  10.144 -0.0336 -0.0969  0.1646
   25CHL1    C6 1785   1.644   2.383  10.094  0.3855 -0.8113  0.6684
   25CHL1    H6 1786   1.677   2.456  10.169  3.7426 -1.9477  0.3868
   25CHL1    C7 1787   1.667   2.415   9.950 -0.2966  0.4663  0.5696
   25CHL1   H7A 1788   1.635   2.519   9.930 -0.3696  0.2736 -0.3592
   25CHL1   H7B 1789   1.776   2.405   9.934 -0.5466 -1.2461 -0.2157
   25CHL1    C8 1790   1.592   2.322   9.855 -0.3635 -0.1650 -0.3411
   25CHL1    H8 1791   1.482   2.336   9.861 -0.5564 -1.9736  0.7190
   25CHL1   C14 1792   1.646   2.336   9.714 -0.1672 -0.4973 -0.2682
   25CHL1   H14 1793   1.751   2.301   9.719 -0.0612 -0.0731  0.4794
   25CHL1   C15 1794   1.645   2.472   9.643 -0.0124 -0.2166  0.5836
   25CHL1  H15A 1795   1.546   2.521   9.658 -0.0700  0.1027 -0.7791
   25CHL1  H15B 1796   1.721   2.538   9.690 -0.6976 -0.3258  1.8851
   25CHL1   C16 1797   1.674   2.443   9.499 -0.6247 -0.0445  0.2123
   25CHL1  H16A 1798   1.608   2.506   9.435  1.0694  0.6187 -0.9407
   25CHL1  H16B 1799   1.776   2.477   9.469 -0.2978  0.4920  1.9072
   25CHL1   C17 1800   1.658   2.287   9.482  0.0748 -0.0639  0.1251
   25CHL1   H17 1801   1.754   2.234   9.503 -0.3983 -1.1883 -0.4718
   25CHL1   C13 1802   1.588   2.239   9.613 -0.5776  0.1177 -0.2166
   25CHL1   C18 1803   1.432   2.254   9.600 -0.4998  0.2930 -0.0771
   25CHL1  H18A 1804   1.387   2.215   9.694 -2.1355 -1.2182 -1.4748
   25CHL1  H18B 1805   1.403   2.358   9.574  0.8508  0.0756 -2.5118
   25CHL1  H18C 1806   1.408   2.187   9.516  1.7262  1.0137 -1.3287
   25CHL1   C12 1807   1.627   2.099   9.665 -0.0652 -0.0806  0.3469
   25CHL1  H12A 1808   1.585   2.025   9.592 -1.5020  1.0546 -0.0110
   25CHL1  H12B 1809   1.737   2.087   9.658 -0.3054 -1.7961 -0.9304
   25CHL1   C11 1810   1.577   2.066   9.804 -1.0415 -0.2729  0.3506
   25CHL1  H11A 1811   1.466   2.059   9.802 -1.0304 -0.1787 -0.7274
   25CHL1  H11B 1812   1.628   1.976   9.846  0.9030  0.1254 -1.0807
   25CHL1    C9 1813   1.604   2.180   9.909 -0.1293 -1.1370 -0.1177
   25CHL1    H9 1814   1.712   2.165   9.933  0.5468  2.6567 -0.4518
   25CHL1   C10 1815   1.538   2.155  10.051 -0.3593  0.2973 -0.3993
   25CHL1   C19 1816   1.374   2.143  10.044 -0.3275  0.3995 -1.0400
   25CHL1  H19A 1817   1.338   2.052   9.993 -1.0831  0.7695 -1.1706
   25CHL1  H19B 1818   1.344   2.142  10.151  0.6713 -0.7875 -0.7611
   25CHL1  H19C 1819   1.332   2.235   9.997 -1.9971  0.5836  0.7157
   25CHL1    C1 1820   1.602   2.025  10.123  0.3021 -0.2360 -0.2977
   25CHL1   H1A 1821   1.556   1.937  10.073  0.0103  0.2232 -0.8386
   25CHL1   H1B 1822   1.709   2.031  10.093  0.1006  2.7163 -0.5130
   25CHL1    C2 1823   1.574   2.016  10.274  0.1482  0.6422  0.1074
   25CHL1   H2A 1824   1.612   1.918  10.310  0.4378  0.1218 -1.5781
   25CHL1   H2B 1825   1.464   2.008  10.284  0.2518 -1.1801 -0.1246
   25CHL1   C20 1826   1.615   2.236   9.344  0.0412 -0.0603 -0.1235
   25CHL1   H20 1827   1.577   2.133   9.361  3.1148 -0.7596  3.0139
   25CHL1   C21 1828   1.744   2.227   9.253 -0.1083 -0.4642 -0.2601
   25CHL1  H21A 1829   1.781   2.331   9.252 -1.1536 -0.0406  1.6918
   25CHL1  H21B 1830   1.710   2.203   9.150 -1.1281  0.3668 -0.1230
   25CHL1  H21C 1831   1.816   2.155   9.297  0.4241  1.3194  1.8402
   25CHL1   C22 1832   1.499   2.311   9.273  0.1974  0.1610  0.4065
   25CHL1  H22A 1833   1.424   2.337   9.351  1.0755  0.5528  1.1319
   25CHL1  H22B 1834   1.521   2.414   9.237  0.2178 -0.6808 -2.0256
   25CHL1   C23 1835   1.440   2.229   9.155 -0.3091  0.0564 -0.6062
   25CHL1  H23A 1836   1.522   2.206   9.084  1.9093 -1.1727  2.2306
   25CHL1  H23B 1837   1.393   2.136   9.193  1.2520 -0.0358  1.2101
   25CHL1   C24 1838   1.323   2.295   9.084  0.8527  0.4638  0.9477
   25CHL1  H24A 1839   1.247   2.319   9.161 -0.9052  1.9468 -1.1777
   25CHL1  H24B 1840   1.357   2.386   9.030  2.3780  0.1944  1.4256
   25CHL1   C25 1841   1.257   2.202   8.977  1.2441 -0.4108  0.1728
   25CHL1   H25 1842   1.219   2.115   9.034 -2.1149  0.7163 -0.1907
   25CHL1   C26 1843   1.133   2.261   8.908 -0.1290 -0.0370 -0.1854
   25CHL1  H26A 1844   1.092   2.185   8.837 -1.4501  1.3973 -0.9915
   25CHL1  H26B 1845   1.053   2.285   8.981 -0.2037  0.7615 -0.5285
   25CHL1  H26C 1846   1.149   2.349   8.843  1.2950  0.2471  0.5405
   25CHL1   C27 1847   1.357   2.148   8.865 -0.0328  0.5487 -0.1716
   25CHL1  H27A 1848   1.383   2.233   8.799 -0.9335 -0.3887 -1.7577
   25CHL1  H27B 1849   1.438   2.098   8.923 -0.1930  1.1763  0.6053
   25CHL1  H27C 1850   1.310   2.066   8.806 -2.0214  0.6416  1.2211
   26CHL1    C3 1851   3.015   4.900  10.129 -0.6039  0.8949 -0.2074
   26CHL1    H3 1852   3.041   5.007  10.115 -0.8221  1.4006  2.9057
   26CHL1    O3 1853   3.000   4.867  10.271  0.5226 -0.0816  0.1373
   26CHL1   H3' 1854   2.935   4.798  10.266  1.9099 -1.2665 -2.4705
   26CHL1    C4 1855   2.878   4.869  10.062 -0.1994  0.1257  0.2063
   26CHL1   H4A 1856   2.840   4.766  10.078  1.5291 -0.5241  0.1829
   26CHL1   H4B 1857   2.800   4.929  10.115 -1.0210  0.5162 -1.4110
   26CHL1    C5 1858   2.877   4.899   9.913 -0.5189 -0.9510 -0.4798
   26CHL1    C6 1859   2.793   4.998   9.871  0.0332  0.3195  0.1287
   26CHL1    H6 1860   2.720   5.045   9.939 -1.7896 -0.8823 -0.9472
   26CHL1    C7 1861   2.797   5.041   9.732  0.5057 -0.3129  0.7105
   26CHL1   H7A 1862   2.693   5.046   9.695  0.2367 -2.2041  1.1729
   26CHL1   H7B 1863   2.853   5.137   9.727  0.7219 -0.5087 -0.5961
   26CHL1    C8 1864   2.868   4.947   9.639 -0.6218 -0.0166 -0.2416
   26CHL1    H8 1865   2.801   4.861   9.621  1.0914 -1.0729 -1.8073
   26CHL1   C14 1866   2.909   5.009   9.506 -0.2619 -0.6639  0.1292
   26CHL1   H14 1867   2.989   5.083   9.528 -1.0200  0.4703 -0.8374
   26CHL1   C15 1868   2.809   5.097   9.434  0.7109  0.7835 -0.4899
   26CHL1  H15A 1869   2.709   5.051   9.439  2.6396 -3.6852 -0.8592
   26CHL1  H15B 1870   2.802   5.201   9.475  0.8478  0.4299  0.4415
   26CHL1   C16 1871   2.847   5.088   9.284 -0.4843  0.0913  0.0224
   26CHL1  H16A 1872   2.768   5.041   9.222  0.6641  1.2637 -2.4427
   26CHL1  H16B 1873   2.860   5.188   9.236 -1.3077  0.5770  0.7962
   26CHL1   C17 1874   2.974   5.000   9.279  0.3483 -0.2545  0.0786
   26CHL1   H17 1875   3.059   5.069   9.299  1.6091 -1.6415 -0.3249
   26CHL1   C13 1876   2.962   4.913   9.402 -0.3146 -0.0179  0.4781
   26CHL1   C18 1877   2.861   4.793   9.378  0.8128 -0.4933  0.0897
   26CHL1  H18A 1878   2.910   4.722   9.308  3.4162 -0.2114  1.5762
   26CHL1  H18B 1879   2.851   4.734   9.471  0.0383  1.3725  1.2099
   26CHL1  H18C 1880   2.758   4.814   9.341  0.1730 -0.9725  1.5725
   26CHL1   C12 1881   3.097   4.855   9.459  0.1710  0.2303 -1.1244
   26CHL1  H12A 1882   3.133   4.767   9.401  1.7677  0.0563  0.0980
   26CHL1  H12B 1883   3.173   4.935   9.473  0.7217 -0.2857 -1.1662
   26CHL1   C11 1884   3.080   4.799   9.604 -0.6919 -0.2208  0.0992
   26CHL1  H11A 1885   3.029   4.704   9.578  2.5014 -1.8542 -0.4888
   26CHL1  H11B 1886   3.186   4.786   9.636 -0.4647  1.7957  0.2622
   26CHL1    C9 1887   2.999   4.891   9.696 -0.2914  0.2877  0.3171
   26CHL1    H9 1888   3.059   4.984   9.703  0.1529  0.1548 -1.4766
   26CHL1   C10 1889   2.992   4.830   9.833  0.1768 -0.1226 -0.4671
   26CHL1   C19 1890   2.924   4.683   9.830  0.7589 -0.4356 -0.3473
   26CHL1  H19A 1891   2.926   4.652   9.937  1.7177  0.4248 -0.1031
   26CHL1  H19B 1892   2.821   4.677   9.789 -0.0550  0.0731  1.5554
   26CHL1  H19C 1893   2.984   4.615   9.767  1.6320 -0.7534  0.8098
   26CHL1    C1 1894   3.127   4.838   9.910 -0.1451 -0.5726 -0.1533
   26CHL1   H1A 1895   3.188   4.755   9.869  1.0066  1.8786 -3.6449
   26CHL1   H1B 1896   3.176   4.937   9.894 -0.6289 -0.5696 -1.6410
   26CHL1    C2 1897   3.115   4.807  10.068  0.1642  0.2056  0.0605
   26CHL1   H2A 1898   3.213   4.820  10.120  0.3276  0.8946 -0.4045
   26CHL1   H2B 1899   3.084   4.701  10.080 -0.0313  0.0966 -1.3064
   26CHL1   C20 1900   2.998   4.941   9.140 -0.5380  0.3235  0.9427
   26CHL1   H20 1901   2.912   4.874   9.118  1.6003 -1.8950 -1.0406
   26CHL1   C21 1902   3.133   4.867   9.136  0.2534 -0.5462 -0.2531
   26CHL1  H21A 1903   3.128   4.757   9.147  2.2982 -0.8104 -1.6094
   26CHL1  H21B 1904   3.209   4.903   9.209  1.8328 -1.0032 -1.6411
   26CHL1  H21C 1905   3.180   4.880   9.036  0.0843  2.8359  0.0652
   26CHL1   C22 1906   2.993   5.055   9.028  0.2494 -0.0499 -0.0399
   26CHL1  H22A 1907   2.896   5.106   9.042  0.5682 -0.2807  3.4664
   26CHL1  H22B 1908   3.087   5.112   9.044  1.3272 -1.4667 -1.1896
   26CHL1   C23 1909   2.985   5.013   8.879  0.3040 -0.0939 -0.1372
   26CHL1  H23A 1910   3.082   4.967   8.849 -0.5452 -1.8719 -0.2469
   26CHL1  H23B 1911   2.909   4.934   8.863  0.7186  0.1481 -3.7669
   26CHL1   C24 1912   2.940   5.125   8.787  0.1357 -0.1588 -0.2355
   26CHL1  H24A 1913   2.832   5.150   8.799  0.1019  0.7122 -2.1304
   26CHL1  H24B 1914   3.003   5.207   8.826 -0.5196  0.3668 -0.2852
   26CHL1   C25 1915   2.962   5.104   8.638  0.0637  0.3382 -0.2190
   26CHL1   H25 1916   2.913   5.190   8.588 -0.1914 -0.4998 -1.4253
   26CHL1   C26 1917   3.109   5.107   8.598  0.2669  0.3133  0.0148
   26CHL1  H26A 1918   3.164   5.021   8.640  0.9722  0.6721 -0.1609
   26CHL1  H26B 1919   3.113   5.100   8.487  1.2262 -1.7332  0.1699
   26CHL1  H26C 1920   3.154   5.206   8.623 -0.3818  0.2381  1.5182
   26CHL1   C27 1921   2.914   4.975   8.581 -0.0032  0.3248  0.4059
   26CHL1  H27A 1922   2.811   4.952   8.617  0.1493 -0.5399  0.2917
   26CHL1  H27B 1923   2.913   4.977   8.470 -1.6064 -0.2116  0.3983
   26CHL1  H27C 1924   2.979   4.887   8.599  0.6722  0.8707  0.6675
   27CHL1    C3 1925   2.292   2.192  10.492 -0.7778  0.7715 -0.0268
   27CHL1    H3 1926   2.247   2.294  10.493 -1.0912  0.7036 -2.9324
   27CHL1    O3 1927   2.311   2.154  10.628  0.1384 -0.1617 -0.2560
   27CHL1   H3' 1928   2.327   2.059  10.626  0.1300 -0.3323  4.0486
   27CHL1    C4 1929   2.190   2.098  10.428  0.0892 -0.5518  0.0198
   27CHL1   H4A 1930   2.228   1.994  10.443  2.2322  0.2760  0.3488
   27CHL1   H4B 1931   2.095   2.108  10.485  0.1307 -0.6965  0.1143
   27CHL1    C5 1932   2.170   2.119  10.279  0.0127  0.0651  0.3027
   27CHL1    C6 1933   2.043   2.148  10.229 -0.2689  0.7782 -0.4010
   27CHL1    H6 1934   1.962   2.141  10.303 -0.4151 -4.8972 -0.8329
   27CHL1    C7 1935   2.002   2.161  10.086  0.2700 -0.5230 -0.0148
   27CHL1   H7A 1936   1.915   2.100  10.054 -1.6865  2.3814 -0.4733
   27CHL1   H7B 1937   1.973   2.266  10.062 -0.9739 -0.5816  1.1970
   27CHL1    C8 1938   2.123   2.120   9.991 -0.8541  0.3068  0.0458
   27CHL1    H8 1939   2.127   2.010   9.974  0.3367  0.4180 -0.3918
   27CHL1   C14 1940   2.107   2.185   9.853 -0.5169  0.4914 -0.3182
   27CHL1   H14 1941   2.110   2.294   9.876 -4.3888  0.1493  2.2765
   27CHL1   C15 1942   1.977   2.163   9.775 -0.0949  0.0596 -0.3541
   27CHL1  H15A 1943   1.951   2.055   9.770 -0.3613  0.1198 -0.3270
   27CHL1  H15B 1944   1.897   2.216   9.832 -0.6665  0.1352 -1.2193
   27CHL1   C16 1945   1.998   2.208   9.631  0.1334  0.0829  0.4673
   27CHL1  H16A 1946   1.948   2.133   9.565 -0.5673  0.8804  0.0835
   27CHL1  H16B 1947   1.956   2.305   9.598 -1.7659 -0.3039  1.6550
   27CHL1   C17 1948   2.154   2.221   9.617  0.0125 -0.0109  0.2556
   27CHL1   H17 1949   2.168   2.331   9.627  3.0980 -0.4158  0.8730
   27CHL1   C13 1950   2.211   2.155   9.747  0.2470 -0.5055 -0.4848
   27CHL1   C18 1951   2.213   2.004   9.715 -0.1829  0.5240  1.0566
   27CHL1  H18A 1952   2.244   1.941   9.801  1.5712  0.4443  0.3814
   27CHL1  H18B 1953   2.120   1.964   9.670  1.1421  1.0036 -2.2299
   27CHL1  H18C 1954   2.295   1.984   9.643 -1.6015  0.9947 -0.7213
   27CHL1   C12 1955   2.346   2.204   9.803 -0.4330 -0.2254  0.6358
   27CHL1  H12A 1956   2.424   2.158   9.740  0.0819  1.2562  0.1700
   27CHL1  H12B 1957   2.363   2.313   9.816 -0.1963 -0.2517  0.5248
   27CHL1   C11 1958   2.379   2.149   9.946 -0.2737 -0.2292 -0.0812
   27CHL1  H11A 1959   2.405   2.042   9.938  0.7759 -0.1264  1.7800
   27CHL1  H11B 1960   2.467   2.196   9.994 -0.9506  0.3172  0.6506
   27CHL1    C9 1961   2.259   2.167  10.045  0.4202  0.3292  0.0316
   27CHL1    H9 1962   2.244   2.276  10.058  1.0613  0.6157 -1.5901
   27CHL1   C10 1963   2.295   2.118  10.192 -0.3702  0.4135 -0.3712
   27CHL1   C19 1964   2.352   1.976  10.181 -0.3308 -0.0292  0.4013
   27CHL1  H19A 1965   2.453   1.976  10.135  0.7684  1.2802  2.7338
   27CHL1  H19B 1966   2.361   1.917  10.275 -1.8744 -0.5464  0.2394
   27CHL1  H19C 1967   2.291   1.911  10.114 -0.0531 -1.9802  1.9664
   27CHL1    C1 1968   2.392   2.211  10.260 -0.1724 -0.4963  0.0070
   27CHL1   H1A 1969   2.486   2.208  10.200 -0.7850 -2.0108 -0.8853
   27CHL1   H1B 1970   2.351   2.314  10.256 -1.6591 -1.0750  0.2815
   27CHL1    C2 1971   2.419   2.187  10.409  0.2295 -0.0791  0.0763
   27CHL1   H2A 1972   2.484   2.273  10.435 -1.7445  1.2570  0.6655
   27CHL1   H2B 1973   2.477   2.093  10.423 -0.4364 -0.6385 -0.8460
   27CHL1   C20 1974   2.211   2.172   9.472 -0.0928  0.7647 -0.5866
   27CHL1   H20 1975   2.184   2.066   9.452  0.4040  0.8278 -1.6520
   27CHL1   C21 1976   2.363   2.178   9.470 -0.3386 -0.2750 -0.2885
   27CHL1  H21A 1977   2.399   2.181   9.364 -2.1022 -0.3824 -0.8978
   27CHL1  H21B 1978   2.410   2.085   9.508 -2.0762 -1.4659 -0.9876
   27CHL1  H21C 1979   2.399   2.271   9.519 -1.7929 -0.0607  0.3987
   27CHL1   C22 1980   2.140   2.245   9.357 -0.6032  0.3687 -0.0058
   27CHL1  H22A 1981   2.029   2.236   9.356 -0.5594 -0.1065 -1.9207
   27CHL1  H22B 1982   2.160   2.352   9.379  0.5565  0.3696 -1.0395
   27CHL1   C23 1983   2.188   2.224   9.213  0.2848 -0.0771 -0.5068
   27CHL1  H23A 1984   2.299   2.215   9.210  0.4190  0.2940  2.3724
   27CHL1  H23B 1985   2.135   2.130   9.189 -1.5169  0.9849 -0.7573
   27CHL1   C24 1986   2.125   2.330   9.117 -0.4174 -1.1734 -0.8446
   27CHL1  H24A 1987   2.020   2.300   9.098 -1.0317  0.5391 -0.2250
   27CHL1  H24B 1988   2.119   2.428   9.170  0.2386 -1.7937  0.3995
   27CHL1   C25 1989   2.186   2.343   8.987 -0.5488 -0.3095 -0.2096
   27CHL1   H25 1990   2.293   2.371   8.994 -0.9242  1.4896 -1.1757
   27CHL1   C26 1991   2.167   2.211   8.904 -0.1975 -0.0565 -0.3914
   27CHL1  H26A 1992   2.215   2.223   8.805  0.9271 -0.1487  0.1430
   27CHL1  H26B 1993   2.216   2.131   8.963  0.0336  0.6624  0.4095
   27CHL1  H26C 1994   2.060   2.183   8.887 -0.3906  0.6994 -0.4671
   27CHL1   C27 1995   2.128   2.460   8.911  0.3005  0.1800 -0.6077
   27CHL1  H27A 1996   2.144   2.559   8.958 -2.3949 -0.0636  0.8910
   27CHL1  H27B 1997   2.177   2.462   8.811 -1.9319 -0.4999 -1.7610
   27CHL1  H27C 1998   2.018   2.445   8.904  0.5923 -1.6979 -1.6151
   28CHL1    C3 1999   1.253   0.779  10.086 -0.4140  0.1587  0.1383
   28CHL1    H3 2000   1.249   0.668  10.087  1.6963  0.0718  0.7238
   28CHL1    O3 2001   1.254   0.829  10.222 -0.0727  0.5742  0.6801
   28CHL1   H3' 2002   1.319   0.771  10.263  0.4575 -1.2136 -2.5209
   28CHL1    C4 2003   1.383   0.824  10.013  0.3086  0.5963 -0.3343
   28CHL1   H4A 2004   1.398   0.929  10.046  2.2992  0.2276 -0.0012
   28CHL1   H4B 2005   1.468   0.766  10.055  0.9623  1.2608 -0.7166
   28CHL1    C5 2006   1.374   0.815   9.859 -0.1079 -0.8058 -0.1208
   28CHL1    C6 2007   1.465   0.742   9.794  0.1323  0.3949 -0.5532
   28CHL1    H6 2008   1.544   0.695   9.855 -0.9595  0.4210  0.8932
   28CHL1    C7 2009   1.467   0.720   9.650 -0.1349 -0.3737  1.1492
   28CHL1   H7A 2010   1.573   0.725   9.616 -0.8856 -0.0807 -1.2138
   28CHL1   H7B 2011   1.416   0.624   9.628 -0.0491 -0.1232 -0.1990
   28CHL1    C8 2012   1.392   0.830   9.569  0.5013  0.0768  0.1492
   28CHL1    H8 2013   1.446   0.928   9.572 -1.0991  0.9737  0.0885
   28CHL1   C14 2014   1.372   0.792   9.425  0.1796 -0.3455 -0.9234
   28CHL1   H14 2015   1.307   0.702   9.424 -0.0082 -0.2146 -0.6045
   28CHL1   C15 2016   1.501   0.766   9.336  0.1767 -0.2996 -0.1108
   28CHL1  H15A 2017   1.558   0.861   9.342 -2.2674  1.1779  0.3322
   28CHL1  H15B 2018   1.567   0.678   9.351 -0.8796 -0.7919  1.6669
   28CHL1   C16 2019   1.443   0.770   9.195 -0.0332  0.2240  0.9765
   28CHL1  H16A 2020   1.506   0.819   9.118 -0.4224  0.7767  1.0075
   28CHL1  H16B 2021   1.445   0.664   9.161 -0.3944  1.4551 -3.2366
   28CHL1   C17 2022   1.299   0.833   9.195 -0.4337 -0.0576 -0.0414
   28CHL1   H17 2023   1.235   0.742   9.191  0.6122 -0.7815 -0.8327
   28CHL1   C13 2024   1.289   0.897   9.337 -0.8127  0.1107 -0.8249
   28CHL1   C18 2025   1.348   1.038   9.340  0.3478 -0.6131  0.7509
   28CHL1  H18A 2026   1.345   1.072   9.446 -0.0271  3.9328 -0.6254
   28CHL1  H18B 2027   1.453   1.040   9.302  1.1235 -0.9831  2.7730
   28CHL1  H18C 2028   1.283   1.103   9.277  1.9263  0.9507  0.6846
   28CHL1   C12 2029   1.148   0.901   9.398  0.4602 -0.2482  0.1281
   28CHL1  H12A 2030   1.078   0.966   9.342 -1.3766 -1.6515  0.7409
   28CHL1  H12B 2031   1.110   0.797   9.387  0.4473 -0.2655  0.3410
   28CHL1   C11 2032   1.156   0.939   9.548 -0.4886  0.1205 -0.6223
   28CHL1  H11A 2033   1.177   1.046   9.567  2.1235 -0.4106 -0.3771
   28CHL1  H11B 2034   1.055   0.918   9.589 -0.8506  2.8071 -0.0397
   28CHL1    C9 2035   1.256   0.857   9.633  0.2204  0.0823  0.2552
   28CHL1    H9 2036   1.212   0.755   9.625  1.7281 -0.5825  0.0733
   28CHL1   C10 2037   1.265   0.897   9.792  0.2764  0.5758  0.5201
   28CHL1   C19 2038   1.302   1.048   9.803 -0.0165 -0.5173 -0.1753
   28CHL1  H19A 2039   1.368   1.077   9.718 -1.1326 -1.4178 -1.3532
   28CHL1  H19B 2040   1.214   1.115   9.788 -0.6401 -2.0092 -3.6946
   28CHL1  H19C 2041   1.353   1.083   9.896  1.7534 -0.7108 -1.0523
   28CHL1    C1 2042   1.136   0.845   9.861  0.0959  0.3123  0.2954
   28CHL1   H1A 2043   1.052   0.914   9.838  0.1207  0.4130  0.5076
   28CHL1   H1B 2044   1.118   0.741   9.828 -0.4457 -0.1131  1.8751
   28CHL1    C2 2045   1.136   0.845  10.021  0.1534 -0.3922  0.6767
   28CHL1   H2A 2046   1.046   0.786  10.050 -0.3486 -0.2639 -0.5962
   28CHL1   H2B 2047   1.122   0.953  10.043 -3.5233 -0.5646 -0.4564
   28CHL1   C20 2048   1.248   0.909   9.074  0.1329 -1.1581  0.0057
   28CHL1   H20 2049   1.285   1.013   9.088 -2.6805 -0.0857 -0.2656
   28CHL1   C21 2050   1.094   0.917   9.067 -0.5788 -0.5522 -0.1403
   28CHL1  H21A 2051   1.039   0.822   9.083  1.0130 -1.6186 -0.7935
   28CHL1  H21B 2052   1.060   0.952   8.967  1.0515 -2.1098 -1.2688
   28CHL1  H21C 2053   1.065   0.988   9.147  1.1426 -1.8847  1.7199
   28CHL1   C22 2054   1.298   0.862   8.937 -1.0360  0.1990 -0.6998
   28CHL1  H22A 2055   1.264   0.937   8.862 -1.9107 -0.4866 -0.9924
   28CHL1  H22B 2056   1.409   0.874   8.933 -1.0352  0.0622 -1.1196
   28CHL1   C23 2057   1.270   0.712   8.908  0.0316 -0.3299  0.7018
   28CHL1  H23A 2058   1.350   0.679   8.839 -1.0997  1.8418 -1.7408
   28CHL1  H23B 2059   1.269   0.646   8.997  1.4744 -0.1358  0.8771
   28CHL1   C24 2060   1.132   0.694   8.837 -0.4456  0.6603 -0.2429
   28CHL1  H24A 2061   1.044   0.740   8.888  0.3005  0.0010  1.6860
   28CHL1  H24B 2062   1.138   0.749   8.741  0.7797 -0.0704 -0.5932
   28CHL1   C25 2063   1.095   0.548   8.807 -0.3335  0.1788 -0.5713
   28CHL1   H25 2064   1.010   0.556   8.735 -0.3607  0.4742 -0.5083
   28CHL1   C26 2065   1.213   0.471   8.736 -0.1517 -0.1987  0.1167
   28CHL1  H26A 2066   1.259   0.528   8.652 -0.1312 -0.5166 -0.0870
   28CHL1  H26B 2067   1.292   0.433   8.805 -2.5454 -1.0335  2.4503
   28CHL1  H26C 2068   1.167   0.384   8.685 -1.1162 -0.2288  1.0224
   28CHL1   C27 2069   1.041   0.465   8.927 -0.4449 -0.3517 -0.9967
   28CHL1  H27A 2070   0.999   0.369   8.891 -1.0155  0.6641 -3.1380
   28CHL1  H27B 2071   1.128   0.457   8.996 -1.0523 -0.2644 -0.2079
   28CHL1  H27C 2072   0.957   0.516   8.980 -0.2816 -3.7595  2.7968
   29CHL1    C3 2073   3.101   5.466   6.761  0.4085 -0.5476 -0.0460
   29CHL1    H3 2074   3.202   5.422   6.778  0.1107 -0.9583  0.6504
   29CHL1    O3 2075   3.086   5.473   6.619  0.7003 -0.2250 -0.3153
   29CHL1   H3' 2076   3.001   5.514   6.606  0.2183 -0.9217  0.5957
   29CHL1    C4 2077   2.991   5.387   6.822 -0.1565  0.0446  1.3837
   29CHL1   H4A 2078   2.897   5.443   6.801 -0.1683  0.2197  1.8858
   29CHL1   H4B 2079   2.976   5.293   6.765  1.7276  1.2409 -1.1654
   29CHL1    C5 2080   3.016   5.377   6.972 -0.4267 -0.0425 -0.9435
   29CHL1    C6 2081   3.037   5.260   7.039  0.2310 -0.4387 -0.9085
   29CHL1    H6 2082   3.040   5.175   6.968  1.3253 -0.6740 -0.6029
   29CHL1    C7 2083   3.066   5.252   7.184 -0.4424  0.1216  0.4045
   29CHL1   H7A 2084   3.039   5.153   7.226  0.0479 -0.7104 -1.1881
   29CHL1   H7B 2085   3.177   5.250   7.192 -0.4054 -0.9298 -0.1949
   29CHL1    C8 2086   3.022   5.377   7.263  0.1820 -0.3061  0.0991
   29CHL1    H8 2087   2.911   5.379   7.268  0.0682  0.3180 -1.9968
   29CHL1   C14 2088   3.085   5.378   7.406 -0.7650 -0.9721 -0.3899
   29CHL1   H14 2089   3.194   5.377   7.383 -0.6873 -0.5366 -0.0457
   29CHL1   C15 2090   3.062   5.256   7.498 -1.0433 -0.2840 -0.6040
   29CHL1  H15A 2091   2.952   5.244   7.506 -1.2354  2.0845  0.9055
   29CHL1  H15B 2092   3.115   5.162   7.468  1.3726  0.4186  1.2981
   29CHL1   C16 2093   3.110   5.299   7.634 -0.6201 -0.5823  0.0078
   29CHL1  H16A 2094   3.035   5.269   7.711 -1.5366  0.6167 -0.3941
   29CHL1  H16B 2095   3.213   5.265   7.656  1.0099  2.1453 -3.0804
   29CHL1   C17 2096   3.129   5.459   7.627 -0.1133 -0.5623 -0.5802
   29CHL1   H17 2097   3.238   5.478   7.610 -0.3384  0.6031 -0.7606
   29CHL1   C13 2098   3.053   5.499   7.497  0.2596 -0.0050  0.9279
   29CHL1   C18 2099   2.903   5.509   7.522 -0.0890 -0.8960  0.0843
   29CHL1  H18A 2100   2.879   5.611   7.558  0.3512 -0.4797 -0.7927
   29CHL1  H18B 2101   2.849   5.485   7.428 -0.0685  1.8875 -0.6835
   29CHL1  H18C 2102   2.873   5.434   7.599  3.4771 -0.4687  2.0571
   29CHL1   C12 2103   3.095   5.620   7.413 -0.0451 -0.2921 -0.1178
   29CHL1  H12A 2104   3.057   5.703   7.477 -0.1031 -1.1816  1.0063
   29CHL1  H12B 2105   3.204   5.642   7.403 -0.2062  0.2743 -0.6717
   29CHL1   C11 2106   3.030   5.627   7.273  0.2381  0.5557 -0.5043
   29CHL1  H11A 2107   2.920   5.634   7.289  0.3023  1.0437 -0.2864
   29CHL1  H11B 2108   3.067   5.721   7.226 -1.5287 -0.0064 -3.1181
   29CHL1    C9 2109   3.067   5.499   7.194  0.7580  0.1203 -0.2907
   29CHL1    H9 2110   3.178   5.493   7.194  0.6975 -1.2575  0.6686
   29CHL1   C10 2111   3.019   5.510   7.046 -0.7606  0.7259 -0.6874
   29CHL1   C19 2112   2.870   5.564   7.035 -0.2050  0.6219  0.1900
   29CHL1  H19A 2113   2.830   5.572   6.931 -0.5021 -0.9541  0.1686
   29CHL1  H19B 2114   2.800   5.490   7.079 -0.5322  2.2358  2.4517
   29CHL1  H19C 2115   2.865   5.664   7.083 -0.0917  1.7804 -2.1565
   29CHL1    C1 2116   3.116   5.609   6.964 -0.1968 -0.5327 -0.5279
   29CHL1   H1A 2117   3.110   5.712   7.004  0.5389  0.0758 -1.9741
   29CHL1   H1B 2118   3.223   5.584   6.976 -0.0837  1.0718  2.1731
   29CHL1    C2 2119   3.093   5.612   6.814 -0.3626  0.0110 -0.7418
   29CHL1   H2A 2120   3.178   5.666   6.767  0.8169  0.2157  1.5570
   29CHL1   H2B 2121   2.998   5.667   6.796 -0.3174 -0.3789 -2.1972
   29CHL1   C20 2122   3.088   5.526   7.759 -0.3518  0.6185  0.4664
   29CHL1   H20 2123   2.980   5.505   7.775 -0.3213 -0.8071 -1.0460
   29CHL1   C21 2124   3.113   5.675   7.762  0.2801  0.0742  0.5155
   29CHL1  H21A 2125   3.104   5.724   7.861 -3.0536 -0.3291  0.4709
   29CHL1  H21B 2126   3.024   5.712   7.708 -0.3896 -1.9643  0.1699
   29CHL1  H21C 2127   3.210   5.704   7.715 -2.0062 -0.7149 -5.1028
   29CHL1   C22 2128   3.155   5.473   7.889  0.1438  0.2655  0.3644
   29CHL1  H22A 2129   3.200   5.373   7.876  1.2878  0.8109  0.0408
   29CHL1  H22B 2130   3.235   5.546   7.915 -0.8491  1.5172  0.0033
   29CHL1   C23 2131   3.046   5.471   7.995  0.1700 -0.6938 -0.2580
   29CHL1  H23A 2132   3.096   5.458   8.094 -2.0509  0.2328  1.0301
   29CHL1  H23B 2133   2.987   5.565   7.994  0.3138 -0.5224  2.7326
   29CHL1   C24 2134   2.949   5.346   7.979  0.1140  1.0300  0.7828
   29CHL1  H24A 2135   2.873   5.353   8.059  0.4192  2.4046  0.9787
   29CHL1  H24B 2136   2.893   5.347   7.884  1.3443  0.9555  0.0397
   29CHL1   C25 2137   3.013   5.206   8.004  0.0706 -0.1665 -0.0708
   29CHL1   H25 2138   3.102   5.205   7.937  0.6096 -0.0551  0.6354
   29CHL1   C26 2139   3.051   5.187   8.148  0.3156  0.3380  0.4463
   29CHL1  H26A 2140   2.964   5.172   8.215 -0.5557 -2.2463 -1.1438
   29CHL1  H26B 2141   3.119   5.099   8.158  1.3835  1.1928  0.7000
   29CHL1  H26C 2142   3.112   5.270   8.187 -1.7333  2.1247 -0.0781
   29CHL1   C27 2143   2.922   5.090   7.962  0.2280  0.2098 -0.7723
   29CHL1  H27A 2144   2.896   5.091   7.854 -1.1270  0.9298 -0.4514
   29CHL1  H27B 2145   2.983   4.998   7.973 -0.5918 -0.5536 -2.4910
   29CHL1  H27C 2146   2.831   5.079   8.025  0.0919 -0.6603 -1.1313
   30CHL1    C3 2147   0.588   4.332   7.409  0.8967  0.1170 -0.2296
   30CHL1    H3 2148   0.531   4.257   7.468 -1.4669  1.3913 -0.8418
   30CHL1    O3 2149   0.542   4.329   7.273 -0.1620  0.2556  0.1239
   30CHL1   H3' 2150   0.579   4.406   7.229  0.0552 -1.3343 -2.5656
   30CHL1    C4 2151   0.552   4.460   7.473  0.1108 -0.3550 -0.1681
   30CHL1   H4A 2152   0.604   4.549   7.431  0.6823 -1.3496 -1.5797
   30CHL1   H4B 2153   0.444   4.473   7.450 -0.0375 -0.1276  0.6402
   30CHL1    C5 2154   0.583   4.461   7.623  0.3893  0.2874 -0.7821
   30CHL1    C6 2155   0.487   4.478   7.716  0.1209 -0.5991  0.2391
   30CHL1    H6 2156   0.387   4.499   7.675  1.0389  0.6622 -1.4291
   30CHL1    C7 2157   0.520   4.472   7.863  0.3224  0.2215  1.1414
   30CHL1   H7A 2158   0.475   4.558   7.917  1.0025  0.0443  1.9971
   30CHL1   H7B 2159   0.475   4.375   7.895  0.1426  0.4795  1.6785
   30CHL1    C8 2160   0.667   4.480   7.890 -0.1888  0.7691 -0.7205
   30CHL1    H8 2161   0.697   4.587   7.886  0.4112  0.6222 -0.2695
   30CHL1   C14 2162   0.683   4.432   8.039  0.2438 -0.0498 -0.5016
   30CHL1   H14 2163   0.630   4.334   8.041  0.3987 -0.2175 -2.7675
   30CHL1   C15 2164   0.609   4.514   8.149 -0.0081 -0.2673 -0.5231
   30CHL1  H15A 2165   0.625   4.621   8.125  1.9989  0.4864  3.7042
   30CHL1  H15B 2166   0.499   4.501   8.145  0.1641 -1.7528 -0.9242
   30CHL1   C16 2167   0.681   4.468   8.279  0.6549  0.0992  0.4053
   30CHL1  H16A 2168   0.712   4.552   8.345  3.1750  0.4327 -1.1361
   30CHL1  H16B 2169   0.614   4.400   8.336 -0.0839  1.7583  1.5586
   30CHL1   C17 2170   0.808   4.376   8.234 -0.3500  0.0514  0.1674
   30CHL1   H17 2171   0.778   4.270   8.239 -0.4795  0.0900  0.2018
   30CHL1   C13 2172   0.831   4.418   8.092 -0.2539  0.2224 -0.0947
   30CHL1   C18 2173   0.906   4.558   8.075 -0.7492  0.3997  0.7945
   30CHL1  H18A 2174   0.903   4.581   7.966 -2.4926 -1.0657  0.5024
   30CHL1  H18B 2175   0.854   4.639   8.130 -0.7579  0.9045  0.0547
   30CHL1  H18C 2176   1.011   4.552   8.111 -0.1558  0.5502 -0.8783
   30CHL1   C12 2177   0.896   4.313   8.006 -0.2680  0.6071  0.0413
   30CHL1  H12A 2178   1.004   4.316   8.032 -0.4333  0.3099  0.7730
   30CHL1  H12B 2179   0.843   4.217   8.024 -2.1870  1.4472 -0.9290
   30CHL1   C11 2180   0.892   4.351   7.854  0.4247 -0.3027  0.4673
   30CHL1  H11A 2181   0.970   4.427   7.829  0.1564  0.2227  1.2226
   30CHL1  H11B 2182   0.917   4.254   7.806  0.3904 -0.0191 -0.1280
   30CHL1    C9 2183   0.748   4.383   7.803 -0.1315 -0.2017 -0.1652
   30CHL1    H9 2184   0.701   4.284   7.822  1.9930 -0.8853  1.8773
   30CHL1   C10 2185   0.730   4.417   7.654  0.4603  0.8869 -0.1204
   30CHL1   C19 2186   0.815   4.537   7.615 -0.1352 -0.0083 -0.7051
   30CHL1  H19A 2187   0.805   4.571   7.510 -2.6023  3.1426  0.4441
   30CHL1  H19B 2188   0.794   4.632   7.670 -0.8685 -0.7330  0.2925
   30CHL1  H19C 2189   0.922   4.518   7.636 -0.6847 -0.7159  1.6591
   30CHL1    C1 2190   0.777   4.296   7.567 -0.1486 -0.2779 -0.2405
   30CHL1   H1A 2191   0.887   4.284   7.582  0.2747  2.5569 -0.7040
   30CHL1   H1B 2192   0.721   4.207   7.600 -0.7130  0.3966  0.6554
   30CHL1    C2 2193   0.740   4.298   7.422  0.1021  0.8302 -0.4477
   30CHL1   H2A 2194   0.748   4.199   7.373 -0.0415  0.4251  0.3289
   30CHL1   H2B 2195   0.794   4.366   7.353 -1.6900 -0.3670 -3.0979
   30CHL1   C20 2196   0.931   4.377   8.331  0.5880 -0.0138  0.3064
   30CHL1   H20 2197   1.005   4.332   8.262  0.2838 -1.8756  1.1567
   30CHL1   C21 2198   0.903   4.272   8.438  0.2241  0.2898 -0.3244
   30CHL1  H21A 2199   0.984   4.258   8.512 -0.4145  0.1656  0.3543
   30CHL1  H21B 2200   0.885   4.170   8.396  0.9391 -1.1473  2.7297
   30CHL1  H21C 2201   0.812   4.294   8.497  0.2848  2.0925 -0.8943
   30CHL1   C22 2202   0.975   4.512   8.386 -0.3961  0.1778  0.0923
   30CHL1  H22A 2203   0.962   4.593   8.312  3.3150  1.8378  1.1624
   30CHL1  H22B 2204   0.911   4.523   8.477  0.6788 -2.7033  1.2605
   30CHL1   C23 2205   1.126   4.513   8.424 -0.1642  0.2485  0.0331
   30CHL1  H23A 2206   1.159   4.424   8.482  1.1509  0.0586 -0.9780
   30CHL1  H23B 2207   1.184   4.513   8.329 -0.8262 -1.2158 -0.3766
   30CHL1   C24 2208   1.146   4.647   8.501  0.1760  0.1132 -0.0570
   30CHL1  H24A 2209   1.101   4.731   8.444 -1.0451 -1.1235 -0.9504
   30CHL1  H24B 2210   1.096   4.646   8.600 -0.4111  0.8821 -0.3437
   30CHL1   C25 2211   1.295   4.683   8.518  0.3431  0.2728  0.1857
   30CHL1   H25 2212   1.336   4.663   8.417 -0.4769 -1.3696  0.1647
   30CHL1   C26 2213   1.307   4.836   8.551 -0.1517 -0.7549 -0.3428
   30CHL1  H26A 2214   1.243   4.866   8.636 -4.1348 -2.5603 -2.5629
   30CHL1  H26B 2215   1.411   4.864   8.578 -0.7911  0.4692  0.8473
   30CHL1  H26C 2216   1.278   4.894   8.461 -1.6167 -0.9117  0.0188
   30CHL1   C27 2217   1.371   4.599   8.622 -0.1667  0.2108 -0.3659
   30CHL1  H27A 2218   1.383   4.493   8.592 -0.8885 -0.1544  0.6032
   30CHL1  H27B 2219   1.478   4.631   8.625 -0.1936  0.2420  2.1657
   30CHL1  H27C 2220   1.332   4.613   8.725 -1.4457 -0.5369 -0.7432
   31CHL1    C3 2221   0.352   5.822   6.691  0.1112 -0.1434  0.9199
   31CHL1    H3 2222   0.358   5.932   6.695  1.4928 -0.1542 -0.3238
   31CHL1    O3 2223   0.339   5.782   6.561  0.3780 -0.2265  0.2871
   31CHL1   H3' 2224   0.410   5.828   6.515  0.4874 -2.5663 -2.0072
   31CHL1    C4 2225   0.484   5.771   6.749 -0.2564  0.4309  0.1273
   31CHL1   H4A 2226   0.487   5.661   6.735 -0.6185  0.4238  0.1032
   31CHL1   H4B 2227   0.571   5.806   6.690  0.4830  1.0169  1.5454
   31CHL1    C5 2228   0.505   5.792   6.895  0.0612  0.2413  0.4733
   31CHL1    C6 2229   0.616   5.852   6.944  0.1905  0.2052  0.2153
   31CHL1    H6 2230   0.696   5.894   6.880 -0.8655  1.8456 -0.0492
   31CHL1    C7 2231   0.643   5.852   7.090  0.1649  0.5871 -0.4247
   31CHL1   H7A 2232   0.741   5.799   7.098 -0.3422 -0.2282  0.4676
   31CHL1   H7B 2233   0.645   5.956   7.128 -2.3648  0.9600 -1.2402
   31CHL1    C8 2234   0.542   5.765   7.180  0.6132 -0.2563 -0.3821
   31CHL1    H8 2235   0.573   5.658   7.178  0.0420 -0.4604  0.8030
   31CHL1   C14 2236   0.554   5.812   7.331  1.1691  0.4239 -0.0084
   31CHL1   H14 2237   0.519   5.918   7.328 -1.5117 -0.4570 -0.5624
   31CHL1   C15 2238   0.694   5.798   7.394 -0.3980 -0.1644 -0.4345
   31CHL1  H15A 2239   0.735   5.700   7.364 -0.4869  0.0209 -1.1793
   31CHL1  H15B 2240   0.759   5.884   7.367 -1.9071  0.4117 -2.3646
   31CHL1   C16 2241   0.660   5.800   7.541  0.8483 -0.2440 -0.3599
   31CHL1  H16A 2242   0.699   5.710   7.593 -0.7411 -1.6897 -1.6006
   31CHL1  H16B 2243   0.700   5.896   7.581  2.7643 -0.7187 -1.0835
   31CHL1   C17 2244   0.508   5.793   7.556  0.5615  0.7944  1.1889
   31CHL1   H17 2245   0.473   5.898   7.548  1.0336  0.8571 -0.0953
   31CHL1   C13 2246   0.458   5.740   7.421  0.5918  0.4611  0.5412
   31CHL1   C18 2247   0.476   5.585   7.423 -0.3363  0.0512 -0.0153
   31CHL1  H18A 2248   0.487   5.535   7.325 -0.4765 -0.0146  0.0015
   31CHL1  H18B 2249   0.552   5.546   7.495 -0.5784  0.4573  0.4666
   31CHL1  H18C 2250   0.381   5.549   7.470 -0.8775  1.5509  0.0761
   31CHL1   C12 2251   0.313   5.771   7.381 -0.2285 -0.1718 -0.3959
   31CHL1  H12A 2252   0.236   5.714   7.438  0.3452 -1.4659 -0.9018
   31CHL1  H12B 2253   0.298   5.880   7.400 -2.6403 -0.5120 -0.1360
   31CHL1   C11 2254   0.292   5.726   7.235  0.5323  0.0233  0.1595
   31CHL1  H11A 2255   0.296   5.615   7.240  3.0062  0.0636 -0.0913
   31CHL1  H11B 2256   0.192   5.760   7.202  0.3809 -0.4233  0.1558
   31CHL1    C9 2257   0.397   5.789   7.132  0.2338  0.6448 -0.4096
   31CHL1    H9 2258   0.384   5.899   7.139  1.2045  0.7058  0.5351
   31CHL1   C10 2259   0.380   5.745   6.985  0.0011 -0.5339  0.6391
   31CHL1   C19 2260   0.380   5.591   6.975  0.7407  0.5339 -0.1992
   31CHL1  H19A 2261   0.357   5.552   6.873  0.0688  0.6589 -0.0979
   31CHL1  H19B 2262   0.470   5.548   7.025  2.5658  1.0791 -2.9048
   31CHL1  H19C 2263   0.295   5.556   7.037  0.7862  1.6564  0.5104
   31CHL1    C1 2264   0.253   5.807   6.922  0.1831 -0.4649 -0.2894
   31CHL1   H1A 2265   0.162   5.776   6.978  1.5630 -0.8539  1.7455
   31CHL1   H1B 2266   0.255   5.916   6.945 -0.2966 -0.3125 -0.9436
   31CHL1    C2 2267   0.233   5.786   6.775 -0.2027  0.1596 -0.0101
   31CHL1   H2A 2268   0.141   5.843   6.748 -0.5964 -1.6606 -2.7452
   31CHL1   H2B 2269   0.210   5.679   6.758  1.8575 -0.1415 -0.9681
   31CHL1   C20 2270   0.464   5.724   7.683  1.0429  0.0676 -0.2136
   31CHL1   H20 2271   0.490   5.616   7.674  0.4409 -0.0704 -0.3074
   31CHL1   C21 2272   0.307   5.714   7.694 -0.1440  0.4510  0.3321
   31CHL1  H21A 2273   0.276   5.820   7.682 -0.6234  0.5022  1.8764
   31CHL1  H21B 2274   0.285   5.676   7.796 -0.1545 -2.0032 -0.5466
   31CHL1  H21C 2275   0.270   5.637   7.623 -1.4975  0.2285  1.2482
   31CHL1   C22 2276   0.540   5.774   7.812 -0.7716  0.2334 -0.1244
   31CHL1  H22A 2277   0.493   5.719   7.896  1.3417  0.4135  1.2210
   31CHL1  H22B 2278   0.646   5.744   7.800 -0.8555 -0.1548  0.1118
   31CHL1   C23 2279   0.529   5.925   7.832  0.5567  0.8235  0.2549
   31CHL1  H23A 2280   0.595   5.969   7.754  0.9980 -0.6912 -0.2355
   31CHL1  H23B 2281   0.427   5.967   7.821  1.2544  1.7545 -3.5598
   31CHL1   C24 2282   0.578   5.981   7.968 -0.4040  0.7441  0.0634
   31CHL1  H24A 2283   0.580   6.092   7.971 -1.8003  0.7621  0.8974
   31CHL1  H24B 2284   0.512   5.938   8.046  0.2805 -0.6645 -0.1268
   31CHL1   C25 2285   0.717   5.925   8.018 -0.2447 -0.0695  0.1133
   31CHL1   H25 2286   0.720   5.814   8.020 -0.9282 -0.0733  3.1028
   31CHL1   C26 2287   0.832   5.958   7.920 -0.1274 -0.1775  0.1335
   31CHL1  H26A 2288   0.922   5.919   7.971 -1.5073 -0.3713  2.5152
   31CHL1  H26B 2289   0.823   5.887   7.835 -1.5882  1.2473 -0.9388
   31CHL1  H26C 2290   0.830   6.063   7.882  0.9296 -0.0406  0.4528
   31CHL1   C27 2291   0.746   5.961   8.161 -0.0170  0.1541  0.1139
   31CHL1  H27A 2292   0.827   5.895   8.198  1.0515 -0.1986 -2.7649
   31CHL1  H27B 2293   0.657   5.928   8.219  1.2877  0.2809  2.2229
   31CHL1  H27C 2294   0.771   6.069   8.162  2.6634 -0.4113 -0.8714
   32CHL1    C3 2295   1.311   4.541   6.868 -0.2822 -0.1051 -0.2065
   32CHL1    H3 2296   1.418   4.547   6.899 -0.7336 -1.6645  1.7711
   32CHL1    O3 2297   1.291   4.546   6.726 -0.4677 -0.0688 -0.4983
   32CHL1   H3' 2298   1.326   4.464   6.689  0.7121 -0.2123  0.8534
   32CHL1    C4 2299   1.273   4.395   6.917 -0.1083  0.2965 -0.4387
   32CHL1   H4A 2300   1.165   4.382   6.893 -0.5039  0.2679  1.2955
   32CHL1   H4B 2301   1.330   4.324   6.854  1.5629  0.7920  0.4974
   32CHL1    C5 2302   1.303   4.376   7.063  0.3716  0.5018  0.0889
   32CHL1    C6 2303   1.391   4.281   7.108 -0.0107 -0.1662 -0.1882
   32CHL1    H6 2304   1.434   4.211   7.034  0.5519  2.0278 -1.9795
   32CHL1    C7 2305   1.412   4.260   7.249 -0.5632 -0.2350  0.3687
   32CHL1   H7A 2306   1.402   4.151   7.272 -2.2009 -0.5691 -1.7674
   32CHL1   H7B 2307   1.519   4.284   7.268 -0.5490 -0.2248  0.2738
   32CHL1    C8 2308   1.329   4.336   7.348  0.2867  0.0254 -0.2089
   32CHL1    H8 2309   1.233   4.282   7.360  1.6463 -1.9578  2.3666
   32CHL1   C14 2310   1.403   4.342   7.485 -0.2232  0.0249 -0.3570
   32CHL1   H14 2311   1.490   4.409   7.468 -0.2959  0.3860  0.6606
   32CHL1   C15 2312   1.463   4.211   7.540  0.1778  0.4939 -0.7344
   32CHL1  H15A 2313   1.416   4.117   7.503  2.1257 -0.5866 -0.5408
   32CHL1  H15B 2314   1.572   4.213   7.518  0.4348  1.6031  0.5780
   32CHL1   C16 2315   1.449   4.213   7.693  0.0460  0.0568  0.1749
   32CHL1  H16A 2316   1.370   4.143   7.727 -1.1056  1.3126  0.1545
   32CHL1  H16B 2317   1.542   4.182   7.744  0.2853  0.4169 -0.0368
   32CHL1   C17 2318   1.409   4.357   7.730  0.3137 -0.1212  0.2955
   32CHL1   H17 2319   1.501   4.419   7.734 -0.0514  0.3489  1.9275
   32CHL1   C13 2320   1.318   4.402   7.603  0.0706  0.0056 -1.1437
   32CHL1   C18 2321   1.184   4.318   7.613  0.3026  0.2073 -0.1270
   32CHL1  H18A 2322   1.125   4.344   7.703 -0.3191 -1.4725 -0.0369
   32CHL1  H18B 2323   1.122   4.330   7.522  0.8376 -1.0571 -0.6838
   32CHL1  H18C 2324   1.216   4.212   7.602 -1.4322 -0.3102 -0.3138
   32CHL1   C12 2325   1.302   4.556   7.568 -0.6854 -0.6990 -1.0899
   32CHL1  H12A 2326   1.244   4.618   7.640  1.4043 -1.6537  1.5037
   32CHL1  H12B 2327   1.403   4.600   7.558 -0.7793 -0.4524 -0.9733
   32CHL1   C11 2328   1.233   4.563   7.421 -0.1040 -0.5283  0.1592
   32CHL1  H11A 2329   1.131   4.521   7.433 -1.2046  2.0472  0.0558
   32CHL1  H11B 2330   1.231   4.670   7.392 -1.9617 -1.0475 -1.8054
   32CHL1    C9 2331   1.301   4.479   7.302  0.6905 -0.1287 -0.6704
   32CHL1    H9 2332   1.394   4.539   7.297 -0.4097  1.9067  2.2985
   32CHL1   C10 2333   1.239   4.486   7.158  0.1974 -0.0583 -0.6733
   32CHL1   C19 2334   1.088   4.468   7.165  0.0904  0.3457  0.6163
   32CHL1  H19A 2335   1.051   4.553   7.225  2.2923  1.0642  1.0049
   32CHL1  H19B 2336   1.039   4.485   7.067  0.7134 -0.2823  0.1912
   32CHL1  H19C 2337   1.057   4.368   7.203 -0.3655 -0.3668 -1.5475
   32CHL1    C1 2338   1.265   4.631   7.098  0.0255  0.1917 -0.2099
   32CHL1   H1A 2339   1.208   4.705   7.158  0.5437 -1.1211  1.9310
   32CHL1   H1B 2340   1.372   4.652   7.121  0.2108  0.1312 -0.9820
   32CHL1    C2 2341   1.230   4.643   6.944 -0.5308 -0.4022  0.0805
   32CHL1   H2A 2342   1.251   4.742   6.897  1.5963 -0.8955 -0.0697
   32CHL1   H2B 2343   1.120   4.628   6.933 -0.9569  0.7063  2.5037
   32CHL1   C20 2344   1.334   4.360   7.859  0.2578 -0.0276  0.3610
   32CHL1   H20 2345   1.247   4.290   7.854  0.2500  0.0994 -2.0102
   32CHL1   C21 2346   1.280   4.496   7.900 -0.6195  0.1150  0.5249
   32CHL1  H21A 2347   1.373   4.544   7.937  0.6170 -2.4631  0.8829
   32CHL1  H21B 2348   1.188   4.491   7.961 -1.3929 -0.0860 -0.6331
   32CHL1  H21C 2349   1.249   4.548   7.807 -1.1544 -2.0035 -0.5107
   32CHL1   C22 2350   1.426   4.308   7.976  0.7882 -0.1893  0.3865
   32CHL1  H22A 2351   1.445   4.202   7.950 -1.5910  0.2150 -3.2730
   32CHL1  H22B 2352   1.518   4.371   7.971 -0.7253  2.0385 -0.0608
   32CHL1   C23 2353   1.357   4.297   8.115  0.4932 -0.1228 -0.8403
   32CHL1  H23A 2354   1.337   4.401   8.148  1.3829 -0.0706 -0.4262
   32CHL1  H23B 2355   1.263   4.238   8.113  1.5457 -1.7926 -2.1659
   32CHL1   C24 2356   1.445   4.231   8.221 -0.0873  0.2985  0.3635
   32CHL1  H24A 2357   1.462   4.124   8.196 -1.5436  0.6213 -2.1784
   32CHL1  H24B 2358   1.544   4.279   8.207 -0.5691  0.8606 -1.1937
   32CHL1   C25 2359   1.403   4.248   8.364  0.3236  0.2969 -0.6005
   32CHL1   H25 2360   1.378   4.355   8.381 -1.0281 -0.0898 -0.0725
   32CHL1   C26 2361   1.284   4.161   8.413 -0.0583 -0.4899  0.1842
   32CHL1  H26A 2362   1.192   4.190   8.358  0.4032 -0.5830 -0.6421
   32CHL1  H26B 2363   1.304   4.052   8.397 -2.8227 -0.7617 -1.9375
   32CHL1  H26C 2364   1.263   4.168   8.522  3.2008  0.6386  0.7673
   32CHL1   C27 2365   1.519   4.218   8.465  1.0721 -1.7004  0.4276
   32CHL1  H27A 2366   1.572   4.124   8.437  1.3680 -0.9056 -1.8080
   32CHL1  H27B 2367   1.604   4.290   8.462 -0.6104  0.2702 -1.4024
   32CHL1  H27C 2368   1.476   4.199   8.565 -0.5227 -3.6009 -0.5879
   33CHL1    C3 2369   2.368   4.554   6.745 -0.6101 -0.7500  0.5429
   33CHL1    H3 2370   2.423   4.650   6.759 -1.7433  0.3625 -2.1382
   33CHL1    O3 2371   2.353   4.565   6.605 -0.2456  0.6972 -0.0535
   33CHL1   H3' 2372   2.306   4.486   6.579 -0.3435  0.8766 -0.4189
   33CHL1    C4 2373   2.458   4.430   6.776  0.4858 -0.0311  0.4096
   33CHL1   H4A 2374   2.417   4.342   6.721  4.3216 -1.8907  0.3668
   33CHL1   H4B 2375   2.556   4.466   6.740  0.6370  1.7686  2.4978
   33CHL1    C5 2376   2.457   4.407   6.925 -0.3916  0.4711  0.1909
   33CHL1    C6 2377   2.573   4.387   6.992  0.2883  0.0074 -0.2754
   33CHL1    H6 2378   2.672   4.401   6.946 -0.6302  1.0870 -1.9506
   33CHL1    C7 2379   2.586   4.357   7.135  0.1149 -0.0688 -0.5191
   33CHL1   H7A 2380   2.656   4.274   7.158 -1.2455 -1.4784 -1.3383
   33CHL1   H7B 2381   2.619   4.454   7.179  0.3447 -0.0767 -0.6744
   33CHL1    C8 2382   2.454   4.317   7.208 -0.4431  0.3045  0.5401
   33CHL1    H8 2383   2.433   4.212   7.175  0.1440  0.3925 -0.1513
   33CHL1   C14 2384   2.465   4.331   7.359  0.4912 -0.0913  0.1655
   33CHL1   H14 2385   2.474   4.440   7.379 -1.4439 -0.2747  2.2939
   33CHL1   C15 2386   2.582   4.260   7.421 -0.3082 -0.6804 -0.4200
   33CHL1  H15A 2387   2.584   4.151   7.398  3.0858 -0.6598 -0.4542
   33CHL1  H15B 2388   2.680   4.304   7.393 -1.7879  2.8934 -0.1424
   33CHL1   C16 2389   2.548   4.284   7.573  0.7224  0.2767  0.4123
   33CHL1  H16A 2390   2.563   4.194   7.638  1.2947 -1.6685 -2.3277
   33CHL1  H16B 2391   2.602   4.371   7.617  3.5282 -0.8126 -0.7176
   33CHL1   C17 2392   2.395   4.313   7.583 -0.2267  0.0890  0.7368
   33CHL1   H17 2393   2.385   4.422   7.603  1.6344  0.4078  0.1049
   33CHL1   C13 2394   2.341   4.293   7.441 -0.3885  0.0479 -0.1370
   33CHL1   C18 2395   2.302   4.140   7.425 -0.1806  0.6140 -0.1423
   33CHL1  H18A 2396   2.375   4.082   7.485 -1.0563  1.4358  1.7330
   33CHL1  H18B 2397   2.199   4.122   7.462 -1.0643 -1.7393 -3.4432
   33CHL1  H18C 2398   2.306   4.111   7.317  0.6752  1.2676 -0.2911
   33CHL1   C12 2399   2.225   4.386   7.392  0.1924  0.1837 -0.1571
   33CHL1  H12A 2400   2.133   4.358   7.447 -0.2158  2.2537  0.2565
   33CHL1  H12B 2401   2.252   4.491   7.414  0.4544 -0.0411  0.6258
   33CHL1   C11 2402   2.200   4.372   7.241  0.0499 -0.4553  0.2557
   33CHL1  H11A 2403   2.155   4.271   7.238  0.0651 -0.4301 -1.0007
   33CHL1  H11B 2404   2.126   4.450   7.214  0.1180  0.7890  3.4252
   33CHL1    C9 2405   2.330   4.402   7.161 -0.2595  0.1464 -0.6418
   33CHL1    H9 2406   2.356   4.505   7.192 -0.6380  0.5192 -1.5439
   33CHL1   C10 2407   2.322   4.406   7.004 -0.4947 -0.0202 -0.4464
   33CHL1   C19 2408   2.250   4.270   6.969  0.5545  0.0702  0.1578
   33CHL1  H19A 2409   2.147   4.290   7.005  1.0015 -0.5193  1.8428
   33CHL1  H19B 2410   2.248   4.259   6.859  0.1787  0.3010  0.1418
   33CHL1  H19C 2411   2.300   4.178   7.009 -0.6458 -0.4565  0.4558
   33CHL1    C1 2412   2.238   4.531   6.965  0.6575 -0.7319  0.7831
   33CHL1   H1A 2413   2.134   4.512   6.999 -0.2487  0.5168 -1.1572
   33CHL1   H1B 2414   2.288   4.622   7.005 -0.6901  0.1958  0.3898
   33CHL1    C2 2415   2.232   4.555   6.812  0.7257  0.3552 -0.0499
   33CHL1   H2A 2416   2.181   4.651   6.787  0.9670  0.4810 -0.0577
   33CHL1   H2B 2417   2.177   4.469   6.767  0.7567  0.4717 -0.3147
   33CHL1   C20 2418   2.323   4.253   7.706 -0.7455  0.4662 -0.5873
   33CHL1   H20 2419   2.335   4.143   7.696 -0.0476  0.5306 -0.4648
   33CHL1   C21 2420   2.170   4.280   7.722 -0.2330  0.4258  0.3879
   33CHL1  H21A 2421   2.141   4.215   7.807 -0.6362  0.3771  0.2164
   33CHL1  H21B 2422   2.116   4.241   7.633 -0.4100  1.4992  0.0107
   33CHL1  H21C 2423   2.145   4.388   7.733 -0.6487  0.3436  0.2528
   33CHL1   C22 2424   2.391   4.302   7.838 -0.0228  0.8438  0.2053
   33CHL1  H22A 2425   2.501   4.302   7.825  0.0886  3.0756  1.0261
   33CHL1  H22B 2426   2.368   4.409   7.854 -1.2600  0.5531  0.4326
   33CHL1   C23 2427   2.370   4.211   7.960  0.0657 -0.0477  0.1222
   33CHL1  H23A 2428   2.262   4.211   7.984  0.2280 -1.9794  0.9826
   33CHL1  H23B 2429   2.401   4.108   7.933  0.4232  0.3753 -1.1005
   33CHL1   C24 2430   2.459   4.253   8.087 -0.2768 -0.0295  0.3948
   33CHL1  H24A 2431   2.565   4.231   8.063 -0.5921  0.9512 -2.0050
   33CHL1  H24B 2432   2.456   4.362   8.108 -0.1567  0.1197 -0.3527
   33CHL1   C25 2433   2.428   4.170   8.216 -0.1555 -0.1695 -0.4787
   33CHL1   H25 2434   2.419   4.061   8.197  2.0650 -0.4540 -0.0908
   33CHL1   C26 2435   2.553   4.182   8.315  0.4593 -1.0964 -0.5448
   33CHL1  H26A 2436   2.645   4.150   8.262  3.0716  0.4573  2.8938
   33CHL1  H26B 2437   2.567   4.290   8.336  0.6746 -0.9631 -1.3564
   33CHL1  H26C 2438   2.533   4.128   8.410  2.7667 -0.7959  0.1344
   33CHL1   C27 2439   2.304   4.219   8.295 -0.3960  0.3106 -0.0748
   33CHL1  H27A 2440   2.301   4.172   8.395  1.5530  1.8442  0.7465
   33CHL1  H27B 2441   2.319   4.328   8.312  0.7258 -0.0542  1.4007
   33CHL1  H27C 2442   2.217   4.204   8.228  0.9250 -1.8288 -1.3858
   34CHL1    C3 2443   3.094   3.030   7.177  0.2775  0.4804 -0.1694
   34CHL1    H3 2444   3.193   2.984   7.198 -0.0713 -0.5448 -0.7526
   34CHL1    O3 2445   3.094   3.041   7.034  0.1147 -0.4940 -0.4717
   34CHL1   H3' 2446   3.125   2.960   6.995  0.7381 -0.1745 -0.6485
   34CHL1    C4 2447   2.975   2.953   7.234 -0.8255 -0.1459  0.3352
   34CHL1   H4A 2448   2.899   3.029   7.206  1.9118  1.9265 -1.7727
   34CHL1   H4B 2449   2.974   2.854   7.184  0.0469 -0.3808  0.7625
   34CHL1    C5 2450   2.979   2.937   7.383  0.7287 -0.6176 -0.2345
   34CHL1    C6 2451   2.959   2.822   7.446 -0.1095  0.5458  0.1468
   34CHL1    H6 2452   2.937   2.738   7.379  1.5110  0.2762 -0.0662
   34CHL1    C7 2453   2.962   2.800   7.598 -0.8433  0.3157 -0.6179
   34CHL1   H7A 2454   2.877   2.739   7.635  0.7546 -0.7841  1.3499
   34CHL1   H7B 2455   3.056   2.746   7.626 -1.1222  0.4142  0.5458
   34CHL1    C8 2456   2.944   2.933   7.672  0.7018 -0.7759  0.1497
   34CHL1    H8 2457   2.837   2.960   7.663  1.0137  0.2750 -0.4867
   34CHL1   C14 2458   2.982   2.910   7.821 -0.9149 -0.0391 -0.7655
   34CHL1   H14 2459   3.090   2.883   7.818 -0.4767  1.6731 -1.0466
   34CHL1   C15 2460   2.907   2.793   7.895  0.2444 -0.3190 -0.0679
   34CHL1  H15A 2461   2.799   2.805   7.871  0.3064 -0.2021 -0.2890
   34CHL1  H15B 2462   2.949   2.698   7.854  0.6963 -0.3563  0.4713
   34CHL1   C16 2463   2.941   2.827   8.033  0.7864  0.1084  0.0907
   34CHL1  H16A 2464   2.849   2.826   8.094  0.8948  0.6369  0.2716
   34CHL1  H16B 2465   3.010   2.756   8.082  0.0452 -0.1845  0.7108
   34CHL1   C17 2466   3.012   2.964   8.040 -0.0367 -0.2249 -0.0184
   34CHL1   H17 2467   3.122   2.950   8.040 -0.2150 -1.7315 -1.2188
   34CHL1   C13 2468   2.973   3.039   7.905 -0.5800  0.7673  0.8369
   34CHL1   C18 2469   2.824   3.081   7.922  0.8924  0.5035 -0.0393
   34CHL1  H18A 2470   2.830   3.167   7.992 -0.4308  0.6671 -0.1094
   34CHL1  H18B 2471   2.766   3.111   7.832 -1.4744 -3.0190  0.2273
   34CHL1  H18C 2472   2.769   3.003   7.979  2.7665 -0.2841  0.7201
   34CHL1   C12 2473   3.068   3.149   7.855  0.2472  0.7644  0.5126
   34CHL1  H12A 2474   3.053   3.240   7.917 -0.4749  0.4858  0.7576
   34CHL1  H12B 2475   3.175   3.119   7.864  0.7780  2.5446  0.3117
   34CHL1   C11 2476   3.039   3.172   7.705  0.4983 -0.0907  0.1014
   34CHL1  H11A 2477   2.935   3.209   7.710  0.7578  0.4248  1.9691
   34CHL1  H11B 2478   3.102   3.245   7.649  0.0661 -0.4069 -0.8095
   34CHL1    C9 2479   3.042   3.043   7.612 -0.2125 -0.2338 -0.0062
   34CHL1    H9 2480   3.143   2.997   7.620  0.0194  0.6985  2.8123
   34CHL1   C10 2481   3.009   3.072   7.464 -0.4881  0.1328 -0.0666
   34CHL1   C19 2482   2.886   3.162   7.461  0.2668  0.1000 -0.3328
   34CHL1  H19A 2483   2.926   3.265   7.474  0.1895  0.4403 -2.7048
   34CHL1  H19B 2484   2.834   3.171   7.364  0.6717  2.5025 -0.3563
   34CHL1  H19C 2485   2.810   3.127   7.535  1.5371  1.1937  1.5516
   34CHL1    C1 2486   3.124   3.155   7.394  0.2076  0.2890 -0.3190
   34CHL1   H1A 2487   3.127   3.253   7.445  2.1418 -0.8423  1.8138
   34CHL1   H1B 2488   3.217   3.101   7.421  0.6946  0.2500 -1.9846
   34CHL1    C2 2489   3.115   3.165   7.239  0.5842  0.1059  0.6308
   34CHL1   H2A 2490   3.205   3.214   7.195 -0.6470  0.2163 -1.8652
   34CHL1   H2B 2491   3.030   3.225   7.200  1.2847 -0.0371 -1.1565
   34CHL1   C20 2492   2.993   3.034   8.181 -0.2040  0.7222  0.6867
   34CHL1   H20 2493   2.883   3.044   8.194 -0.8618 -2.2951 -2.0332
   34CHL1   C21 2494   3.058   3.171   8.178  0.2054  0.6336 -0.0666
   34CHL1  H21A 2495   3.008   3.245   8.111 -0.1488 -1.0223 -1.7014
   34CHL1  H21B 2496   3.166   3.170   8.156  0.0614  1.1674 -0.8139
   34CHL1  H21C 2497   3.049   3.225   8.274  2.4525  0.2280  0.3908
   34CHL1   C22 2498   3.033   2.946   8.299  0.0860 -0.1285  0.0349
   34CHL1  H22A 2499   2.961   2.862   8.307 -1.5473  1.0844 -1.5015
   34CHL1  H22B 2500   3.137   2.909   8.284  0.2832 -0.1682  1.4463
   34CHL1   C23 2501   3.032   3.014   8.432  0.6506  0.0710 -0.6230
   34CHL1  H23A 2502   3.099   3.102   8.438 -0.0632  0.7963 -2.6956
   34CHL1  H23B 2503   2.938   3.065   8.462  1.2221  1.4268 -1.1317
   34CHL1   C24 2504   3.068   2.908   8.542  0.2344  0.2351  1.0040
   34CHL1  H24A 2505   3.013   2.815   8.519 -1.7929  2.0717 -1.9134
   34CHL1  H24B 2506   3.174   2.876   8.551  0.5449  1.0025  0.2292
   34CHL1   C25 2507   3.035   2.950   8.687 -0.1566  0.0294  0.2574
   34CHL1   H25 2508   2.927   2.977   8.696 -0.3238 -0.2967 -0.6714
   34CHL1   C26 2509   3.075   2.842   8.789 -0.3234 -0.5541  0.0059
   34CHL1  H26A 2510   3.033   2.860   8.890  0.8822  0.1742  0.3937
   34CHL1  H26B 2511   3.031   2.745   8.759  2.7066 -1.2157 -2.5712
   34CHL1  H26C 2512   3.185   2.832   8.800 -0.3897 -1.1411  0.1323
   34CHL1   C27 2513   3.121   3.082   8.717 -0.0730 -0.2875 -0.0050
   34CHL1  H27A 2514   3.116   3.101   8.827  1.8808 -0.5933  0.1520
   34CHL1  H27B 2515   3.222   3.047   8.689 -0.4165 -0.8328 -0.5859
   34CHL1  H27C 2516   3.089   3.167   8.653  0.1451  0.1147  0.4182
   35CHL1    C3 2517   6.494   3.923   7.245  0.2872 -1.1967  0.4014
   35CHL1    H3 2518   6.400   3.967   7.285  0.1157 -0.8005 -0.4183
   35CHL1    O3 2519   6.518   3.987   7.125  0.3058 -0.3564 -0.4538
   35CHL1   H3' 2520   6.589   3.937   7.086  1.2338  0.7206 -0.1841
   35CHL1    C4 2521   6.605   3.953   7.358 -0.1167 -0.6102  0.2355
   35CHL1   H4A 2522   6.701   3.911   7.323 -0.3844 -2.4059  1.5913
   35CHL1   H4B 2523   6.607   4.064   7.361 -0.9272 -0.5671 -0.6215
   35CHL1    C5 2524   6.547   3.899   7.485  0.7020  0.2672  0.3862
   35CHL1    C6 2525   6.541   3.968   7.596  0.0313  0.3086  0.6275
   35CHL1    H6 2526   6.579   4.071   7.597  0.5765  0.1498 -1.3527
   35CHL1    C7 2527   6.514   3.896   7.728  0.2556 -0.5886  0.1695
   35CHL1   H7A 2528   6.584   3.935   7.805 -0.4995 -0.3436  0.7425
   35CHL1   H7B 2529   6.419   3.934   7.772 -0.4028 -2.9231  0.8090
   35CHL1    C8 2530   6.512   3.744   7.732  0.2164  0.2350  0.9665
   35CHL1    H8 2531   6.619   3.714   7.737  0.3380  0.3990 -0.4583
   35CHL1   C14 2532   6.435   3.687   7.850  1.2690  0.2464  0.3414
   35CHL1   H14 2533   6.331   3.718   7.824  1.4291 -0.2159 -0.8749
   35CHL1   C15 2534   6.462   3.747   7.986  0.4663  0.7322 -0.0529
   35CHL1  H15A 2535   6.571   3.740   8.007  0.3720  0.8403  0.4836
   35CHL1  H15B 2536   6.439   3.855   7.982  0.5288  0.6640 -3.1451
   35CHL1   C16 2537   6.389   3.656   8.084 -0.0576 -0.2007 -0.4666
   35CHL1  H16A 2538   6.461   3.632   8.165 -0.2246 -1.0936 -0.5810
   35CHL1  H16B 2539   6.307   3.715   8.129 -0.2997 -0.0843 -1.0506
   35CHL1   C17 2540   6.342   3.531   8.001  0.2495  0.2299 -0.0421
   35CHL1   H17 2541   6.239   3.559   7.973 -0.2580 -1.0366  0.4986
   35CHL1   C13 2542   6.420   3.533   7.861  0.5124 -1.0223  0.5082
   35CHL1   C18 2543   6.557   3.462   7.877 -0.6339  0.5752  0.1005
   35CHL1  H18A 2544   6.543   3.354   7.898  3.2630  0.1284  0.6752
   35CHL1  H18B 2545   6.618   3.477   7.786  0.7439 -0.7758  0.7809
   35CHL1  H18C 2546   6.608   3.512   7.962  2.2524 -1.1456 -0.5354
   35CHL1   C12 2547   6.351   3.479   7.738 -0.4894 -0.1000  0.3511
   35CHL1  H12A 2548   6.351   3.368   7.739  0.9166 -0.1297 -1.1094
   35CHL1  H12B 2549   6.246   3.515   7.728 -0.9047 -0.2120  3.6946
   35CHL1   C11 2550   6.429   3.528   7.604 -0.0228  0.0224  0.3383
   35CHL1  H11A 2551   6.520   3.466   7.594  0.8177  1.4117 -0.9218
   35CHL1  H11B 2552   6.359   3.497   7.524 -0.1035 -0.7267  0.6972
   35CHL1    C9 2553   6.449   3.682   7.601  0.8036 -0.6940  0.0060
   35CHL1    H9 2554   6.347   3.725   7.592 -0.0226 -1.9349  2.6857
   35CHL1   C10 2555   6.513   3.742   7.473  0.1889  0.1032 -0.1243
   35CHL1   C19 2556   6.650   3.668   7.454 -0.0959  1.0573  0.1555
   35CHL1  H19A 2557   6.697   3.696   7.357 -0.2369 -1.5855 -0.7107
   35CHL1  H19B 2558   6.717   3.678   7.542 -0.8651 -0.0173  0.8668
   35CHL1  H19C 2559   6.622   3.562   7.443  1.6614  0.7720 -1.9658
   35CHL1    C1 2560   6.420   3.703   7.352 -0.1036  0.0371  0.5565
   35CHL1   H1A 2561   6.435   3.594   7.337  2.0009  0.1119  1.8919
   35CHL1   H1B 2562   6.313   3.726   7.372  0.4393  3.6958 -0.3692
   35CHL1    C2 2563   6.463   3.779   7.214 -0.1962 -0.1737 -0.9779
   35CHL1   H2A 2564   6.379   3.760   7.143 -2.7878 -0.0874  1.9268
   35CHL1   H2B 2565   6.551   3.730   7.167  1.4051 -0.2006  1.9798
   35CHL1   C20 2566   6.337   3.398   8.073 -0.2797 -0.4626  0.3599
   35CHL1   H20 2567   6.442   3.366   8.085  0.2761  0.3706 -2.0676
   35CHL1   C21 2568   6.267   3.296   7.981 -0.1758 -0.3121  0.5122
   35CHL1  H21A 2569   6.332   3.249   7.905 -0.7345 -2.8782  1.5942
   35CHL1  H21B 2570   6.187   3.344   7.920  0.8365  2.9428  1.6356
   35CHL1  H21C 2571   6.226   3.214   8.043 -0.4614  0.6569  1.6149
   35CHL1   C22 2572   6.272   3.396   8.214  0.0028 -0.3155  0.1342
   35CHL1  H22A 2573   6.328   3.469   8.277 -0.8312 -0.3333  0.8949
   35CHL1  H22B 2574   6.167   3.432   8.214 -1.0343 -3.1703  1.8704
   35CHL1   C23 2575   6.283   3.266   8.298  0.5017  0.0555  0.6307
   35CHL1  H23A 2576   6.379   3.215   8.279  0.3212 -0.5456  1.3094
   35CHL1  H23B 2577   6.282   3.300   8.404  0.7207 -1.1969  1.0420
   35CHL1   C24 2578   6.165   3.163   8.295  0.2032  0.5961 -0.1926
   35CHL1  H24A 2579   6.069   3.201   8.251 -0.2753 -1.7880 -1.2673
   35CHL1  H24B 2580   6.211   3.086   8.230  1.8793  0.7893  0.7463
   35CHL1   C25 2581   6.148   3.091   8.432  0.3080 -0.4305 -0.2287
   35CHL1   H25 2582   6.246   3.082   8.484  0.0611  0.5483  0.4143
   35CHL1   C26 2583   6.055   3.179   8.519  0.0574  0.2812 -0.1841
   35CHL1  H26A 2584   5.998   3.110   8.586  0.7894 -2.0797 -1.9184
   35CHL1  H26B 2585   6.111   3.259   8.571  0.8200  0.2153 -0.9015
   35CHL1  H26C 2586   5.991   3.244   8.456 -1.9206 -1.0341  0.3877
   35CHL1   C27 2587   6.084   2.951   8.412 -0.1766  0.2199 -0.0678
   35CHL1  H27A 2588   5.991   2.975   8.357  0.3810  0.7978 -0.7760
   35CHL1  H27B 2589   6.057   2.907   8.510  2.9433 -1.4691  0.1151
   35CHL1  H27C 2590   6.141   2.882   8.346 -1.6496 -0.5982 -0.4990
   36CHL1    C3 2591   0.233   3.166   7.008 -0.1780  0.6283  0.1440
   36CHL1    H3 2592   0.125   3.188   7.002 -0.1453  0.3809 -1.7833
   36CHL1    O3 2593   0.281   3.138   6.873  0.4845 -0.0698  0.7542
   36CHL1   H3' 2594   0.369   3.102   6.879 -0.1252 -1.6231  0.5692
   36CHL1    C4 2595   0.317   3.271   7.083  0.1037 -0.1203  0.6245
   36CHL1   H4A 2596   0.426   3.250   7.069 -0.0551 -0.6752  0.2125
   36CHL1   H4B 2597   0.299   3.366   7.029  2.1399  0.5266  1.0362
   36CHL1    C5 2598   0.281   3.281   7.224 -0.7318 -0.3897 -0.2125
   36CHL1    C6 2599   0.249   3.400   7.277  0.5409 -0.4852 -0.2985
   36CHL1    H6 2600   0.255   3.489   7.213  1.0962 -0.6826 -0.5238
   36CHL1    C7 2601   0.218   3.426   7.419  0.0831 -0.4942  0.3632
   36CHL1   H7A 2602   0.282   3.514   7.440  1.0216 -0.9231 -0.6341
   36CHL1   H7B 2603   0.112   3.457   7.429 -0.2152 -1.9098  1.7993
   36CHL1    C8 2604   0.253   3.308   7.509 -0.2430 -0.0101  0.3547
   36CHL1    H8 2605   0.361   3.308   7.535 -0.4688  0.6246  1.2996
   36CHL1   C14 2606   0.176   3.333   7.637 -0.5475  0.4198  0.1993
   36CHL1   H14 2607   0.070   3.327   7.606 -0.2737 -3.2434 -0.2429
   36CHL1   C15 2608   0.189   3.465   7.705 -0.4094  0.1618 -0.1173
   36CHL1  H15A 2609   0.293   3.504   7.702 -1.0577  1.9302 -0.0726
   36CHL1  H15B 2610   0.124   3.544   7.662 -0.9499 -1.3585 -2.1754
   36CHL1   C16 2611   0.147   3.425   7.851 -0.6524 -0.1566 -0.4132
   36CHL1  H16A 2612   0.228   3.448   7.924 -2.0024  2.5308  0.3341
   36CHL1  H16B 2613   0.066   3.499   7.871  0.3585  1.2044 -1.2736
   36CHL1   C17 2614   0.111   3.280   7.853 -0.1723  0.9762 -0.5813
   36CHL1   H17 2615   0.006   3.276   7.818  0.1224 -0.4509 -1.3185
   36CHL1   C13 2616   0.195   3.227   7.738 -0.5641  0.2967  0.1659
   36CHL1   C18 2617   0.343   3.220   7.784 -0.1345 -0.1404 -0.4583
   36CHL1  H18A 2618   0.414   3.197   7.702  0.3446 -0.1253 -0.0501
   36CHL1  H18B 2619   0.373   3.320   7.823  1.3493 -1.6939  2.5938
   36CHL1  H18C 2620   0.345   3.148   7.869 -1.0188  0.4962  0.1238
   36CHL1   C12 2621   0.149   3.096   7.676  0.1229  0.5862 -0.0694
   36CHL1  H12A 2622   0.193   3.014   7.737 -0.6715  0.8599  0.8662
   36CHL1  H12B 2623   0.040   3.116   7.664  0.0809 -1.1032 -3.0415
   36CHL1   C11 2624   0.217   3.068   7.541 -0.4072 -0.2425 -0.0755
   36CHL1  H11A 2625   0.325   3.053   7.566 -0.0820  0.0634 -1.2800
   36CHL1  H11B 2626   0.168   2.978   7.498 -1.0094  1.1375 -2.3439
   36CHL1    C9 2627   0.211   3.179   7.443  0.0906 -0.4138  0.1760
   36CHL1    H9 2628   0.106   3.193   7.409  1.0979  2.3128 -1.9354
   36CHL1   C10 2629   0.285   3.156   7.313 -0.2768  0.6124 -0.2431
   36CHL1   C19 2630   0.430   3.116   7.341  0.5520 -0.0025 -0.3880
   36CHL1  H19A 2631   0.435   3.015   7.387 -0.8167 -0.2764 -0.8216
   36CHL1  H19B 2632   0.474   3.094   7.241  0.4859 -0.8480 -0.2345
   36CHL1  H19C 2633   0.488   3.197   7.390 -0.7129  1.0131 -0.5547
   36CHL1    C1 2634   0.212   3.043   7.233  0.0774 -0.8071 -0.0617
   36CHL1   H1A 2635   0.225   2.943   7.281  0.1188 -0.0227  1.5830
   36CHL1   H1B 2636   0.101   3.046   7.229  0.1616  2.9144 -1.2721
   36CHL1    C2 2637   0.254   3.036   7.084 -0.2100 -0.5188 -0.6284
   36CHL1   H2A 2638   0.191   2.951   7.050 -1.4444 -0.0727  0.5462
   36CHL1   H2B 2639   0.358   2.995   7.078 -0.2020 -1.1777  2.8218
   36CHL1   C20 2640   0.104   3.219   7.990  0.5475  0.1810  0.0370
   36CHL1   H20 2641   0.199   3.247   8.041  0.5756 -0.2093  0.1941
   36CHL1   C21 2642   0.099   3.066   7.983  0.0588 -0.8449  0.1812
   36CHL1  H21A 2643   0.197   3.035   7.941  1.8062  2.2951  1.7731
   36CHL1  H21B 2644   0.021   3.038   7.909 -0.5453 -1.6206  1.1141
   36CHL1  H21C 2645   0.063   3.017   8.076  1.3974 -0.4748  0.9121
   36CHL1   C22 2646  -0.009   3.279   8.071 -0.4480  0.4478  0.0004
   36CHL1  H22A 2647  -0.003   3.388   8.051  0.2440  0.2099 -1.1142
   36CHL1  H22B 2648  -0.108   3.249   8.030  0.5155  0.9006 -2.7841
   36CHL1   C23 2649   0.004   3.258   8.223  0.0109 -0.7080  0.3940
   36CHL1  H23A 2650  -0.022   3.150   8.235 -0.2215 -0.6413  0.4940
   36CHL1  H23B 2651   0.102   3.281   8.269 -0.7701  1.4930  1.0326
   36CHL1   C24 2652  -0.105   3.345   8.302 -0.0191 -0.6856  0.2480
   36CHL1  H24A 2653  -0.069   3.450   8.301 -2.1984  0.0775  0.3508
   36CHL1  H24B 2654  -0.198   3.335   8.242  0.4625  0.3810 -0.6854
   36CHL1   C25 2655  -0.131   3.302   8.446 -0.7919  0.8197  0.4567
   36CHL1   H25 2656  -0.233   3.339   8.467 -1.3087  0.8245 -1.8676
   36CHL1   C26 2657  -0.121   3.148   8.482 -0.0533 -0.5018  0.1927
   36CHL1  H26A 2658  -0.151   3.126   8.587 -0.3538  0.5851  0.3423
   36CHL1  H26B 2659  -0.162   3.078   8.407 -1.1042 -1.0044  1.2193
   36CHL1  H26C 2660  -0.012   3.125   8.484 -0.1220 -0.8484 -0.1386
   36CHL1   C27 2661  -0.043   3.387   8.548 -0.1409  0.4459 -0.2740
   36CHL1  H27A 2662   0.064   3.358   8.547 -0.6239 -1.4886  0.9487
   36CHL1  H27B 2663  -0.053   3.496   8.530  1.2622  0.6161 -0.0913
   36CHL1  H27C 2664  -0.091   3.365   8.646 -3.0948  0.1962 -1.7250
   37CHL1    C3 2665   3.987   5.686   6.976 -0.1529  0.2181 -0.4770
   37CHL1    H3 2666   3.879   5.706   6.962 -0.2660  0.0782  0.1802
   37CHL1    O3 2667   4.058   5.682   6.851 -0.0292  0.4845 -0.2776
   37CHL1   H3' 2668   3.984   5.674   6.791  1.8669 -0.3387 -2.5607
   37CHL1    C4 2669   4.056   5.801   7.055 -0.1511  0.2265  0.9261
   37CHL1   H4A 2670   4.164   5.796   7.030 -0.4593 -1.0067 -0.2390
   37CHL1   H4B 2671   4.016   5.895   7.012  0.6923  0.2473  0.1728
   37CHL1    C5 2672   4.020   5.793   7.198  0.1028  0.3501  0.5742
   37CHL1    C6 2673   3.959   5.897   7.261 -0.3391  0.3172 -0.3130
   37CHL1    H6 2674   3.931   5.995   7.219 -0.1390  0.5821  0.1636
   37CHL1    C7 2675   3.933   5.903   7.408 -0.9281 -0.5577 -0.3730
   37CHL1   H7A 2676   3.958   6.001   7.454  1.2778 -1.8069  1.1712
   37CHL1   H7B 2677   3.826   5.890   7.435 -1.0591  3.9645  1.7732
   37CHL1    C8 2678   4.026   5.802   7.479  0.1706 -0.6095  0.4506
   37CHL1    H8 2679   4.130   5.840   7.474 -0.3619  1.0637  1.7634
   37CHL1   C14 2680   3.982   5.796   7.626  0.3297  0.8061  0.3430
   37CHL1   H14 2681   3.875   5.770   7.612  1.1740 -1.5930 -2.1645
   37CHL1   C15 2682   3.985   5.925   7.712  0.2989  0.3240  0.1648
   37CHL1  H15A 2683   4.078   5.982   7.692  1.2537 -1.1681  0.2646
   37CHL1  H15B 2684   3.893   5.980   7.682  0.9164  1.2896  0.0334
   37CHL1   C16 2685   3.981   5.873   7.851  0.2516  0.0683 -0.2720
   37CHL1  H16A 2686   4.069   5.917   7.903 -0.2896  1.2550 -0.3298
   37CHL1  H16B 2687   3.902   5.920   7.913  0.2375  0.6097 -0.6922
   37CHL1   C17 2688   3.990   5.715   7.846  0.6167  0.1146  0.3777
   37CHL1   H17 2689   3.885   5.680   7.844  1.1004 -1.3689 -0.6106
   37CHL1   C13 2690   4.044   5.685   7.711  0.3350  0.5644 -0.5945
   37CHL1   C18 2691   4.198   5.707   7.703  0.1110 -0.5408 -0.7840
   37CHL1  H18A 2692   4.252   5.623   7.752 -0.4515  0.0570  0.8823
   37CHL1  H18B 2693   4.234   5.714   7.598  2.6719  1.3328  0.1633
   37CHL1  H18C 2694   4.236   5.797   7.757 -1.6776 -1.1678  1.5714
   37CHL1   C12 2695   4.005   5.551   7.649 -0.2939 -0.4743 -0.2291
   37CHL1  H12A 2696   4.047   5.463   7.701  0.7457  0.6181  0.8167
   37CHL1  H12B 2697   3.895   5.534   7.652 -0.4843  0.9408  2.5196
   37CHL1   C11 2698   4.055   5.540   7.505 -0.1131  0.9796 -0.0860
   37CHL1  H11A 2699   4.166   5.538   7.501 -0.1989  0.1547 -3.2354
   37CHL1  H11B 2700   4.021   5.453   7.446 -2.3357  3.0437 -1.9508
   37CHL1    C9 2701   4.006   5.664   7.420  0.0005 -0.7051  0.2628
   37CHL1    H9 2702   3.895   5.656   7.426  0.1364 -1.9090  1.5516
   37CHL1   C10 2703   4.056   5.663   7.274  0.1886  0.0187  0.4800
   37CHL1   C19 2704   4.211   5.651   7.272 -0.5267 -0.0228  0.3183
   37CHL1  H19A 2705   4.256   5.668   7.172 -0.9226  0.5505  0.2341
   37CHL1  H19B 2706   4.270   5.712   7.345 -1.2708  0.9476  0.1249
   37CHL1  H19C 2707   4.239   5.548   7.302  1.2395 -0.2604 -2.0209
   37CHL1    C1 2708   3.984   5.548   7.199  0.3335 -1.4572 -0.5393
   37CHL1   H1A 2709   4.030   5.455   7.239 -0.2002 -2.5120 -2.2730
   37CHL1   H1B 2710   3.875   5.544   7.218  0.6493 -1.7412  1.2658
   37CHL1    C2 2711   4.017   5.551   7.042  0.0836  0.2837  0.3263
   37CHL1   H2A 2712   3.959   5.469   6.995 -0.8754  0.7065  0.7496
   37CHL1   H2B 2713   4.125   5.528   7.028  0.6114  2.3562  0.7730
   37CHL1   C20 2714   4.056   5.654   7.968 -0.0437  0.5547  0.1512
   37CHL1   H20 2715   4.161   5.690   7.980  0.5410 -1.1697  0.3976
   37CHL1   C21 2716   4.057   5.504   7.967 -0.4776 -1.5584 -0.0126
   37CHL1  H21A 2717   3.955   5.472   7.937 -0.6032 -2.5563  1.4467
   37CHL1  H21B 2718   4.072   5.465   8.070 -1.1554  1.9548  1.4730
   37CHL1  H21C 2719   4.125   5.457   7.892 -1.4843 -4.4035  0.8210
   37CHL1   C22 2720   3.976   5.697   8.093 -0.7326  0.5734  0.6381
   37CHL1  H22A 2721   4.014   5.631   8.173 -0.6117 -0.6875 -0.4444
   37CHL1  H22B 2722   3.999   5.802   8.121 -1.0214  0.8278 -0.0502
   37CHL1   C23 2723   3.816   5.684   8.091 -0.0873 -0.3771  0.4635
   37CHL1  H23A 2724   3.780   5.752   8.011  1.1104  1.8008  1.7221
   37CHL1  H23B 2725   3.799   5.576   8.076  0.1151 -0.2546 -0.6869
   37CHL1   C24 2726   3.767   5.736   8.218  0.5192  0.6277 -0.6643
   37CHL1  H24A 2727   3.812   5.690   8.309 -0.4332  0.8610 -0.0625
   37CHL1  H24B 2728   3.795   5.842   8.229  0.2448  0.4834  1.6316
   37CHL1   C25 2729   3.605   5.707   8.223  0.0417  0.1097  0.0195
   37CHL1   H25 2730   3.594   5.600   8.199  2.3181  0.0393 -0.8305
   37CHL1   C26 2731   3.539   5.743   8.359 -0.3343  0.6752 -0.3052
   37CHL1  H26A 2732   3.578   5.837   8.402 -1.3992  0.6430  0.7604
   37CHL1  H26B 2733   3.429   5.742   8.343 -0.2627 -1.1994 -0.8723
   37CHL1  H26C 2734   3.557   5.670   8.441 -0.1646  0.0417 -0.9008
   37CHL1   C27 2735   3.520   5.786   8.124  0.5775  0.2246 -0.6384
   37CHL1  H27A 2736   3.411   5.766   8.131  0.8244 -0.7349  0.6966
   37CHL1  H27B 2737   3.539   5.894   8.143 -0.8187  0.5426 -1.0008
   37CHL1  H27C 2738   3.542   5.763   8.017  0.3261 -0.4151 -0.5522
   38CHL1    C3 2739   0.312   6.269   6.667  0.0143 -0.2568  0.4021
   38CHL1    H3 2740   0.230   6.197   6.683  1.3967 -2.1088 -0.6134
   38CHL1    O3 2741   0.329   6.278   6.522  0.0810 -0.3502 -0.0202
   38CHL1   H3' 2742   0.249   6.243   6.481  0.1777 -2.8226  1.7488
   38CHL1    C4 2743   0.278   6.411   6.724  0.3349  0.7022 -0.7109
   38CHL1   H4A 2744   0.368   6.472   6.699  3.0578 -2.0524  1.9173
   38CHL1   H4B 2745   0.196   6.459   6.668 -1.0656 -1.3101 -0.4323
   38CHL1    C5 2746   0.263   6.414   6.879 -0.1113  0.4871  0.0783
   38CHL1    C6 2747   0.164   6.484   6.932  0.4300  0.5544 -0.2323
   38CHL1    H6 2748   0.086   6.533   6.872  0.7821 -0.6685 -1.7283
   38CHL1    C7 2749   0.145   6.498   7.084 -0.2716  0.1494  0.2539
   38CHL1   H7A 2750   0.120   6.605   7.099 -0.1470  0.7369 -3.3651
   38CHL1   H7B 2751   0.064   6.439   7.132 -1.3674  2.2952  1.1156
   38CHL1    C8 2752   0.270   6.449   7.165 -0.0266 -0.7636 -0.3119
   38CHL1    H8 2753   0.348   6.527   7.174 -1.5093  0.5077  1.6842
   38CHL1   C14 2754   0.226   6.418   7.312 -0.3390  0.1419  0.6616
   38CHL1   H14 2755   0.151   6.337   7.303  1.0831 -0.9958 -1.3811
   38CHL1   C15 2756   0.157   6.531   7.390  0.1393 -0.1405 -1.1862
   38CHL1  H15A 2757   0.212   6.627   7.386 -1.1774  0.6126 -1.8109
   38CHL1  H15B 2758   0.051   6.540   7.355 -0.7322 -1.4901  1.0243
   38CHL1   C16 2759   0.151   6.479   7.530 -0.5238  0.7582 -0.6554
   38CHL1  H16A 2760   0.194   6.545   7.607  1.1683 -3.5637  2.3115
   38CHL1  H16B 2761   0.044   6.453   7.549 -0.0704 -0.8843 -0.3055
   38CHL1   C17 2762   0.238   6.342   7.531  0.0861 -0.0910  0.4621
   38CHL1   H17 2763   0.154   6.272   7.509 -0.0027  0.0274  0.4230
   38CHL1   C13 2764   0.325   6.346   7.403  0.0379 -0.0083 -0.1701
   38CHL1   C18 2765   0.452   6.424   7.427 -0.1200  0.2882  0.0003
   38CHL1  H18A 2766   0.442   6.505   7.503 -1.4981  0.1306  0.0029
   38CHL1  H18B 2767   0.529   6.357   7.471 -0.5349 -1.2035 -1.5097
   38CHL1  H18C 2768   0.486   6.471   7.332 -0.3646  1.4197  0.4652
   38CHL1   C12 2769   0.354   6.209   7.332 -0.7957  0.0534 -0.1668
   38CHL1  H12A 2770   0.425   6.159   7.402 -0.3119  0.1998 -0.5490
   38CHL1  H12B 2771   0.267   6.140   7.337 -0.9133  0.2505  0.6576
   38CHL1   C11 2772   0.413   6.230   7.190 -0.6033  0.3298  0.2309
   38CHL1  H11A 2773   0.510   6.283   7.201 -0.2159 -0.0071 -1.4243
   38CHL1  H11B 2774   0.414   6.130   7.142  1.2788  0.3301  0.2373
   38CHL1    C9 2775   0.326   6.322   7.098 -0.9798 -0.5749  0.4919
   38CHL1    H9 2776   0.238   6.256   7.087  0.1834 -1.8465 -1.2432
   38CHL1   C10 2777   0.378   6.343   6.958 -0.2913  0.4342  0.4127
   38CHL1   C19 2778   0.485   6.447   6.959 -0.6578 -0.6506 -0.0741
   38CHL1  H19A 2779   0.451   6.547   6.994  1.4108  0.3728 -0.9238
   38CHL1  H19B 2780   0.566   6.423   7.030  0.9654 -1.0958 -2.0383
   38CHL1  H19C 2781   0.534   6.456   6.860  0.9856 -0.0186  0.7769
   38CHL1    C1 2782   0.421   6.212   6.896  0.1642  0.0612  0.4148
   38CHL1   H1A 2783   0.520   6.182   6.937  0.0400 -1.5740 -0.4062
   38CHL1   H1B 2784   0.347   6.132   6.918  0.4887  0.2693  2.3086
   38CHL1    C2 2785   0.445   6.210   6.737  0.6326 -0.2819 -0.1324
   38CHL1   H2A 2786   0.470   6.113   6.689 -0.0286 -0.5607  0.0886
   38CHL1   H2B 2787   0.532   6.278   6.724 -0.0957  0.5747 -0.4754
   38CHL1   C20 2788   0.310   6.315   7.667  0.8231  0.2402  0.5934
   38CHL1   H20 2789   0.395   6.384   7.687  3.0997 -2.2333 -0.2868
   38CHL1   C21 2790   0.377   6.177   7.662 -0.1957 -0.4493 -0.6582
   38CHL1  H21A 2791   0.463   6.183   7.592  1.4519 -0.5482  1.3195
   38CHL1  H21B 2792   0.300   6.099   7.644  0.0615 -0.8403 -0.0631
   38CHL1  H21C 2793   0.429   6.166   7.760  1.1119 -0.4457 -1.3469
   38CHL1   C22 2794   0.206   6.326   7.780 -0.5800  0.0581 -0.1127
   38CHL1  H22A 2795   0.167   6.430   7.784  1.0357  0.7890 -2.4210
   38CHL1  H22B 2796   0.116   6.264   7.763 -1.1541  0.9830 -0.4478
   38CHL1   C23 2797   0.259   6.292   7.918 -0.7430 -0.8857 -0.3681
   38CHL1  H23A 2798   0.309   6.193   7.914  1.6067  0.3319 -2.8336
   38CHL1  H23B 2799   0.339   6.361   7.951 -1.4305 -0.3936  0.2872
   38CHL1   C24 2800   0.153   6.297   8.027 -0.3700  0.7448 -0.2635
   38CHL1  H24A 2801   0.129   6.404   8.044 -1.7329  0.2882  0.7079
   38CHL1  H24B 2802   0.062   6.250   7.985  2.2770 -3.1258 -1.9107
   38CHL1   C25 2803   0.182   6.242   8.168 -0.5831 -0.0568  1.0796
   38CHL1   H25 2804   0.181   6.133   8.150  0.2671 -0.0513  0.9710
   38CHL1   C26 2805   0.321   6.274   8.219  0.7894 -0.0880  0.2635
   38CHL1  H26A 2806   0.329   6.384   8.228  0.1793 -0.2710  4.3129
   38CHL1  H26B 2807   0.342   6.238   8.322 -1.1708 -2.5316 -0.1249
   38CHL1  H26C 2808   0.392   6.228   8.148 -1.7725 -4.5188  0.3709
   38CHL1   C27 2809   0.072   6.266   8.269 -0.6585  0.3339 -0.5594
   38CHL1  H27A 2810   0.108   6.233   8.369 -0.8149 -2.0893 -1.2849
   38CHL1  H27B 2811   0.059   6.377   8.270  2.8561  0.8202 -1.5990
   38CHL1  H27C 2812  -0.020   6.206   8.253 -1.7834  1.4073  1.6245
   39CHL1    C3 2813   6.686   5.529   6.707  0.3955 -0.4575  0.2731
   39CHL1    H3 2814   6.786   5.574   6.695 -0.4940  1.6550  0.5652
   39CHL1    O3 2815   6.609   5.540   6.585  0.5164 -0.2310  0.3584
   39CHL1   H3' 2816   6.573   5.629   6.586 -0.2452 -0.5203  2.6230
   39CHL1    C4 2817   6.699   5.381   6.745  0.2532 -0.7357 -0.0289
   39CHL1   H4A 2818   6.605   5.323   6.739  1.5628 -2.8674 -0.6230
   39CHL1   H4B 2819   6.763   5.333   6.667 -0.2895 -1.1607 -0.2176
   39CHL1    C5 2820   6.756   5.361   6.888 -0.1772 -0.1907 -0.0089
   39CHL1    C6 2821   6.865   5.275   6.904  0.6239  0.3136 -0.6458
   39CHL1    H6 2822   6.913   5.220   6.822 -1.7251 -0.7832 -1.3212
   39CHL1    C7 2823   6.911   5.241   7.045  0.4469 -0.0153  0.5412
   39CHL1   H7A 2824   6.921   5.130   7.045  0.8376  0.0195  0.6037
   39CHL1   H7B 2825   7.009   5.293   7.051  1.2787 -1.4550 -0.1495
   39CHL1    C8 2826   6.822   5.288   7.162  0.1221  0.3146  0.3303
   39CHL1    H8 2827   6.738   5.216   7.164  0.3931  0.0010  0.4799
   39CHL1   C14 2828   6.893   5.286   7.297  0.3894 -0.1235  0.2387
   39CHL1   H14 2829   6.969   5.367   7.302  0.5623 -0.2869  0.2444
   39CHL1   C15 2830   6.959   5.151   7.336  0.7328 -0.3005  1.1462
   39CHL1  H15A 2831   6.893   5.068   7.301  1.3904 -0.6130  0.6479
   39CHL1  H15B 2832   7.056   5.132   7.287 -0.5105 -1.5553 -0.9160
   39CHL1   C16 2833   6.974   5.155   7.487 -0.8384 -0.2205  1.2481
   39CHL1  H16A 2834   6.916   5.068   7.524 -0.1265 -1.0732  0.3663
   39CHL1  H16B 2835   7.080   5.132   7.509 -0.5171  2.2507  2.5033
   39CHL1   C17 2836   6.912   5.290   7.530  0.5192 -0.3037  0.3574
   39CHL1   H17 2837   6.989   5.370   7.523 -0.9541  1.0053 -1.1883
   39CHL1   C13 2838   6.807   5.322   7.418  0.1999 -0.3242  0.2070
   39CHL1   C18 2839   6.695   5.217   7.425  1.2382  0.0543  0.6980
   39CHL1  H18A 2840   6.633   5.234   7.515 -2.7348  2.4537 -2.2978
   39CHL1  H18B 2841   6.624   5.232   7.340  1.2941 -2.6661  0.1226
   39CHL1  H18C 2842   6.729   5.112   7.415  0.7512 -0.0801  0.4342
   39CHL1   C12 2843   6.760   5.459   7.399 -0.1516 -0.8640 -0.1945
   39CHL1  H12A 2844   6.682   5.472   7.477  1.7879 -1.2620  1.8597
   39CHL1  H12B 2845   6.844   5.528   7.423 -1.9521  1.2934  0.0380
   39CHL1   C11 2846   6.695   5.493   7.259 -0.6668  0.4523  0.2871
   39CHL1  H11A 2847   6.593   5.450   7.270  0.6562 -2.8553  0.2566
   39CHL1  H11B 2848   6.705   5.603   7.254  2.2928  0.1959 -0.4030
   39CHL1    C9 2849   6.769   5.428   7.139  0.0775 -0.0114 -0.3579
   39CHL1    H9 2850   6.851   5.502   7.132 -0.9342  1.0294 -1.5105
   39CHL1   C10 2851   6.688   5.437   7.003 -0.6151  0.5750 -0.1563
   39CHL1   C19 2852   6.555   5.361   7.010  0.1775  0.0979 -0.2980
   39CHL1  H19A 2853   6.514   5.366   6.907  0.5813  2.1083 -0.3738
   39CHL1  H19B 2854   6.558   5.256   7.047 -0.0603  0.1800 -0.0435
   39CHL1  H19C 2855   6.487   5.420   7.075 -1.2143 -0.5371 -1.1593
   39CHL1    C1 2856   6.665   5.582   6.955 -0.2009  0.6635 -0.3029
   39CHL1   H1A 2857   6.617   5.656   7.022  0.3997 -0.3368  1.2558
   39CHL1   H1B 2858   6.769   5.621   6.943  0.3916 -1.2343 -1.4820
   39CHL1    C2 2859   6.600   5.588   6.816  0.6339 -0.3658  0.1139
   39CHL1   H2A 2860   6.589   5.695   6.786 -0.4131 -0.9818 -1.7455
   39CHL1   H2B 2861   6.499   5.543   6.827  0.7251 -0.3347  1.1485
   39CHL1   C20 2862   6.876   5.267   7.677 -0.1661 -0.1557  0.3096
   39CHL1   H20 2863   6.799   5.188   7.679 -1.9820  1.5710  0.6449
   39CHL1   C21 2864   6.809   5.400   7.726 -0.4593  0.6823  0.1424
   39CHL1  H21A 2865   6.863   5.489   7.688 -0.2354  0.0755 -0.9905
   39CHL1  H21B 2866   6.818   5.389   7.836  0.4409 -2.1818 -0.1740
   39CHL1  H21C 2867   6.700   5.400   7.706 -0.5856 -1.7543  0.6547
   39CHL1   C22 2868   6.984   5.224   7.778 -0.4444 -0.0079  0.1982
   39CHL1  H22A 2869   6.934   5.207   7.876  0.1450 -1.0326  0.3359
   39CHL1  H22B 2870   7.022   5.122   7.754 -1.4606 -0.2464 -0.4318
   39CHL1   C23 2871   7.094   5.324   7.804  0.1276  0.0648  0.3824
   39CHL1  H23A 2872   7.146   5.348   7.708 -1.7449 -1.2064 -0.9810
   39CHL1  H23B 2873   7.050   5.422   7.833 -0.9712 -0.4539  0.4748
   39CHL1   C24 2874   7.191   5.266   7.909  0.3139 -0.1788 -0.2216
   39CHL1  H24A 2875   7.135   5.216   7.991  1.2226 -0.3807  0.2871
   39CHL1  H24B 2876   7.243   5.180   7.862 -0.0928 -0.3912 -0.2843
   39CHL1   C25 2877   7.299   5.360   7.951 -0.6954 -0.4382 -0.8352
   39CHL1   H25 2878   7.333   5.420   7.864 -0.4717 -2.0862 -1.9081
   39CHL1   C26 2879   7.245   5.469   8.053 -0.2136 -0.1389 -1.2070
   39CHL1  H26A 2880   7.206   5.416   8.143  0.8967 -0.8016 -1.1110
   39CHL1  H26B 2881   7.328   5.530   8.094  0.4486 -1.3352 -0.7366
   39CHL1  H26C 2882   7.174   5.540   8.007 -0.4971  1.0686  1.0382
   39CHL1   C27 2883   7.417   5.281   8.006  0.9759 -0.0534 -0.5129
   39CHL1  H27A 2884   7.379   5.268   8.110  1.9715 -2.7906 -0.4284
   39CHL1  H27B 2885   7.424   5.182   7.955  0.3480 -0.6620  0.5543
   39CHL1  H27C 2886   7.512   5.338   8.001  1.9758 -1.5785  0.5531
   40CHL1    C3 2887   2.685   4.911   6.810  0.8296 -0.2347 -0.2353
   40CHL1    H3 2888   2.637   4.812   6.792 -0.0531  0.0853  0.3300
   40CHL1    O3 2889   2.674   4.990   6.693  0.0311  0.2909  0.4331
   40CHL1   H3' 2890   2.701   4.923   6.630 -1.9768 -1.0024  0.8817
   40CHL1    C4 2891   2.600   4.984   6.915  0.6795  0.0073 -0.3948
   40CHL1   H4A 2892   2.635   5.089   6.919  3.0860 -0.7485 -0.5302
   40CHL1   H4B 2893   2.501   5.000   6.868  0.1129 -0.9824  0.4412
   40CHL1    C5 2894   2.609   4.912   7.047  0.2168 -0.0481 -0.1856
   40CHL1    C6 2895   2.497   4.872   7.115  0.4613  0.5093  0.4516
   40CHL1    H6 2896   2.400   4.884   7.066  0.6468  0.0229 -0.0449
   40CHL1    C7 2897   2.495   4.817   7.255  0.0908 -0.2068  0.4856
   40CHL1   H7A 2898   2.411   4.845   7.323  1.5805  1.3837  1.7006
   40CHL1   H7B 2899   2.480   4.709   7.236 -0.2603 -0.2085  0.7602
   40CHL1    C8 2900   2.641   4.814   7.316  0.5303  0.1039  0.7119
   40CHL1    H8 2901   2.654   4.914   7.364  1.6999  0.9138 -1.2160
   40CHL1   C14 2902   2.639   4.718   7.432 -0.2800 -0.4425 -0.4522
   40CHL1   H14 2903   2.639   4.623   7.374  1.8516 -0.2473 -0.8349
   40CHL1   C15 2904   2.516   4.715   7.522 -1.1362 -0.5472 -0.2788
   40CHL1  H15A 2905   2.479   4.815   7.551  0.3751 -0.0391 -0.0937
   40CHL1  H15B 2906   2.432   4.653   7.484 -0.6051 -1.2281 -0.3605
   40CHL1   C16 2907   2.576   4.659   7.656  0.1650 -0.2256 -0.1021
   40CHL1  H16A 2908   2.569   4.742   7.729  0.7287 -1.6827  1.6212
   40CHL1  H16B 2909   2.512   4.574   7.689 -0.6901  1.0571  1.6299
   40CHL1   C17 2910   2.727   4.623   7.629  0.2110  0.2417  0.1422
   40CHL1   H17 2911   2.728   4.522   7.582 -1.3860 -0.4503  1.5535
   40CHL1   C13 2912   2.771   4.716   7.516  0.5416  0.6785 -0.3179
   40CHL1   C18 2913   2.813   4.853   7.574  0.6894 -0.2286 -0.3139
   40CHL1  H18A 2914   2.829   4.931   7.496 -0.4486 -1.1019 -1.4490
   40CHL1  H18B 2915   2.742   4.891   7.651  0.3791 -0.2514 -0.5822
   40CHL1  H18C 2916   2.910   4.829   7.621  0.0787  1.0131  1.6684
   40CHL1   C12 2917   2.871   4.668   7.415  0.5101  0.9732  0.2772
   40CHL1  H12A 2918   2.969   4.654   7.466  0.7411  1.5780  0.0045
   40CHL1  H12B 2919   2.846   4.563   7.385  0.9164  1.9993 -4.0223
   40CHL1   C11 2920   2.886   4.764   7.290  0.6408  0.9250 -0.0027
   40CHL1  H11A 2921   2.925   4.862   7.326 -0.9486  2.2602 -1.7965
   40CHL1  H11B 2922   2.970   4.725   7.228  1.5017 -3.8150  3.8621
   40CHL1    C9 2923   2.753   4.793   7.212  0.0964  0.7526  0.0071
   40CHL1    H9 2924   2.730   4.693   7.168  2.6242 -0.6203  1.6452
   40CHL1   C10 2925   2.752   4.879   7.090  0.0905 -0.3292  0.4854
   40CHL1   C19 2926   2.817   5.009   7.131 -1.1436 -0.1721 -0.0070
   40CHL1  H19A 2927   2.928   4.999   7.140 -0.6510  3.6420 -1.0631
   40CHL1  H19B 2928   2.801   5.088   7.055 -0.0302  0.0341 -0.0435
   40CHL1  H19C 2929   2.778   5.046   7.228  1.3010 -1.1381  1.4133
   40CHL1    C1 2930   2.832   4.809   6.970 -0.6576  0.5977 -0.5020
   40CHL1   H1A 2931   2.937   4.802   7.006 -0.7090 -1.3474 -0.7118
   40CHL1   H1B 2932   2.782   4.713   6.946 -1.5394  1.2206 -1.1793
   40CHL1    C2 2933   2.831   4.890   6.843 -0.8160  0.4574  0.2234
   40CHL1   H2A 2934   2.868   4.826   6.759  1.7850 -1.6976  2.8927
   40CHL1   H2B 2935   2.888   4.985   6.850  0.0521  0.2172 -2.7171
   40CHL1   C20 2936   2.811   4.612   7.755  0.0973  0.2767  0.0596
   40CHL1   H20 2937   2.830   4.713   7.797  1.1891  0.0266  0.1784
   40CHL1   C21 2938   2.945   4.545   7.724 -0.1764  0.0429  0.6591
   40CHL1  H21A 2939   2.998   4.535   7.821  1.1255 -1.7898 -0.2045
   40CHL1  H21B 2940   3.015   4.608   7.665 -0.2724  1.1485  1.7201
   40CHL1  H21C 2941   2.931   4.441   7.686 -1.6556  0.7278 -0.7298
   40CHL1   C22 2942   2.743   4.531   7.871 -0.3982 -0.1211 -0.2738
   40CHL1  H22A 2943   2.633   4.547   7.871 -0.4230 -0.2898 -0.0848
   40CHL1  H22B 2944   2.752   4.423   7.846  0.3007 -0.1329 -0.0052
   40CHL1   C23 2945   2.794   4.557   8.012 -0.3514 -0.7143 -0.8834
   40CHL1  H23A 2946   2.769   4.470   8.077 -3.6282  0.2455 -0.7887
   40CHL1  H23B 2947   2.904   4.575   8.008 -0.2545 -1.0917 -0.0282
   40CHL1   C24 2948   2.733   4.684   8.077 -0.0804  0.4442 -0.2390
   40CHL1  H24A 2949   2.761   4.769   8.011  2.1425 -0.3124 -0.3162
   40CHL1  H24B 2950   2.623   4.668   8.069 -0.0116 -0.3413  0.2916
   40CHL1   C25 2951   2.772   4.698   8.227  0.1570 -0.1469  0.1120
   40CHL1   H25 2952   2.763   4.598   8.273  1.7071  0.6177  2.1819
   40CHL1   C26 2953   2.914   4.754   8.252 -0.2641  0.1461 -0.1484
   40CHL1  H26A 2954   2.926   4.856   8.211  1.5430 -0.5548 -1.4006
   40CHL1  H26B 2955   2.951   4.757   8.356 -1.3922 -2.3822  0.3729
   40CHL1  H26C 2956   2.991   4.685   8.211  0.4676  0.9174 -0.0926
   40CHL1   C27 2957   2.675   4.794   8.284 -0.3965 -0.5837  0.1596
   40CHL1  H27A 2958   2.689   4.898   8.248 -1.2984 -0.8582 -1.0498
   40CHL1  H27B 2959   2.568   4.764   8.277 -0.7180  0.1857  1.6058
   40CHL1  H27C 2960   2.701   4.795   8.392  1.6092 -0.0697 -0.3217
   41CHL1    C3 2961   3.588   4.530   6.897  0.1246  0.7355  0.2517
   41CHL1    H3 2962   3.581   4.641   6.889 -2.1185  0.5510 -0.8004
   41CHL1    O3 2963   3.550   4.483   6.772 -0.2121 -0.4656 -0.2457
   41CHL1   H3' 2964   3.610   4.518   6.706  2.4295  0.6331  2.6029
   41CHL1    C4 2965   3.727   4.504   6.924  0.1463  0.0580  0.2533
   41CHL1   H4A 2966   3.755   4.398   6.907 -1.0325 -0.0219 -1.3456
   41CHL1   H4B 2967   3.779   4.556   6.841  0.5256  0.4649  0.7417
   41CHL1    C5 2968   3.762   4.548   7.066 -0.9533 -0.6407 -0.2408
   41CHL1    C6 2969   3.859   4.641   7.084  0.4190 -0.3603  0.1475
   41CHL1    H6 2970   3.897   4.689   6.993  0.2934 -2.2082 -0.9202
   41CHL1    C7 2971   3.919   4.692   7.207 -0.8989  0.1320  0.3770
   41CHL1   H7A 2972   4.028   4.714   7.196 -0.8465 -0.4344 -0.2255
   41CHL1   H7B 2973   3.886   4.796   7.227  2.2231  0.9144  1.8380
   41CHL1    C8 2974   3.864   4.609   7.327  0.1481 -0.2515  0.3835
   41CHL1    H8 2975   3.922   4.515   7.317  0.7929  0.3582 -1.8607
   41CHL1   C14 2976   3.890   4.686   7.457 -0.0824  0.0249  0.5000
   41CHL1   H14 2977   3.831   4.780   7.449 -0.4150 -0.0942  1.4511
   41CHL1   C15 2978   4.034   4.739   7.493  0.4754  0.6895 -0.6244
   41CHL1  H15A 2979   4.114   4.680   7.443  1.3055  1.7968 -0.6141
   41CHL1  H15B 2980   4.046   4.840   7.448  0.2482  0.7349 -0.5842
   41CHL1   C16 2981   4.030   4.746   7.645  0.6940 -0.5715  0.4004
   41CHL1  H16A 2982   4.116   4.690   7.688  2.0165  0.4253 -0.9109
   41CHL1  H16B 2983   4.053   4.849   7.679  1.8568 -0.5193 -0.5033
   41CHL1   C17 2984   3.896   4.692   7.691 -0.2398  0.8499 -0.7148
   41CHL1   H17 2985   3.819   4.772   7.690 -0.7709  0.3320 -0.8484
   41CHL1   C13 2986   3.841   4.604   7.577  0.4449 -0.0239 -0.0039
   41CHL1   C18 2987   3.921   4.467   7.583 -0.3112  0.1068 -0.2481
   41CHL1  H18A 2988   3.895   4.408   7.674  1.2521 -0.2191  0.0097
   41CHL1  H18B 2989   3.892   4.398   7.502 -0.9650  0.7420 -0.5634
   41CHL1  H18C 2990   4.032   4.472   7.588 -0.3472  1.3555 -0.3407
   41CHL1   C12 2991   3.690   4.592   7.574 -0.2496 -0.0301 -0.1534
   41CHL1  H12A 2992   3.651   4.539   7.663  0.0885  0.0399  0.0364
   41CHL1  H12B 2993   3.649   4.696   7.574  1.7193  0.7794 -1.2810
   41CHL1   C11 2994   3.646   4.522   7.437 -0.1897 -0.0302  0.7609
   41CHL1  H11A 2995   3.689   4.420   7.439 -0.3226 -0.0732  1.4526
   41CHL1  H11B 2996   3.535   4.532   7.436 -0.1272  0.6616  0.6640
   41CHL1    C9 2997   3.710   4.577   7.309 -0.0460  0.4785  0.4594
   41CHL1    H9 2998   3.670   4.680   7.295  0.1183  0.4381 -0.3026
   41CHL1   C10 2999   3.679   4.499   7.185 -0.7693  0.5613  0.3453
   41CHL1   C19 3000   3.698   4.342   7.199  0.2244 -0.0118  0.0513
   41CHL1  H19A 3001   3.622   4.316   7.276  0.3234  2.1986  0.9538
   41CHL1  H19B 3002   3.664   4.288   7.108 -1.1477  1.5291 -0.3793
   41CHL1  H19C 3003   3.800   4.320   7.237 -0.7774 -1.5510  1.9490
   41CHL1    C1 3004   3.530   4.521   7.145 -0.6697 -0.2716  0.3038
   41CHL1   H1A 3005   3.470   4.467   7.221  0.2884  0.0952  1.3371
   41CHL1   H1B 3006   3.508   4.630   7.146 -3.9631 -0.9007  0.1583
   41CHL1    C2 3007   3.490   4.471   7.004  0.6124  0.5943 -0.1806
   41CHL1   H2A 3008   3.385   4.505   6.994 -0.5507 -2.9362 -0.7758
   41CHL1   H2B 3009   3.492   4.361   6.989  1.1695  0.8207 -1.8453
   41CHL1   C20 3010   3.882   4.644   7.835  0.2331 -0.0425  0.2390
   41CHL1   H20 3011   3.778   4.606   7.846 -0.1140  0.8084 -0.0559
   41CHL1   C21 3012   3.883   4.760   7.932 -0.6623 -0.2884  0.2659
   41CHL1  H21A 3013   3.807   4.837   7.907  0.7326  0.9351 -0.2381
   41CHL1  H21B 3014   3.982   4.809   7.944  0.6288 -2.9053  0.5608
   41CHL1  H21C 3015   3.851   4.726   8.033 -1.8012  0.2828  0.1093
   41CHL1   C22 3016   3.987   4.546   7.888  0.8669  0.5800  0.0862
   41CHL1  H22A 3017   4.007   4.460   7.822 -2.4821 -0.1740 -0.0174
   41CHL1  H22B 3018   4.083   4.598   7.910  0.6774  2.1422 -2.4970
   41CHL1   C23 3019   3.941   4.472   8.013  0.4574  0.5167 -0.0041
   41CHL1  H23A 3020   3.915   4.546   8.091  0.5089 -0.1122  0.6105
   41CHL1  H23B 3021   3.855   4.403   7.994 -0.7847  1.4304  2.1753
   41CHL1   C24 3022   4.057   4.381   8.071  0.0953 -0.2389 -0.4145
   41CHL1  H24A 3023   4.099   4.320   7.988  0.2177  1.1076 -1.3609
   41CHL1  H24B 3024   4.140   4.447   8.103  2.3532 -2.0859 -2.2420
   41CHL1   C25 3025   4.027   4.292   8.194  0.1098 -0.1247 -0.0587
   41CHL1   H25 3026   4.121   4.243   8.228  0.0108  0.9599  1.8804
   41CHL1   C26 3027   3.980   4.377   8.315  0.4523 -0.1770  0.6578
   41CHL1  H26A 3028   3.875   4.410   8.301  0.1324 -0.9877  1.0375
   41CHL1  H26B 3029   3.994   4.315   8.407 -1.0157  0.8755  1.6134
   41CHL1  H26C 3030   4.049   4.463   8.326  0.9741 -0.6479  1.0893
   41CHL1   C27 3031   3.923   4.180   8.155 -1.1317 -0.4229  0.2242
   41CHL1  H27A 3032   3.975   4.122   8.076  0.0867  1.1573 -0.1568
   41CHL1  H27B 3033   3.877   4.120   8.237 -1.9937 -0.4257 -0.2603
   41CHL1  H27C 3034   3.838   4.230   8.104 -0.4484 -0.2426 -0.7401
   42CHL1    C3 3035   4.779   1.991   7.008  0.1314  0.2644  0.4059
   42CHL1    H3 3036   4.890   1.990   7.015  0.1308 -1.1517  0.3301
   42CHL1    O3 3037   4.756   1.994   6.871 -0.3749  0.2675 -0.0357
   42CHL1   H3' 3038   4.744   1.900   6.853  0.3430  0.2743 -0.5311
   42CHL1    C4 3039   4.712   1.871   7.077  0.8648 -0.4120 -0.0764
   42CHL1   H4A 3040   4.603   1.861   7.054  0.6310  0.3525  0.7184
   42CHL1   H4B 3041   4.774   1.787   7.039 -0.2542 -0.8992 -0.8854
   42CHL1    C5 3042   4.719   1.869   7.232  0.6856 -0.0768  0.0566
   42CHL1    C6 3043   4.764   1.761   7.299 -0.1412  0.3683  0.4142
   42CHL1    H6 3044   4.802   1.673   7.247  0.4120 -0.0235  1.4671
   42CHL1    C7 3045   4.766   1.752   7.448 -0.3024 -0.1150  0.0810
   42CHL1   H7A 3046   4.713   1.661   7.485 -1.1948 -0.2461 -1.4948
   42CHL1   H7B 3047   4.863   1.764   7.501  0.2864  1.0398 -1.2393
   42CHL1    C8 3048   4.677   1.871   7.519  0.7898 -0.0011 -0.4155
   42CHL1    H8 3049   4.576   1.833   7.491  0.0097  0.9021  1.0823
   42CHL1   C14 3050   4.699   1.880   7.669  0.2673  0.1342 -0.2326
   42CHL1   H14 3051   4.805   1.906   7.686 -0.2753  3.9828 -2.0517
   42CHL1   C15 3052   4.658   1.759   7.756 -0.1163  0.3544  0.1981
   42CHL1  H15A 3053   4.561   1.718   7.721  0.6260  0.1468 -1.6950
   42CHL1  H15B 3054   4.732   1.676   7.767 -0.4839  0.0744  0.5767
   42CHL1   C16 3055   4.647   1.826   7.900 -0.0804 -0.0354  0.3703
   42CHL1  H16A 3056   4.554   1.798   7.952  0.8538  0.1150  2.1552
   42CHL1  H16B 3057   4.732   1.792   7.963 -0.4401 -1.5247  0.0786
   42CHL1   C17 3058   4.648   1.981   7.877  0.1349  0.2742 -0.6157
   42CHL1   H17 3059   4.751   2.021   7.889 -0.3377  0.9867  1.2640
   42CHL1   C13 3060   4.620   2.000   7.727  0.7472 -0.4435 -0.0094
   42CHL1   C18 3061   4.471   1.986   7.716 -0.0186 -0.1124  0.6315
   42CHL1  H18A 3062   4.439   1.898   7.776 -1.0227 -0.0408  0.2221
   42CHL1  H18B 3063   4.430   2.083   7.753 -0.1507 -0.4710  1.4399
   42CHL1  H18C 3064   4.430   1.973   7.614 -0.2390 -0.1267  0.7191
   42CHL1   C12 3065   4.684   2.122   7.662 -0.2994 -0.6726  0.2697
   42CHL1  H12A 3066   4.647   2.213   7.715  1.3726 -1.9333  3.6973
   42CHL1  H12B 3067   4.788   2.115   7.698 -0.0016  0.9563 -0.2049
   42CHL1   C11 3068   4.653   2.123   7.515  0.5790  0.8846  0.8803
   42CHL1  H11A 3069   4.542   2.131   7.507  0.6793  0.4400 -1.2008
   42CHL1  H11B 3070   4.702   2.212   7.470  0.8667 -0.0423 -0.6792
   42CHL1    C9 3071   4.707   2.001   7.450 -0.3969  0.7405  0.8791
   42CHL1    H9 3072   4.818   2.006   7.453 -0.2516 -0.4445 -1.4901
   42CHL1   C10 3073   4.674   2.001   7.292 -0.8729  0.4619  0.1319
   42CHL1   C19 3074   4.520   2.006   7.278 -0.0804 -0.3200 -0.7601
   42CHL1  H19A 3075   4.458   2.093   7.309  0.6015  0.1717 -0.7743
   42CHL1  H19B 3076   4.479   1.977   7.179 -1.8372 -0.5213 -0.0111
   42CHL1  H19C 3077   4.489   1.926   7.349  0.2141  1.6632  1.6712
   42CHL1    C1 3078   4.742   2.124   7.223  0.7759 -0.6747  0.1255
   42CHL1   H1A 3079   4.694   2.216   7.262  2.7177 -0.1132  1.2462
   42CHL1   H1B 3080   4.853   2.128   7.236  1.1771 -0.9011 -2.8218
   42CHL1    C2 3081   4.723   2.120   7.068 -0.0076 -0.2145 -0.0488
   42CHL1   H2A 3082   4.765   2.218   7.038  2.8244 -1.1098  0.8378
   42CHL1   H2B 3083   4.613   2.123   7.051 -0.2429  2.3027  1.5874
   42CHL1   C20 3084   4.562   2.051   7.985 -0.4035 -0.8008  0.3449
   42CHL1   H20 3085   4.456   2.023   7.969 -0.4551  0.2220 -1.3254
   42CHL1   C21 3086   4.579   2.204   7.967  0.0200 -0.2511  0.3262
   42CHL1  H21A 3087   4.513   2.250   7.891  0.7748 -1.7063 -1.2453
   42CHL1  H21B 3088   4.685   2.236   7.953 -0.9650  2.8383 -0.4354
   42CHL1  H21C 3089   4.543   2.246   8.063 -2.1111  0.5079 -0.7898
   42CHL1   C22 3090   4.604   2.006   8.133  0.0980  0.1030  0.0776
   42CHL1  H22A 3091   4.604   1.895   8.141 -0.4291  0.0563 -0.6019
   42CHL1  H22B 3092   4.708   2.033   8.164 -0.3089  1.0481  0.6330
   42CHL1   C23 3093   4.507   2.055   8.245  1.0143  0.1502 -0.2325
   42CHL1  H23A 3094   4.505   2.166   8.250 -0.3502  0.0822  0.6695
   42CHL1  H23B 3095   4.405   2.014   8.234  0.0884  1.6064  2.6265
   42CHL1   C24 3096   4.558   1.993   8.378  0.7620 -0.5784  0.3431
   42CHL1  H24A 3097   4.557   1.882   8.372  0.1876 -0.4973 -1.2204
   42CHL1  H24B 3098   4.659   2.032   8.403 -0.9138  1.4123  4.6245
   42CHL1   C25 3099   4.479   2.027   8.503  0.0383  0.2925 -0.2618
   42CHL1   H25 3100   4.544   1.996   8.588 -0.5804  1.3464  0.6056
   42CHL1   C26 3101   4.461   2.176   8.524  0.4071  0.6807 -0.3146
   42CHL1  H26A 3102   4.411   2.200   8.620 -1.0660 -3.5905  0.0641
   42CHL1  H26B 3103   4.554   2.236   8.510  0.9199 -0.4538 -1.8377
   42CHL1  H26C 3104   4.380   2.213   8.456 -2.4177  0.2851  2.7080
   42CHL1   C27 3105   4.333   1.962   8.511 -0.4066  0.1619 -0.3396
   42CHL1  H27A 3106   4.275   1.986   8.602  1.6568 -1.3614  1.4522
   42CHL1  H27B 3107   4.351   1.852   8.520  1.8662  0.6765  2.2737
   42CHL1  H27C 3108   4.281   1.971   8.413 -0.2964  0.1611 -0.3981
   43CHL1    C3 3109   4.816   5.768   6.866  0.4091  0.5055 -0.8136
   43CHL1    H3 3110   4.789   5.876   6.867  0.0785  0.4188 -0.3770
   43CHL1    O3 3111   4.856   5.747   6.731  0.3640 -0.2989  0.0576
   43CHL1   H3' 3112   4.875   5.653   6.727 -2.5549 -0.8869 -0.8956
   43CHL1    C4 3113   4.935   5.748   6.969 -0.2601 -0.7279  0.0696
   43CHL1   H4A 3114   4.973   5.645   6.955  2.8338  0.7652 -3.0429
   43CHL1   H4B 3115   5.027   5.803   6.940 -1.1915  0.7063 -0.2405
   43CHL1    C5 3116   4.888   5.765   7.110  0.0062  0.5608 -0.1024
   43CHL1    C6 3117   4.938   5.862   7.183 -0.1947 -0.4540  0.0282
   43CHL1    H6 3118   5.014   5.931   7.141  0.4583  1.3661  3.9813
   43CHL1    C7 3119   4.901   5.878   7.327  0.2094 -0.2115 -0.3004
   43CHL1   H7A 3120   4.994   5.887   7.387  0.5212  0.6908 -0.9233
   43CHL1   H7B 3121   4.846   5.974   7.329 -0.0996 -0.3649 -1.1277
   43CHL1    C8 3122   4.823   5.761   7.388  0.8347 -0.2209  1.3075
   43CHL1    H8 3123   4.897   5.679   7.402  0.6280 -0.2220  2.4128
   43CHL1   C14 3124   4.764   5.789   7.527 -0.3014 -0.6052  0.1199
   43CHL1   H14 3125   4.690   5.870   7.510  0.7571  0.2256 -0.6111
   43CHL1   C15 3126   4.859   5.848   7.635 -0.2529  0.7191 -0.0985
   43CHL1  H15A 3127   4.957   5.795   7.641 -1.9190 -2.2322  2.0653
   43CHL1  H15B 3128   4.880   5.956   7.623 -2.8308  1.1351 -1.1945
   43CHL1   C16 3129   4.768   5.820   7.761  0.4510  0.3790 -1.1793
   43CHL1  H16A 3130   4.826   5.795   7.852 -1.8847 -1.3020 -0.1020
   43CHL1  H16B 3131   4.726   5.921   7.783 -0.9394 -0.7960  1.8281
   43CHL1   C17 3132   4.649   5.728   7.726  0.4885  0.2564 -0.3991
   43CHL1   H17 3133   4.565   5.801   7.716 -0.3958 -0.8132 -0.9398
   43CHL1   C13 3134   4.681   5.675   7.584 -0.4312 -0.1920  0.1952
   43CHL1   C18 3135   4.769   5.545   7.600 -0.4201  0.3414  0.2629
   43CHL1  H18A 3136   4.786   5.495   7.502  2.3075  1.1981  0.2778
   43CHL1  H18B 3137   4.866   5.575   7.645 -0.7741 -1.2870  2.2013
   43CHL1  H18C 3138   4.719   5.476   7.672 -1.3727  1.5106  0.7350
   43CHL1   C12 3139   4.572   5.642   7.494  0.3776 -0.4512  0.8783
   43CHL1  H12A 3140   4.508   5.555   7.519 -1.8949  1.2158  1.0735
   43CHL1  H12B 3141   4.508   5.732   7.504 -0.3884 -0.8075 -0.6762
   43CHL1   C11 3142   4.609   5.621   7.344 -0.3506 -0.0825  0.1874
   43CHL1  H11A 3143   4.647   5.517   7.339  1.4212  0.5765 -0.1088
   43CHL1  H11B 3144   4.518   5.628   7.280 -0.1299 -0.9867 -0.2329
   43CHL1    C9 3145   4.714   5.714   7.288 -0.0773  0.1143  0.1177
   43CHL1    H9 3146   4.660   5.812   7.282  2.3770  1.4899 -0.1264
   43CHL1   C10 3147   4.766   5.675   7.148 -0.1251 -0.0778  0.7655
   43CHL1   C19 3148   4.825   5.529   7.155 -0.3789  0.7691 -0.0838
   43CHL1  H19A 3149   4.893   5.500   7.237  1.5266 -1.5258 -2.3775
   43CHL1  H19B 3150   4.738   5.460   7.158  0.3974 -0.1278  3.3794
   43CHL1  H19C 3151   4.870   5.496   7.059  0.1410  4.0342 -1.0215
   43CHL1    C1 3152   4.655   5.690   7.041 -0.9409  0.5309 -0.1446
   43CHL1   H1A 3153   4.585   5.607   7.065 -0.4279 -0.2768 -1.3883
   43CHL1   H1B 3154   4.608   5.789   7.056  1.4911  1.6989  0.1048
   43CHL1    C2 3155   4.697   5.676   6.895 -0.1523 -0.3736  0.7529
   43CHL1   H2A 3156   4.620   5.686   6.815 -0.1438  0.5334  0.8526
   43CHL1   H2B 3157   4.732   5.573   6.876 -2.0369 -0.5112 -2.3108
   43CHL1   C20 3158   4.602   5.632   7.834 -0.0101 -0.2858 -0.4381
   43CHL1   H20 3159   4.539   5.551   7.793 -2.5826  0.7188  1.3411
   43CHL1   C21 3160   4.502   5.709   7.921 -0.0384  0.2034 -0.4193
   43CHL1  H21A 3161   4.446   5.637   7.983  0.9046  0.6134  0.9395
   43CHL1  H21B 3162   4.425   5.757   7.858 -1.9044 -2.5168 -0.2822
   43CHL1  H21C 3163   4.560   5.788   7.975 -2.4455  2.1310 -0.5849
   43CHL1   C22 3164   4.702   5.562   7.929  0.4462  0.0540 -0.8464
   43CHL1  H22A 3165   4.789   5.515   7.877 -0.9855 -0.3955 -2.9286
   43CHL1  H22B 3166   4.750   5.640   7.991  0.1260 -1.7251  1.7003
   43CHL1   C23 3167   4.636   5.449   8.010 -0.0891  0.5226  0.0643
   43CHL1  H23A 3168   4.548   5.473   8.072  0.7493  1.9554  0.7347
   43CHL1  H23B 3169   4.603   5.371   7.938 -1.6393  0.0480  1.2799
   43CHL1   C24 3170   4.724   5.388   8.119 -0.0452  0.2710 -0.2008
   43CHL1  H24A 3171   4.784   5.312   8.065  0.4802  1.4643 -1.3386
   43CHL1  H24B 3172   4.780   5.469   8.170 -1.7257  1.1057  0.3431
   43CHL1   C25 3173   4.640   5.315   8.230  0.4601 -0.0791 -0.6732
   43CHL1   H25 3174   4.712   5.244   8.276  2.2568  1.7869 -0.5228
   43CHL1   C26 3175   4.587   5.394   8.343  0.2226 -0.4458  0.5989
   43CHL1  H26A 3176   4.664   5.408   8.422  0.3438  0.1114  0.3833
   43CHL1  H26B 3177   4.561   5.498   8.315  1.3120 -0.3194  0.0360
   43CHL1  H26C 3178   4.495   5.351   8.389  0.4962  1.3098  2.9022
   43CHL1   C27 3179   4.523   5.229   8.171 -0.2568  0.0608  0.2586
   43CHL1  H27A 3180   4.475   5.162   8.245 -4.1498  2.4124  0.0033
   43CHL1  H27B 3181   4.441   5.294   8.134 -0.2161 -2.4010 -4.6323
   43CHL1  H27C 3182   4.563   5.178   8.080 -1.3971 -3.5027  1.6894
   44CHL1    C3 3183   4.509   4.152   6.653  0.0949  0.3802 -0.9924
   44CHL1    H3 3184   4.407   4.179   6.686  0.7801  1.0310  0.6526
   44CHL1    O3 3185   4.513   4.154   6.515  0.3837  0.2710  0.1360
   44CHL1   H3' 3186   4.575   4.225   6.498 -0.4151  1.5307  2.3385
   44CHL1    C4 3187   4.614   4.245   6.718 -0.3336  0.1073 -0.0520
   44CHL1   H4A 3188   4.717   4.227   6.681  0.2255  0.2185  1.4212
   44CHL1   H4B 3189   4.581   4.346   6.686 -1.6232 -0.3703 -0.2641
   44CHL1    C5 3190   4.618   4.238   6.875  0.8636  0.2091 -0.3518
   44CHL1    C6 3191   4.599   4.345   6.951  0.4440  0.2864 -0.2099
   44CHL1    H6 3192   4.592   4.444   6.904 -2.9349  0.0569 -0.2677
   44CHL1    C7 3193   4.609   4.353   7.098  0.1704 -0.3871  0.0080
   44CHL1   H7A 3194   4.675   4.437   7.131 -0.0446 -0.8796  1.7206
   44CHL1   H7B 3195   4.512   4.361   7.150  0.3802  0.6543  0.2606
   44CHL1    C8 3196   4.677   4.225   7.151  0.3056  0.4567  0.6400
   44CHL1    H8 3197   4.783   4.237   7.120 -0.0090 -0.1825 -0.7302
   44CHL1   C14 3198   4.664   4.226   7.302  0.3905 -0.0133 -0.2473
   44CHL1   H14 3199   4.557   4.218   7.333 -0.1236  1.4464 -1.5838
   44CHL1   C15 3200   4.724   4.351   7.374 -0.2400 -0.5519 -0.5464
   44CHL1  H15A 3201   4.808   4.400   7.320  0.4762 -0.7572  0.3769
   44CHL1  H15B 3202   4.643   4.427   7.368 -0.3868 -0.8894 -3.3476
   44CHL1   C16 3203   4.750   4.308   7.514 -0.8836  0.1206 -1.1115
   44CHL1  H16A 3204   4.857   4.314   7.541 -0.5009 -3.9608 -1.4391
   44CHL1  H16B 3205   4.686   4.353   7.593  0.4303 -1.6701  1.0037
   44CHL1   C17 3206   4.716   4.156   7.515 -0.2833  0.1013 -0.5218
   44CHL1   H17 3207   4.606   4.152   7.532 -0.0151 -1.0494  1.0808
   44CHL1   C13 3208   4.734   4.110   7.367  0.0823 -0.5054 -0.0180
   44CHL1   C18 3209   4.885   4.105   7.325 -0.2646  0.8647  0.6203
   44CHL1  H18A 3210   4.946   4.030   7.380 -2.3839  0.2214  2.1371
   44CHL1  H18B 3211   4.892   4.085   7.216 -3.2622 -0.0337  0.5403
   44CHL1  H18C 3212   4.931   4.203   7.350 -1.8731  2.4296 -2.2501
   44CHL1   C12 3213   4.669   3.976   7.327  0.2639  0.7929  0.8611
   44CHL1  H12A 3214   4.716   3.887   7.375  2.8698  2.3868  1.3744
   44CHL1  H12B 3215   4.569   3.959   7.371  0.3062 -0.1047  0.6237
   44CHL1   C11 3216   4.664   3.961   7.174 -0.2957  0.0062 -0.4560
   44CHL1  H11A 3217   4.766   3.927   7.144 -0.2398 -0.0938 -0.1566
   44CHL1  H11B 3218   4.594   3.883   7.138  0.9709  0.1417 -3.3165
   44CHL1    C9 3219   4.628   4.098   7.092 -0.4044  0.7604  0.6453
   44CHL1    H9 3220   4.517   4.105   7.104 -0.8060 -0.0062 -2.1362
   44CHL1   C10 3221   4.647   4.090   6.937  0.1856 -0.0825  0.0821
   44CHL1   C19 3222   4.789   4.053   6.900 -0.6708  0.7117  0.6091
   44CHL1  H19A 3223   4.816   4.073   6.794  0.4292 -2.0104  0.3306
   44CHL1  H19B 3224   4.856   4.121   6.957  1.7094 -1.1955  0.1949
   44CHL1  H19C 3225   4.809   3.945   6.914  1.5412  1.0212  0.1180
   44CHL1    C1 3226   4.542   3.997   6.869 -1.0935  0.4574 -0.7322
   44CHL1   H1A 3227   4.552   3.892   6.902 -0.3915  0.3119 -1.4050
   44CHL1   H1B 3228   4.439   4.028   6.899 -1.4151 -1.0049 -0.2877
   44CHL1    C2 3229   4.529   4.007   6.711 -0.0318 -0.3050  0.1680
   44CHL1   H2A 3230   4.446   3.944   6.673 -0.8466 -0.4676  2.1348
   44CHL1   H2B 3231   4.621   3.971   6.661 -1.0616 -1.8311 -0.6752
   44CHL1   C20 3232   4.784   4.082   7.630  0.0024  0.7685 -0.4816
   44CHL1   H20 3233   4.892   4.086   7.605 -0.6063  3.5243 -3.0285
   44CHL1   C21 3234   4.733   3.935   7.640  0.1176  0.2648 -0.1655
   44CHL1  H21A 3235   4.779   3.867   7.564 -1.0826 -1.3423  0.5148
   44CHL1  H21B 3236   4.623   3.923   7.633  0.2581 -1.1688 -0.1654
   44CHL1  H21C 3237   4.773   3.893   7.734  0.0382  0.2876 -0.1212
   44CHL1   C22 3238   4.761   4.153   7.771 -0.0594 -0.3572  0.2446
   44CHL1  H22A 3239   4.810   4.078   7.837 -0.1505 -2.1410 -1.6524
   44CHL1  H22B 3240   4.805   4.255   7.769 -2.9833  0.9350 -1.1465
   44CHL1   C23 3241   4.613   4.156   7.811  0.1559  0.6558  0.1319
   44CHL1  H23A 3242   4.543   4.209   7.741 -1.8104 -2.6568 -0.5243
   44CHL1  H23B 3243   4.582   4.050   7.820 -0.4373  0.8031 -0.0809
   44CHL1   C24 3244   4.595   4.225   7.949  0.1873  0.3957 -0.0844
   44CHL1  H24A 3245   4.664   4.192   8.029 -2.0571  0.5580  1.9750
   44CHL1  H24B 3246   4.611   4.332   7.922 -1.6494  0.2675 -1.7655
   44CHL1   C25 3247   4.454   4.196   8.006 -0.3254  0.4149 -0.4272
   44CHL1   H25 3248   4.471   4.097   8.053 -0.6887  1.1594  1.3186
   44CHL1   C26 3249   4.412   4.294   8.119 -0.3817  0.3433 -0.1755
   44CHL1  H26A 3250   4.497   4.311   8.189 -1.0736  2.4847  0.1901
   44CHL1  H26B 3251   4.389   4.392   8.073 -0.0116  0.9170  0.8204
   44CHL1  H26C 3252   4.327   4.258   8.181 -0.7091 -0.0309 -0.8417
   44CHL1   C27 3253   4.345   4.185   7.898 -0.2307 -0.2020 -0.0743
   44CHL1  H27A 3254   4.363   4.094   7.836 -2.4223 -1.1473  0.6542
   44CHL1  H27B 3255   4.248   4.172   7.950  0.1088  2.1140  1.1981
   44CHL1  H27C 3256   4.338   4.278   7.837  0.5868  0.1132  0.2934
   45CHL1    C3 3257   5.976   2.538   6.821 -1.1014 -0.7104  0.4791
   45CHL1    H3 3258   5.996   2.430   6.813 -0.7736 -0.5176 -1.4519
   45CHL1    O3 3259   5.988   2.604   6.696 -0.4233  0.3200 -0.5471
   45CHL1   H3' 3260   5.977   2.697   6.715  1.2000  0.5173 -0.5378
   45CHL1    C4 3261   5.829   2.543   6.870  0.3330  0.1869  0.9487
   45CHL1   H4A 3262   5.790   2.646   6.855 -0.1074 -0.4001 -2.1401
   45CHL1   H4B 3263   5.774   2.491   6.790  1.9609  0.2698 -0.2347
   45CHL1    C5 3264   5.793   2.491   7.007  0.0129 -0.0927 -0.7635
   45CHL1    C6 3265   5.705   2.395   7.023  0.0863 -0.5100  0.5626
   45CHL1    H6 3266   5.643   2.359   6.940  1.7884  0.3201 -1.1075
   45CHL1    C7 3267   5.677   2.346   7.152  0.1917 -0.4353 -0.1273
   45CHL1   H7A 3268   5.572   2.311   7.155 -0.2321  0.5544 -2.7939
   45CHL1   H7B 3269   5.737   2.258   7.186 -1.6238 -1.4905  0.4047
   45CHL1    C8 3270   5.717   2.440   7.265 -0.2128 -0.5938  0.4291
   45CHL1    H8 3271   5.651   2.529   7.258  0.3229 -0.3912 -2.5548
   45CHL1   C14 3272   5.697   2.374   7.404  0.6256 -0.2498  0.0796
   45CHL1   H14 3273   5.769   2.289   7.404  1.1088  0.1505 -0.8617
   45CHL1   C15 3274   5.555   2.332   7.444 -0.5106 -0.5189 -0.2764
   45CHL1  H15A 3275   5.482   2.404   7.400  0.2473  0.5534  0.2266
   45CHL1  H15B 3276   5.537   2.228   7.408  3.9852 -1.3291 -0.4286
   45CHL1   C16 3277   5.551   2.327   7.597  0.1338 -0.2066  0.0064
   45CHL1  H16A 3278   5.483   2.406   7.636  0.3044 -0.3004  0.4905
   45CHL1  H16B 3279   5.517   2.230   7.639 -1.4655 -0.2255 -1.2323
   45CHL1   C17 3280   5.694   2.359   7.647  0.1518  0.5737  0.6811
   45CHL1   H17 3281   5.747   2.262   7.646 -2.4656 -0.9204  1.9684
   45CHL1   C13 3282   5.747   2.453   7.527  0.4248  0.0051 -0.1776
   45CHL1   C18 3283   5.670   2.584   7.529 -0.1869  0.0447  0.5297
   45CHL1  H18A 3284   5.698   2.650   7.444 -1.6160  0.3777  0.3002
   45CHL1  H18B 3285   5.560   2.573   7.541 -0.6336  1.7721 -1.7212
   45CHL1  H18C 3286   5.691   2.639   7.623 -0.7671 -0.8868  1.2145
   45CHL1   C12 3287   5.895   2.469   7.513  0.1127 -0.7577 -0.4710
   45CHL1  H12A 3288   5.933   2.534   7.595  0.6609 -0.9867 -0.5401
   45CHL1  H12B 3289   5.945   2.370   7.525 -0.3298 -1.1327 -1.7456
   45CHL1   C11 3290   5.926   2.546   7.381 -0.6505 -0.2344 -0.1362
   45CHL1  H11A 3291   5.896   2.652   7.390 -2.4225 -0.7470  0.1090
   45CHL1  H11B 3292   6.034   2.530   7.359 -0.4019  0.0144  0.8966
   45CHL1    C9 3293   5.864   2.481   7.254 -0.0450  0.2495  0.6203
   45CHL1    H9 3294   5.912   2.382   7.249 -0.4649 -0.0717  2.4528
   45CHL1   C10 3295   5.887   2.548   7.120  0.3674 -0.4841  0.4953
   45CHL1   C19 3296   5.842   2.699   7.143  1.2386  0.2488  0.1739
   45CHL1  H19A 3297   5.851   2.749   7.044  0.6310  0.8316  0.4026
   45CHL1  H19B 3298   5.735   2.700   7.172  1.0574 -1.4158 -0.4141
   45CHL1  H19C 3299   5.907   2.754   7.214  0.5219  1.9223 -0.4308
   45CHL1    C1 3300   6.039   2.552   7.071  0.4422 -0.0862 -0.0412
   45CHL1   H1A 3301   6.100   2.602   7.149 -0.7049 -0.6850  1.2695
   45CHL1   H1B 3302   6.061   2.445   7.090  0.8705  0.2446  1.4117
   45CHL1    C2 3303   6.070   2.600   6.933  0.8741 -0.1076  0.4140
   45CHL1   H2A 3304   6.174   2.577   6.899  0.5136  1.1317 -1.6027
   45CHL1   H2B 3305   6.059   2.710   6.921 -2.0320 -0.3442  0.7768
   45CHL1   C20 3306   5.697   2.416   7.793  0.3983 -0.1467  0.2624
   45CHL1   H20 3307   5.676   2.525   7.794  2.4306  0.3084 -1.7798
   45CHL1   C21 3308   5.839   2.388   7.844  0.0506  0.4661  0.0414
   45CHL1  H21A 3309   5.867   2.432   7.942  1.5479 -0.6709  0.1363
   45CHL1  H21B 3310   5.910   2.417   7.764 -1.3299 -0.0901 -1.4070
   45CHL1  H21C 3311   5.850   2.279   7.866  1.6041  0.6624  0.3039
   45CHL1   C22 3312   5.603   2.352   7.897 -0.3778 -0.0482  0.9012
   45CHL1  H22A 3313   5.497   2.356   7.863  0.0499  0.5514 -0.4127
   45CHL1  H22B 3314   5.627   2.244   7.906  0.2446 -0.0883 -0.9343
   45CHL1   C23 3315   5.603   2.430   8.032 -0.0812 -0.4629 -0.1812
   45CHL1  H23A 3316   5.700   2.458   8.077 -0.9339  0.3507  1.1828
   45CHL1  H23B 3317   5.558   2.525   7.995 -0.0353 -0.7151 -0.8991
   45CHL1   C24 3318   5.517   2.364   8.138 -0.4622  0.3993  0.2057
   45CHL1  H24A 3319   5.527   2.440   8.219  0.1036  0.3126  0.2227
   45CHL1  H24B 3320   5.409   2.363   8.114 -1.0188  0.7141  2.6106
   45CHL1   C25 3321   5.559   2.231   8.193  0.1262 -0.1189 -0.1753
   45CHL1   H25 3322   5.531   2.157   8.115  0.3318 -0.7012  0.3040
   45CHL1   C26 3323   5.708   2.219   8.215  0.0704 -0.0446  0.1862
   45CHL1  H26A 3324   5.779   2.241   8.133 -0.7786  0.0385 -0.5345
   45CHL1  H26B 3325   5.746   2.280   8.299  1.0099  1.1891 -1.1118
   45CHL1  H26C 3326   5.735   2.117   8.250  2.4827  1.4876  3.0354
   45CHL1   C27 3327   5.482   2.203   8.327  0.1551 -0.1886  0.9131
   45CHL1  H27A 3328   5.494   2.290   8.396  1.6839 -0.4800  1.0183
   45CHL1  H27B 3329   5.378   2.165   8.318  0.3279  0.1310 -3.0108
   45CHL1  H27C 3330   5.541   2.126   8.381  1.5658  0.1111 -0.1656
   46CHL1    C3 3331   5.515   3.952   6.963  0.1270 -0.1268  0.6266
   46CHL1    H3 3332   5.432   4.024   6.976  1.0562  1.0563  0.1096
   46CHL1    O3 3333   5.557   3.960   6.822 -0.0168  0.5072  0.0067
   46CHL1   H3' 3334   5.634   3.903   6.810 -1.6052 -1.6625 -0.0535
   46CHL1    C4 3335   5.626   4.001   7.061  0.0747  0.0232 -0.7985
   46CHL1   H4A 3336   5.710   3.930   7.043 -1.0399 -1.1958 -1.3038
   46CHL1   H4B 3337   5.658   4.103   7.034 -0.7137  0.9248  1.5239
   46CHL1    C5 3338   5.598   3.987   7.214 -0.0260  0.5698  0.4217
   46CHL1    C6 3339   5.622   4.088   7.301 -0.7458  0.5379  0.5018
   46CHL1    H6 3340   5.668   4.175   7.252 -2.7126 -0.1936 -2.8665
   46CHL1    C7 3341   5.601   4.081   7.450 -1.0564  0.0527  0.8347
   46CHL1   H7A 3342   5.685   4.121   7.511 -0.3247 -0.8672  0.4323
   46CHL1   H7B 3343   5.506   4.133   7.477 -0.9745 -0.0045  1.2484
   46CHL1    C8 3344   5.574   3.935   7.491  0.2130  0.4228 -0.6406
   46CHL1    H8 3345   5.672   3.882   7.500  0.2299  0.1208 -2.4221
   46CHL1   C14 3346   5.514   3.938   7.630 -0.3920  0.1812 -0.4053
   46CHL1   H14 3347   5.412   3.977   7.610 -0.5813  0.7591  1.5921
   46CHL1   C15 3348   5.570   4.019   7.744 -0.5049 -0.3675 -0.0566
   46CHL1  H15A 3349   5.680   4.005   7.742 -0.2096  1.6701  0.0186
   46CHL1  H15B 3350   5.562   4.129   7.728  0.4944 -0.0643  1.3896
   46CHL1   C16 3351   5.515   3.961   7.873  0.1550  0.1152 -0.2659
   46CHL1  H16A 3352   5.602   3.927   7.933 -1.1004 -0.8874  1.0506
   46CHL1  H16B 3353   5.451   4.034   7.927 -1.3513 -1.9041  0.7890
   46CHL1   C17 3354   5.421   3.845   7.820  0.9706 -0.1600 -0.0058
   46CHL1   H17 3355   5.331   3.903   7.791  1.7470 -0.5186 -3.4300
   46CHL1   C13 3356   5.477   3.805   7.685 -0.2015 -0.8299  0.1490
   46CHL1   C18 3357   5.610   3.723   7.700 -0.0152 -0.5400 -0.3692
   46CHL1  H18A 3358   5.684   3.776   7.764 -0.9270 -0.1056  0.3294
   46CHL1  H18B 3359   5.585   3.627   7.750  4.5760 -2.3772 -1.3230
   46CHL1  H18C 3360   5.667   3.708   7.606  2.1365 -0.5498  0.8906
   46CHL1   C12 3361   5.374   3.737   7.587  0.6586 -0.2993 -0.0615
   46CHL1  H12A 3362   5.356   3.639   7.636 -1.8971  0.3319  0.3694
   46CHL1  H12B 3363   5.279   3.796   7.584 -0.3894 -1.9772 -0.9430
   46CHL1   C11 3364   5.441   3.716   7.447  0.7956 -0.0319 -0.4115
   46CHL1  H11A 3365   5.525   3.648   7.468 -0.1499 -0.9640  0.4148
   46CHL1  H11B 3366   5.364   3.666   7.383 -0.6251  0.6212  0.7573
   46CHL1    C9 3367   5.491   3.851   7.393  0.1766 -0.0853  0.0005
   46CHL1    H9 3368   5.404   3.919   7.389 -0.3828 -0.5670  2.8924
   46CHL1   C10 3369   5.547   3.850   7.254 -0.1554  0.3354  0.6844
   46CHL1   C19 3370   5.659   3.734   7.244  0.2476  0.5984 -0.5143
   46CHL1  H19A 3371   5.726   3.745   7.156  2.5987 -0.3588  1.1073
   46CHL1  H19B 3372   5.736   3.745   7.324 -3.2846  0.8826  2.9972
   46CHL1  H19C 3373   5.610   3.635   7.252  1.6665  0.1143  2.8630
   46CHL1    C1 3374   5.434   3.809   7.159  0.1041 -0.4234 -0.3507
   46CHL1   H1A 3375   5.403   3.706   7.187 -1.3980 -0.1975 -1.1463
   46CHL1   H1B 3376   5.344   3.872   7.169  1.3675  1.9836 -3.3287
   46CHL1    C2 3377   5.474   3.817   7.003 -0.4818 -0.9565  0.6978
   46CHL1   H2A 3378   5.384   3.791   6.944 -0.2117  0.3291 -0.3096
   46CHL1   H2B 3379   5.560   3.751   6.982 -2.0377 -2.1769 -2.0534
   46CHL1   C20 3380   5.391   3.743   7.923  0.3308  0.0307  0.2568
   46CHL1   H20 3381   5.455   3.653   7.921  1.1273  0.5950 -0.4327
   46CHL1   C21 3382   5.243   3.708   7.899 -0.1983  0.0288 -1.1344
   46CHL1  H21A 3383   5.236   3.671   7.795  2.7881  1.6689 -1.9545
   46CHL1  H21B 3384   5.181   3.797   7.923  0.2885  0.1662 -0.3548
   46CHL1  H21C 3385   5.209   3.620   7.958  1.8735 -1.4241 -2.0623
   46CHL1   C22 3386   5.403   3.794   8.067  1.3922  0.9796  0.3323
   46CHL1  H22A 3387   5.511   3.803   8.092  1.1961  0.4378  1.4085
   46CHL1  H22B 3388   5.367   3.899   8.065 -1.0238  0.1875  0.6834
   46CHL1   C23 3389   5.318   3.719   8.172  0.6481 -0.0704 -0.0464
   46CHL1  H23A 3390   5.211   3.745   8.166  0.0477 -2.4708 -0.4542
   46CHL1  H23B 3391   5.327   3.609   8.154  0.0829 -0.1932  0.4149
   46CHL1   C24 3392   5.377   3.744   8.314  0.3580 -0.3133 -0.2489
   46CHL1  H24A 3393   5.487   3.752   8.301  0.6232 -0.7222  1.5910
   46CHL1  H24B 3394   5.341   3.840   8.358 -2.2605 -1.4925  0.2540
   46CHL1   C25 3395   5.352   3.636   8.410  0.4674 -0.7687  0.0625
   46CHL1   H25 3396   5.386   3.542   8.360  0.8723 -1.2098  1.1497
   46CHL1   C26 3397   5.432   3.661   8.535  0.4687  0.3281 -0.1768
   46CHL1  H26A 3398   5.400   3.597   8.620 -0.7079 -1.6876 -2.0878
   46CHL1  H26B 3399   5.541   3.641   8.522  0.4989  1.5179 -2.0071
   46CHL1  H26C 3400   5.413   3.764   8.570  1.7857  0.0239  1.4646
   46CHL1   C27 3401   5.206   3.630   8.447 -0.0260 -0.5966 -0.3362
   46CHL1  H27A 3402   5.193   3.543   8.514  2.3582 -0.1402  0.7943
   46CHL1  H27B 3403   5.169   3.717   8.506 -0.1512 -0.4827 -0.5820
   46CHL1  H27C 3404   5.143   3.606   8.360 -1.1366 -0.7594  0.4979
   47CHL1    C3 3405   4.837   3.695   6.578 -0.1450 -0.1344 -0.5445
   47CHL1    H3 3406   4.800   3.800   6.578 -1.7416 -0.6844 -0.8192
   47CHL1    O3 3407   4.845   3.642   6.444 -0.0556  0.0624 -0.3666
   47CHL1   H3' 3408   4.934   3.662   6.413 -1.0675  0.5780 -3.1161
   47CHL1    C4 3409   4.971   3.689   6.651  0.0278  0.4973 -0.3650
   47CHL1   H4A 3410   5.016   3.591   6.625  0.9620  1.0248 -0.7590
   47CHL1   H4B 3411   5.042   3.767   6.615 -2.0113  2.2578 -0.6923
   47CHL1    C5 3412   4.978   3.683   6.801  0.0718 -0.1501  0.0095
   47CHL1    C6 3413   5.045   3.773   6.875  0.4329  0.7513  0.2801
   47CHL1    H6 3414   5.104   3.848   6.820  0.3470 -1.3959 -2.8742
   47CHL1    C7 3415   5.056   3.775   7.025 -0.0880  0.1348 -0.0578
   47CHL1   H7A 3416   5.160   3.786   7.063 -0.3549 -0.6386  0.9072
   47CHL1   H7B 3417   5.006   3.865   7.067 -2.1500  0.0685 -2.2518
   47CHL1    C8 3418   4.990   3.649   7.093  0.0228  1.1149  0.7813
   47CHL1    H8 3419   5.059   3.562   7.087  0.6099  1.4229  2.7238
   47CHL1   C14 3420   4.964   3.663   7.240 -0.0492  0.4922 -0.0939
   47CHL1   H14 3421   4.899   3.753   7.245 -1.6163 -0.5787 -0.9804
   47CHL1   C15 3422   5.089   3.701   7.318 -0.2144  0.4295 -0.9505
   47CHL1  H15A 3423   5.165   3.624   7.292 -0.4298  0.3123 -1.2418
   47CHL1  H15B 3424   5.134   3.802   7.317 -2.1782  1.3252 -1.0709
   47CHL1   C16 3425   5.046   3.660   7.459  0.1089  0.0668 -0.1536
   47CHL1  H16A 3426   5.106   3.576   7.501  0.7582  0.8273  0.4591
   47CHL1  H16B 3427   5.048   3.738   7.539  1.6793 -1.0700  0.9473
   47CHL1   C17 3428   4.896   3.609   7.458  0.0429  1.0111  0.1702
   47CHL1   H17 3429   4.851   3.710   7.458  2.2725  2.0605 -2.0933
   47CHL1   C13 3430   4.883   3.555   7.314 -0.0570  0.7461 -0.3600
   47CHL1   C18 3431   4.953   3.414   7.303 -0.5418 -0.4082 -1.1028
   47CHL1  H18A 3432   4.881   3.344   7.350 -0.1538  0.7165  1.2377
   47CHL1  H18B 3433   4.974   3.388   7.197  1.6001  0.3663 -0.9009
   47CHL1  H18C 3434   5.044   3.408   7.367 -1.7064 -0.2835  0.5824
   47CHL1   C12 3435   4.747   3.562   7.242  0.7166  0.4277 -0.0142
   47CHL1  H12A 3436   4.679   3.489   7.291 -0.2308  1.3333  0.0183
   47CHL1  H12B 3437   4.702   3.663   7.248 -0.5169 -0.1244  0.1415
   47CHL1   C11 3438   4.754   3.526   7.097 -0.1781  0.1635 -0.3236
   47CHL1  H11A 3439   4.782   3.419   7.085 -0.7990  0.0141 -0.4124
   47CHL1  H11B 3440   4.651   3.546   7.062 -0.3326 -1.5230 -0.9105
   47CHL1    C9 3441   4.861   3.610   7.020  0.2410 -0.0555  0.3918
   47CHL1    H9 3442   4.802   3.704   7.017 -0.9881 -0.8129  0.5188
   47CHL1   C10 3443   4.877   3.585   6.869  0.2337 -0.4905 -0.2788
   47CHL1   C19 3444   4.921   3.439   6.846  0.4674 -0.3762  0.2013
   47CHL1  H19A 3445   4.841   3.369   6.879  0.6886 -1.5454 -1.6701
   47CHL1  H19B 3446   4.932   3.420   6.737 -0.5654  0.1746 -0.0117
   47CHL1  H19C 3447   5.019   3.417   6.893  1.6184  2.0084 -1.0012
   47CHL1    C1 3448   4.738   3.617   6.805 -0.1583  0.1604 -0.4102
   47CHL1   H1A 3449   4.653   3.557   6.842  0.6080  0.0320  1.1843
   47CHL1   H1B 3450   4.707   3.723   6.821  0.2013  0.4575 -1.5963
   47CHL1    C2 3451   4.735   3.606   6.652  0.1585 -0.3065  0.4904
   47CHL1   H2A 3452   4.636   3.645   6.621  1.6280  1.2393 -2.4282
   47CHL1   H2B 3453   4.747   3.501   6.619  1.1034 -0.4413  1.2476
   47CHL1   C20 3454   4.852   3.517   7.567  0.0300  0.5317  0.4008
   47CHL1   H20 3455   4.893   3.415   7.553  1.5998  1.3260 -0.9459
   47CHL1   C21 3456   4.695   3.512   7.582  0.0242  0.0045 -0.2901
   47CHL1  H21A 3457   4.661   3.428   7.646 -2.1159  1.6253  0.7740
   47CHL1  H21B 3458   4.643   3.482   7.488 -3.8932 -0.1961  1.8510
   47CHL1  H21C 3459   4.652   3.610   7.611 -0.3098 -0.2448  0.0611
   47CHL1   C22 3460   4.899   3.556   7.716  0.1745  0.0606  0.9210
   47CHL1  H22A 3461   5.010   3.552   7.708  0.2728  3.0121  0.0464
   47CHL1  H22B 3462   4.878   3.665   7.718  1.4648  0.3190  0.8094
   47CHL1   C23 3463   4.844   3.480   7.843  0.7814  0.8015 -0.2811
   47CHL1  H23A 3464   4.737   3.508   7.845  0.2414 -1.1827 -0.3710
   47CHL1  H23B 3465   4.859   3.371   7.827  0.4601  0.9476 -1.7273
   47CHL1   C24 3466   4.909   3.529   7.975 -0.3694  0.3094  0.2683
   47CHL1  H24A 3467   5.019   3.546   7.964 -0.3423  1.9516  2.5849
   47CHL1  H24B 3468   4.867   3.628   8.002  0.2802  0.2552  1.5575
   47CHL1   C25 3469   4.875   3.431   8.093 -0.3422 -0.3891  0.3951
   47CHL1   H25 3470   4.929   3.337   8.071 -0.6742 -0.5834  0.4058
   47CHL1   C26 3471   4.916   3.505   8.222  0.5658 -0.1893 -0.1339
   47CHL1  H26A 3472   4.872   3.607   8.229  1.1655  0.0897 -0.4107
   47CHL1  H26B 3473   4.875   3.464   8.317 -2.1132  3.0762  0.2279
   47CHL1  H26C 3474   5.025   3.526   8.228  0.2668  2.4739 -2.6025
   47CHL1   C27 3475   4.725   3.395   8.100 -0.3348  0.1531 -0.5611
   47CHL1  H27A 3476   4.658   3.479   8.075  1.0031  0.9370 -1.6074
   47CHL1  H27B 3477   4.712   3.306   8.035  1.6132 -0.5132 -0.0975
   47CHL1  H27C 3478   4.706   3.363   8.205  1.3408 -0.2891 -0.3607
   48CHL1    C3 3479   1.539   6.471   6.299 -0.2048  0.3792 -0.0372
   48CHL1    H3 3480   1.603   6.382   6.319  1.5333  1.7471  0.5635
   48CHL1    O3 3481   1.529   6.498   6.160  0.3400 -0.2792 -0.0112
   48CHL1   H3' 3482   1.480   6.580   6.169  1.9570  0.6776  0.1109
   48CHL1    C4 3483   1.401   6.438   6.371  0.2382  0.2545 -0.3540
   48CHL1   H4A 3484   1.338   6.527   6.352 -0.1096 -0.0121 -0.4461
   48CHL1   H4B 3485   1.363   6.344   6.326 -0.2769  1.3502 -2.2352
   48CHL1    C5 3486   1.422   6.424   6.522 -0.7039 -0.0569  0.4667
   48CHL1    C6 3487   1.364   6.324   6.582  0.8264  1.2657 -0.0262
   48CHL1    H6 3488   1.304   6.252   6.524 -0.4376  0.7177  1.8790
   48CHL1    C7 3489   1.361   6.302   6.732  0.2086  0.2628  0.4394
   48CHL1   H7A 3490   1.263   6.268   6.771  0.6541  0.1004  1.4329
   48CHL1   H7B 3491   1.432   6.222   6.763  1.2761  0.0901 -2.3049
   48CHL1    C8 3492   1.406   6.429   6.808  0.2753  0.3493 -0.2046
   48CHL1    H8 3493   1.321   6.501   6.803 -1.2148 -1.1981  2.1363
   48CHL1   C14 3494   1.433   6.390   6.951 -1.0781 -0.4841 -0.5011
   48CHL1   H14 3495   1.524   6.327   6.948  0.3815  1.5493  0.1037
   48CHL1   C15 3496   1.327   6.302   7.033  0.0853  0.1636 -0.5866
   48CHL1  H15A 3497   1.221   6.334   7.029 -0.2024 -0.3407  2.0258
   48CHL1  H15B 3498   1.341   6.199   6.995 -1.0306 -0.3975  0.4926
   48CHL1   C16 3499   1.380   6.323   7.175  0.1135 -0.3054 -0.1075
   48CHL1  H16A 3500   1.307   6.372   7.243  0.6605 -0.1845  0.3990
   48CHL1  H16B 3501   1.407   6.224   7.218  1.6263  0.0162 -0.2822
   48CHL1   C17 3502   1.512   6.417   7.175 -1.0480  0.2390 -0.4626
   48CHL1   H17 3503   1.600   6.348   7.164 -0.5529  0.9061 -0.7074
   48CHL1   C13 3504   1.495   6.503   7.045 -0.0431 -0.8967  0.1578
   48CHL1   C18 3505   1.394   6.624   7.059  0.6484  0.3285 -0.3377
   48CHL1  H18A 3506   1.457   6.709   7.094 -0.4734  0.9767  0.1295
   48CHL1  H18B 3507   1.346   6.646   6.961  1.0292  1.1158 -0.3547
   48CHL1  H18C 3508   1.316   6.602   7.134  0.7115 -1.6427 -0.8371
   48CHL1   C12 3509   1.631   6.552   6.979  0.2133  0.4166  0.1342
   48CHL1  H12A 3510   1.682   6.640   7.025  0.9258 -0.7492  1.6071
   48CHL1  H12B 3511   1.707   6.473   6.992  2.2302  2.3047  0.0478
   48CHL1   C11 3512   1.601   6.598   6.828  0.1336 -0.0606 -0.9201
   48CHL1  H11A 3513   1.540   6.690   6.839  0.1280 -0.0868 -0.7341
   48CHL1  H11B 3514   1.689   6.635   6.771 -1.3472  1.3698 -2.3304
   48CHL1    C9 3515   1.535   6.486   6.744 -0.1093 -0.2306 -0.2226
   48CHL1    H9 3516   1.615   6.410   6.749  0.0606 -0.0222  0.3403
   48CHL1   C10 3517   1.499   6.529   6.596 -0.2468  0.9712 -0.1329
   48CHL1   C19 3518   1.405   6.648   6.598  0.1024  0.2984  0.9154
   48CHL1  H19A 3519   1.309   6.630   6.650 -0.5319 -0.3947 -0.4557
   48CHL1  H19B 3520   1.453   6.737   6.643 -0.6568  0.8878  0.5810
   48CHL1  H19C 3521   1.397   6.684   6.493 -3.9642  0.9577  1.3759
   48CHL1    C1 3522   1.625   6.566   6.517 -0.0781 -0.1588  0.9658
   48CHL1   H1A 3523   1.673   6.651   6.570  0.2585  0.8621 -0.9521
   48CHL1   H1B 3524   1.695   6.481   6.532 -1.9662 -2.0702 -0.6977
   48CHL1    C2 3525   1.608   6.590   6.365  0.5489  0.2980  0.0246
   48CHL1   H2A 3526   1.710   6.601   6.324  0.8357 -4.0067 -0.6821
   48CHL1   H2B 3527   1.559   6.688   6.350  2.7487  1.4654  0.3553
   48CHL1   C20 3528   1.536   6.495   7.309  0.3604 -0.2196  0.3049
   48CHL1   H20 3529   1.450   6.562   7.334 -0.3918 -1.4869  1.1835
   48CHL1   C21 3530   1.666   6.579   7.310 -0.1461  0.1726  0.1402
   48CHL1  H21A 3531   1.644   6.659   7.237 -1.5503 -0.1782  0.1746
   48CHL1  H21B 3532   1.745   6.502   7.295  0.6646  0.6645  1.7316
   48CHL1  H21C 3533   1.690   6.629   7.407  2.0890 -0.0191 -0.2804
   48CHL1   C22 3534   1.540   6.404   7.436  0.1048 -0.5270  0.0060
   48CHL1  H22A 3535   1.455   6.333   7.430  0.0776 -0.4068 -1.0569
   48CHL1  H22B 3536   1.641   6.358   7.436  0.6610  0.4670  4.5741
   48CHL1   C23 3537   1.535   6.490   7.570 -0.5608 -0.6668 -0.2250
   48CHL1  H23A 3538   1.636   6.537   7.577  0.2248 -2.4123  0.6638
   48CHL1  H23B 3539   1.443   6.553   7.566  0.7996  1.4846  1.0960
   48CHL1   C24 3540   1.534   6.392   7.690  0.3034 -0.9662  0.2746
   48CHL1  H24A 3541   1.433   6.358   7.725 -1.1520 -0.8505 -3.6164
   48CHL1  H24B 3542   1.600   6.306   7.667  0.5491 -0.8075  0.3844
   48CHL1   C25 3543   1.596   6.446   7.824 -0.0597 -0.3356  0.3958
   48CHL1   H25 3544   1.702   6.474   7.805  0.2809 -1.7779  0.1085
   48CHL1   C26 3545   1.521   6.577   7.861  0.1943 -0.8281  0.2687
   48CHL1  H26A 3546   1.414   6.550   7.876 -0.0621 -0.2851 -0.5894
   48CHL1  H26B 3547   1.552   6.611   7.962 -0.8077  0.5833  0.1179
   48CHL1  H26C 3548   1.524   6.665   7.794 -1.8794 -1.5488 -0.8231
   48CHL1   C27 3549   1.581   6.341   7.935 -0.1074  0.0078 -0.5086
   48CHL1  H27A 3550   1.474   6.329   7.962  0.4054 -0.9984  1.1420
   48CHL1  H27B 3551   1.606   6.236   7.910 -0.6690 -0.1482 -0.4207
   48CHL1  H27C 3552   1.628   6.379   8.028 -0.1210  1.2732 -1.0054
   49CHL1    C3 3553   0.637   0.657   6.645  0.0678 -0.3454 -0.1517
   49CHL1    H3 3554   0.710   0.735   6.677 -0.8796  0.0596  1.0506
   49CHL1    O3 3555   0.638   0.646   6.505  0.7682  0.1705 -0.5936
   49CHL1   H3' 3556   0.549   0.646   6.468  0.9456  0.9204 -1.0387
   49CHL1    C4 3557   0.662   0.520   6.713 -0.3920 -0.1355 -0.6951
   49CHL1   H4A 3558   0.584   0.457   6.665  0.1622 -0.1410 -1.6111
   49CHL1   H4B 3559   0.762   0.481   6.686 -0.5470  1.6040 -4.0728
   49CHL1    C5 3560   0.652   0.525   6.867  0.6940 -0.4029 -0.4845
   49CHL1    C6 3561   0.751   0.479   6.944  0.0100  0.1001  0.0205
   49CHL1    H6 3562   0.847   0.442   6.908  0.2296  2.1551 -1.6030
   49CHL1    C7 3563   0.751   0.481   7.088 -0.2544  0.2316 -1.0132
   49CHL1   H7A 3564   0.803   0.389   7.123 -0.5975  1.3076  2.4965
   49CHL1   H7B 3565   0.801   0.574   7.124  0.5759  0.0593 -1.7055
   49CHL1    C8 3566   0.605   0.497   7.150 -0.0415 -0.4135  0.4523
   49CHL1    H8 3567   0.555   0.399   7.137  2.1919 -1.1039 -4.0917
   49CHL1   C14 3568   0.613   0.536   7.297  0.3050 -0.1155  0.0179
   49CHL1   H14 3569   0.663   0.635   7.290 -1.7652  0.9146 -0.3854
   49CHL1   C15 3570   0.699   0.444   7.387  0.1910 -0.1436  0.5824
   49CHL1  H15A 3571   0.676   0.337   7.367  3.5157 -1.0307  1.2211
   49CHL1  H15B 3572   0.807   0.453   7.364  0.2055  0.7228  0.9682
   49CHL1   C16 3573   0.651   0.483   7.527 -0.2798 -0.2075 -0.0233
   49CHL1  H16A 3574   0.623   0.385   7.572 -0.6298  1.1749  2.9027
   49CHL1  H16B 3575   0.747   0.524   7.568 -0.0380 -0.1708 -0.6299
   49CHL1   C17 3576   0.529   0.577   7.511 -0.3409 -0.2772 -0.3441
   49CHL1   H17 3577   0.567   0.681   7.518  1.2714 -0.9458  1.4389
   49CHL1   C13 3578   0.478   0.551   7.366 -0.0280  0.4889 -0.8804
   49CHL1   C18 3579   0.395   0.414   7.372  0.2233 -0.0028  0.0890
   49CHL1  H18A 3580   0.453   0.331   7.419 -2.2299 -1.5477  0.4480
   49CHL1  H18B 3581   0.301   0.423   7.429  0.2951 -0.2833  0.2515
   49CHL1  H18C 3582   0.361   0.390   7.269  0.9349  0.4750 -0.2652
   49CHL1   C12 3583   0.395   0.662   7.288  0.0882 -0.5390  0.1692
   49CHL1  H12A 3584   0.289   0.672   7.320 -0.6527 -0.5966 -2.1698
   49CHL1  H12B 3585   0.445   0.757   7.315 -1.9405  1.1672 -1.8680
   49CHL1   C11 3586   0.390   0.638   7.140 -0.2393  0.2119  0.4382
   49CHL1  H11A 3587   0.308   0.566   7.125 -1.6510  1.3677  2.3690
   49CHL1  H11B 3588   0.352   0.734   7.096  0.0555 -1.5012 -3.7904
   49CHL1    C9 3589   0.528   0.606   7.072 -0.4461 -0.4704  0.1668
   49CHL1    H9 3590   0.590   0.697   7.084 -1.2807  0.3065 -1.3679
   49CHL1   C10 3591   0.516   0.580   6.923  0.1796 -0.2507  0.2773
   49CHL1   C19 3592   0.392   0.488   6.903 -0.2876  0.0019 -0.1714
   49CHL1  H19A 3593   0.373   0.462   6.797  1.0879 -0.7538 -0.2343
   49CHL1  H19B 3594   0.412   0.387   6.944  1.6775  0.5325  0.2169
   49CHL1  H19C 3595   0.299   0.537   6.938  0.5920  1.8227 -0.3229
   49CHL1    C1 3596   0.488   0.711   6.848  0.2486 -0.0821 -0.0892
   49CHL1   H1A 3597   0.384   0.748   6.865  0.1131  0.2389 -1.5359
   49CHL1   H1B 3598   0.564   0.782   6.887 -1.3194  2.2536 -1.1723
   49CHL1    C2 3599   0.501   0.709   6.693  0.2383 -0.0012 -0.3962
   49CHL1   H2A 3600   0.485   0.809   6.649  2.2960  1.0770  1.2040
   49CHL1   H2B 3601   0.424   0.636   6.659  1.4603 -1.4868 -0.0072
   49CHL1   C20 3602   0.432   0.562   7.630 -0.1326  0.2999  0.4573
   49CHL1   H20 3603   0.386   0.460   7.626 -1.9811  1.1764 -2.6531
   49CHL1   C21 3604   0.326   0.673   7.621  0.2889  0.2457  0.4750
   49CHL1  H21A 3605   0.372   0.774   7.612  1.2374 -0.1692  0.6828
   49CHL1  H21B 3606   0.253   0.664   7.704 -0.7192 -2.5411 -0.6533
   49CHL1  H21C 3607   0.264   0.655   7.531 -2.6574  0.7298  2.3511
   49CHL1   C22 3608   0.498   0.574   7.769 -0.0856  0.0769  0.1754
   49CHL1  H22A 3609   0.591   0.514   7.775 -0.2918 -0.2157  0.4278
   49CHL1  H22B 3610   0.518   0.682   7.786  0.0040 -0.2809  2.4748
   49CHL1   C23 3611   0.407   0.519   7.881 -0.1350  0.2516  0.2514
   49CHL1  H23A 3612   0.304   0.561   7.884 -0.0853  0.3781  0.2216
   49CHL1  H23B 3613   0.388   0.415   7.849 -2.1026  0.8806 -0.7201
   49CHL1   C24 3614   0.480   0.523   8.016  0.4403  0.3174 -0.0788
   49CHL1  H24A 3615   0.574   0.472   7.986  0.4334  1.5717 -2.3439
   49CHL1  H24B 3616   0.501   0.631   8.037  0.4185  0.4848 -0.8932
   49CHL1   C25 3617   0.407   0.449   8.130 -0.7310 -0.3417  0.4374
   49CHL1   H25 3618   0.298   0.468   8.124 -0.5806  0.3414 -0.0834
   49CHL1   C26 3619   0.421   0.289   8.105 -0.7194  0.1752  0.1402
   49CHL1  H26A 3620   0.368   0.254   8.014 -2.3272  2.0530  0.3195
   49CHL1  H26B 3621   0.531   0.274   8.102 -0.4097  2.3159 -0.3719
   49CHL1  H26C 3622   0.378   0.255   8.201 -0.3700  4.3361  1.8765
   49CHL1   C27 3623   0.451   0.495   8.272  0.1044  0.5269  0.2865
   49CHL1  H27A 3624   0.562   0.496   8.275  0.1481 -1.2978  0.1880
   49CHL1  H27B 3625   0.427   0.601   8.293  1.5824  0.9507 -0.0910
   49CHL1  H27C 3626   0.413   0.429   8.352  0.6030 -2.5381 -1.8988
   50CHL1    C3 3627   1.233   2.057   6.764  0.1552 -0.3383  0.0216
   50CHL1    H3 3628   1.135   2.011   6.789 -0.0602 -0.1335 -0.4443
   50CHL1    O3 3629   1.215   2.123   6.638  0.0878  0.2962 -0.2185
   50CHL1   H3' 3630   1.152   2.071   6.588  0.2732 -0.3513  0.2046
   50CHL1    C4 3631   1.262   2.161   6.875  0.5887 -0.1657 -0.1058
   50CHL1   H4A 3632   1.349   2.225   6.849 -0.6150  1.8522  0.7422
   50CHL1   H4B 3633   1.176   2.231   6.877  2.3916  2.1271 -1.0275
   50CHL1    C5 3634   1.286   2.097   7.008  0.1692 -0.0561  0.4385
   50CHL1    C6 3635   1.210   2.121   7.118 -0.4270  0.3646  0.8153
   50CHL1    H6 3636   1.121   2.186   7.121 -0.1401  0.9145 -1.8990
   50CHL1    C7 3637   1.237   2.067   7.248  0.1042 -0.6039 -0.5293
   50CHL1   H7A 3638   1.208   2.136   7.330 -0.1765 -2.1652  0.7097
   50CHL1   H7B 3639   1.176   1.975   7.255  1.3893 -1.2454  2.9795
   50CHL1    C8 3640   1.372   1.993   7.270  0.4590 -0.6334  0.4672
   50CHL1    H8 3641   1.455   2.066   7.281  0.1733 -0.5155  1.8767
   50CHL1   C14 3642   1.370   1.896   7.383  0.4507 -0.0334 -0.1486
   50CHL1   H14 3643   1.285   1.828   7.362  0.0248  0.7297 -0.9081
   50CHL1   C15 3644   1.346   1.954   7.522 -0.5501  0.4938  0.0142
   50CHL1  H15A 3645   1.405   2.047   7.537 -0.6314  0.7223 -1.0743
   50CHL1  H15B 3646   1.241   1.969   7.556 -1.2545 -0.2112 -1.7938
   50CHL1   C16 3647   1.404   1.853   7.625  0.0747  0.6122 -0.1177
   50CHL1  H16A 3648   1.475   1.915   7.684  0.2821 -0.6665  1.0106
   50CHL1  H16B 3649   1.335   1.805   7.699  2.5127 -0.7993  1.3002
   50CHL1   C17 3650   1.474   1.746   7.532  0.1472  0.4624  0.2860
   50CHL1   H17 3651   1.394   1.678   7.497  0.1275  1.5879 -1.9993
   50CHL1   C13 3652   1.502   1.814   7.393  0.5372 -0.7423 -0.7868
   50CHL1   C18 3653   1.636   1.886   7.406  0.1772 -0.4943  0.3134
   50CHL1  H18A 3654   1.645   1.931   7.507  1.9145  1.8740 -0.8396
   50CHL1  H18B 3655   1.718   1.814   7.385  0.6792 -1.0325  3.7876
   50CHL1  H18C 3656   1.657   1.957   7.322  0.7569  1.1978  1.8462
   50CHL1   C12 3657   1.506   1.724   7.265  0.2028 -0.3511  0.1479
   50CHL1  H12A 3658   1.589   1.652   7.283  1.1851  0.6049 -0.5271
   50CHL1  H12B 3659   1.412   1.664   7.266 -0.6537  0.9822 -0.4269
   50CHL1   C11 3660   1.520   1.809   7.139 -0.1548 -0.7155 -0.3754
   50CHL1  H11A 3661   1.616   1.865   7.131  0.6003 -0.8982  5.3456
   50CHL1  H11B 3662   1.499   1.745   7.050 -0.8914 -0.5217 -0.3488
   50CHL1    C9 3663   1.399   1.912   7.139 -0.2558  0.1095 -0.1210
   50CHL1    H9 3664   1.312   1.843   7.130 -0.8968  0.5563  2.3400
   50CHL1   C10 3665   1.398   1.993   7.013 -0.6098  0.1516  0.1734
   50CHL1   C19 3666   1.529   2.070   6.999 -0.8993  0.1696 -0.5882
   50CHL1  H19A 3667   1.610   1.998   6.977 -1.3979 -0.0412 -1.7445
   50CHL1  H19B 3668   1.534   2.142   6.915  0.9521  0.7974  0.0466
   50CHL1  H19C 3669   1.544   2.132   7.090 -1.7944  0.7765 -0.8431
   50CHL1    C1 3670   1.383   1.892   6.886 -0.0427 -0.6150 -0.3536
   50CHL1   H1A 3671   1.486   1.852   6.874  0.3437  0.4888 -0.7646
   50CHL1   H1B 3672   1.305   1.816   6.912  0.1107 -0.7222 -0.2053
   50CHL1    C2 3673   1.348   1.952   6.746  0.2565  0.2031  0.6231
   50CHL1   H2A 3674   1.328   1.868   6.676  1.7082 -0.6631  1.2255
   50CHL1   H2B 3675   1.440   2.000   6.707 -0.4963  0.9966 -0.2023
   50CHL1   C20 3676   1.585   1.661   7.610 -0.2792  0.4094  0.0301
   50CHL1   H20 3677   1.681   1.717   7.608  0.4934 -0.8943 -0.5669
   50CHL1   C21 3678   1.621   1.534   7.531  0.1682  0.3686 -0.2024
   50CHL1  H21A 3679   1.685   1.560   7.445 -0.5254 -1.4697 -1.3061
   50CHL1  H21B 3680   1.529   1.479   7.500  1.9252 -2.6085 -0.3187
   50CHL1  H21C 3681   1.676   1.470   7.603 -1.0010  0.2787  0.6324
   50CHL1   C22 3682   1.565   1.617   7.763  0.2804 -0.1893 -0.4319
   50CHL1  H22A 3683   1.648   1.555   7.802  1.0696  0.2193 -1.4377
   50CHL1  H22B 3684   1.556   1.719   7.808  2.9176 -0.4793  0.8529
   50CHL1   C23 3685   1.434   1.550   7.791  0.6004 -0.1047 -0.7083
   50CHL1  H23A 3686   1.342   1.601   7.757 -0.6504 -0.2688  2.2785
   50CHL1  H23B 3687   1.446   1.453   7.737  0.7533 -1.3403  1.4754
   50CHL1   C24 3688   1.426   1.514   7.948 -0.5444  0.0358 -0.7159
   50CHL1  H24A 3689   1.503   1.438   7.972  0.0423  0.8023 -0.1287
   50CHL1  H24B 3690   1.451   1.607   8.004  0.0077  0.9113 -2.3923
   50CHL1   C25 3691   1.283   1.476   7.988  0.3663  0.3287  0.2492
   50CHL1   H25 3692   1.239   1.398   7.922 -1.4295  1.7399 -0.2526
   50CHL1   C26 3693   1.274   1.408   8.129 -0.1447 -0.8705  0.1631
   50CHL1  H26A 3694   1.298   1.474   8.215  0.0954 -2.7244  1.5670
   50CHL1  H26B 3695   1.172   1.370   8.153 -1.2099  1.7195 -0.0813
   50CHL1  H26C 3696   1.339   1.318   8.122  2.2245  0.6499  1.9304
   50CHL1   C27 3697   1.190   1.594   7.993 -0.4278 -0.3262  0.2111
   50CHL1  H27A 3698   1.092   1.590   8.045  0.0049 -0.3838  1.0259
   50CHL1  H27B 3699   1.241   1.672   8.054  1.5666 -0.9334 -0.6117
   50CHL1  H27C 3700   1.174   1.628   7.889  2.9775  2.5266  0.5165
   51CHL1    C3 3701   1.084   0.667   6.885  0.5019 -0.0869  0.6964
   51CHL1    H3 3702   0.997   0.599   6.889 -0.3301  1.0162  2.2144
   51CHL1    O3 3703   1.140   0.650   6.750  0.2165  0.0086 -0.1466
   51CHL1   H3' 3704   1.163   0.738   6.719  1.1955  0.3593  1.5158
   51CHL1    C4 3705   1.028   0.813   6.910 -0.1617  0.3118 -0.1045
   51CHL1   H4A 3706   1.113   0.878   6.878  0.7238 -1.0870 -0.6412
   51CHL1   H4B 3707   0.942   0.831   6.843 -0.9753 -2.3818  0.1882
   51CHL1    C5 3708   0.988   0.839   7.056 -0.0053  0.3239  0.1493
   51CHL1    C6 3709   0.874   0.904   7.087  0.5327  0.7314  0.1218
   51CHL1    H6 3710   0.812   0.946   7.006  0.2026  1.0155  0.5223
   51CHL1    C7 3711   0.823   0.929   7.225 -0.2400 -0.1161  0.3672
   51CHL1   H7A 3712   0.792   1.035   7.242 -1.7722 -0.2463 -1.3230
   51CHL1   H7B 3713   0.745   0.853   7.245 -0.0079 -0.2927  0.5897
   51CHL1    C8 3714   0.930   0.898   7.338 -0.1808 -0.8399  0.3976
   51CHL1    H8 3715   1.000   0.982   7.355  1.3131 -2.3724  2.0450
   51CHL1   C14 3716   0.852   0.869   7.467 -0.0013 -0.2457  0.3544
   51CHL1   H14 3717   0.798   0.776   7.440 -0.5275 -0.3994  1.9057
   51CHL1   C15 3718   0.761   0.977   7.518 -0.0402 -0.4270 -0.4919
   51CHL1  H15A 3719   0.823   1.068   7.502 -1.0973  0.0564 -1.9525
   51CHL1  H15B 3720   0.667   0.983   7.460  1.5843 -2.4488 -3.5058
   51CHL1   C16 3721   0.748   0.952   7.666  0.4080  0.2356  0.0277
   51CHL1  H16A 3722   0.777   1.039   7.729 -2.2452 -0.3318  2.1408
   51CHL1  H16B 3723   0.643   0.934   7.700 -0.3044 -1.0367 -2.7525
   51CHL1   C17 3724   0.836   0.827   7.704  0.1715  0.3752 -0.4182
   51CHL1   H17 3725   0.768   0.740   7.694  1.7800 -1.0126  0.3982
   51CHL1   C13 3726   0.936   0.831   7.588 -0.5573  0.7856  0.2997
   51CHL1   C18 3727   1.047   0.938   7.615 -0.4073 -0.9326 -0.5762
   51CHL1  H18A 3728   1.015   1.029   7.669  1.9189  0.2516 -1.1164
   51CHL1  H18B 3729   1.125   0.892   7.679 -1.2585 -1.0849  0.3484
   51CHL1  H18C 3730   1.093   0.972   7.519 -1.2063  1.1374 -0.2594
   51CHL1   C12 3731   1.007   0.699   7.548  0.3163 -0.4647  0.0709
   51CHL1  H12A 3732   1.079   0.672   7.628  0.9978  1.8529  0.2594
   51CHL1  H12B 3733   0.941   0.610   7.551 -0.6078  0.2606  1.1909
   51CHL1   C11 3734   1.089   0.711   7.422  0.3365  0.3742 -0.4957
   51CHL1  H11A 3735   1.176   0.777   7.442  0.1599 -0.3419  2.8226
   51CHL1  H11B 3736   1.135   0.616   7.386 -2.0595 -0.6796 -0.8688
   51CHL1    C9 3737   1.011   0.772   7.304 -0.2861  0.2622 -0.0370
   51CHL1    H9 3738   0.937   0.691   7.288 -0.4221 -0.2666  3.0020
   51CHL1   C10 3739   1.088   0.777   7.170 -0.8925 -0.1664 -1.0752
   51CHL1   C19 3740   1.206   0.872   7.176  0.2437 -0.2764  0.0969
   51CHL1  H19A 3741   1.281   0.821   7.240 -0.7860 -1.8136  0.1043
   51CHL1  H19B 3742   1.258   0.880   7.078  0.0119  2.0718  0.1223
   51CHL1  H19C 3743   1.175   0.964   7.230  3.0546 -0.0094  1.3497
   51CHL1    C1 3744   1.128   0.635   7.124  0.2018  0.6320  0.3240
   51CHL1   H1A 3745   1.193   0.584   7.197  0.4979 -1.9850 -1.6957
   51CHL1   H1B 3746   1.030   0.584   7.134 -0.0389  1.1174  0.4630
   51CHL1    C2 3747   1.189   0.618   6.989  0.4630 -0.0389  0.6075
   51CHL1   H2A 3748   1.203   0.511   6.965 -0.1393  0.0019  0.0428
   51CHL1   H2B 3749   1.281   0.681   6.981  1.6345 -1.4696  2.3909
   51CHL1   C20 3750   0.884   0.831   7.852  0.0446 -0.7330 -0.1098
   51CHL1   H20 3751   0.926   0.931   7.873 -1.1870 -0.7409  2.6168
   51CHL1   C21 3752   0.982   0.719   7.878  0.2654  0.0510  0.2891
   51CHL1  H21A 3753   0.929   0.624   7.852  1.0912 -0.8345  1.7130
   51CHL1  H21B 3754   1.011   0.714   7.986 -1.1343  1.4681  0.7391
   51CHL1  H21C 3755   1.079   0.727   7.826  1.3642  0.0847  2.2978
   51CHL1   C22 3756   0.761   0.819   7.959  0.1287  0.3457  0.2760
   51CHL1  H22A 3757   0.684   0.897   7.940  0.3911  0.3182 -0.9325
   51CHL1  H22B 3758   0.712   0.719   7.947  2.3367 -0.5660 -1.5500
   51CHL1   C23 3759   0.801   0.837   8.109  0.6847 -0.6826  0.9114
   51CHL1  H23A 3760   0.856   0.748   8.145  1.0679 -0.5534  0.6458
   51CHL1  H23B 3761   0.863   0.927   8.127  1.0431 -1.1326  1.9727
   51CHL1   C24 3762   0.681   0.868   8.203  1.2771  0.1939  0.7280
   51CHL1  H24A 3763   0.613   0.945   8.161  0.7841 -0.4156  0.3923
   51CHL1  H24B 3764   0.605   0.787   8.195  0.6047  0.8865  0.0809
   51CHL1   C25 3765   0.691   0.910   8.349 -0.0065 -0.2794 -0.3278
   51CHL1   H25 3766   0.715   1.019   8.353 -0.6896 -0.1230 -0.4311
   51CHL1   C26 3767   0.560   0.878   8.427 -0.1200 -0.4351  0.0134
   51CHL1  H26A 3768   0.550   0.767   8.433 -0.5939 -0.3434  1.2178
   51CHL1  H26B 3769   0.562   0.922   8.529 -2.1292  1.0541 -0.5465
   51CHL1  H26C 3770   0.473   0.931   8.382  0.7034 -0.7804 -2.0358
   51CHL1   C27 3771   0.802   0.842   8.433  0.2368  0.4885  0.5501
   51CHL1  H27A 3772   0.906   0.874   8.408  1.0105 -0.8392  1.9532
   51CHL1  H27B 3773   0.777   0.854   8.541  0.4594 -2.7941  1.0442
   51CHL1  H27C 3774   0.779   0.734   8.418 -1.0614  0.8834 -0.3823
   52CHL1    C3 3775   3.295   2.088   6.954  0.7210 -0.0103  0.3435
   52CHL1    H3 3776   3.336   2.189   6.976  0.9180  0.3331 -1.5541
   52CHL1    O3 3777   3.321   2.062   6.815  0.3150 -0.1547  0.4230
   52CHL1   H3' 3778   3.416   2.076   6.813 -0.0515  3.0506  1.8090
   52CHL1    C4 3779   3.358   1.972   7.044 -0.4762 -0.8778  0.4475
   52CHL1   H4A 3780   3.298   1.884   7.014 -1.2304 -0.1349 -0.2661
   52CHL1   H4B 3781   3.463   1.964   7.009  0.1213  0.9621  1.6948
   52CHL1    C5 3782   3.337   2.014   7.187 -0.8484  0.7676  0.3867
   52CHL1    C6 3783   3.443   2.017   7.266 -0.6631  0.4685 -0.1673
   52CHL1    H6 3784   3.542   1.981   7.235 -0.1096  1.9545 -0.1488
   52CHL1    C7 3785   3.446   2.033   7.418  0.6557  0.3236 -0.4093
   52CHL1   H7A 3786   3.511   1.957   7.465 -0.2461  0.4220  1.0079
   52CHL1   H7B 3787   3.485   2.134   7.442  1.4633 -0.0709 -0.0561
   52CHL1    C8 3788   3.296   2.027   7.459 -0.0634  0.1493  0.3513
   52CHL1    H8 3789   3.258   1.923   7.463 -1.0101  0.5036  0.8339
   52CHL1   C14 3790   3.278   2.068   7.609  0.3942  0.5369 -0.0082
   52CHL1   H14 3791   3.285   2.178   7.619 -3.6010  0.8925 -0.5779
   52CHL1   C15 3792   3.378   2.011   7.709 -0.2966  0.1451 -0.1509
   52CHL1  H15A 3793   3.401   1.905   7.687  1.2007  0.2571  0.8609
   52CHL1  H15B 3794   3.469   2.074   7.707  0.0316 -0.3116  0.5434
   52CHL1   C16 3795   3.304   2.027   7.843  0.6247  0.2823 -0.2830
   52CHL1  H16A 3796   3.298   1.924   7.883  0.3255 -0.5165 -2.3231
   52CHL1  H16B 3797   3.356   2.103   7.905  0.0980  0.3439  0.0872
   52CHL1   C17 3798   3.164   2.078   7.810  0.6608  0.1333  0.0633
   52CHL1   H17 3799   3.170   2.189   7.819  2.3156  0.0941 -0.4645
   52CHL1   C13 3800   3.132   2.044   7.666 -0.3791 -0.5023 -0.6330
   52CHL1   C18 3801   3.090   1.889   7.652 -0.4328  0.7609 -0.0250
   52CHL1  H18A 3802   3.174   1.828   7.693 -1.3065 -1.8401 -1.9920
   52CHL1  H18B 3803   2.998   1.862   7.708 -2.0955 -0.3988 -3.2085
   52CHL1  H18C 3804   3.075   1.854   7.548  0.3438 -0.2379  0.1957
   52CHL1   C12 3805   3.040   2.138   7.595 -0.3297  0.6307  0.2785
   52CHL1  H12A 3806   2.933   2.124   7.623 -0.9268  0.4194 -2.0281
   52CHL1  H12B 3807   3.060   2.245   7.618 -1.2816  0.7461  0.6005
   52CHL1   C11 3808   3.052   2.114   7.442 -0.6895  0.7065 -0.1361
   52CHL1  H11A 3809   2.997   2.018   7.428  1.1553 -0.1161 -1.9835
   52CHL1  H11B 3810   2.995   2.196   7.392 -2.8605 -0.6257  0.0772
   52CHL1    C9 3811   3.196   2.097   7.372  0.6411 -0.0595 -0.4116
   52CHL1    H9 3812   3.242   2.198   7.375  0.6157 -0.0323 -0.9926
   52CHL1   C10 3813   3.187   2.040   7.228 -0.0102 -0.1594 -0.2070
   52CHL1   C19 3814   3.108   1.914   7.227 -0.1150 -0.2542 -0.2701
   52CHL1  H19A 3815   3.001   1.931   7.251  0.3662  1.0227  1.0075
   52CHL1  H19B 3816   3.114   1.863   7.128 -0.7464 -0.4885 -0.1938
   52CHL1  H19C 3817   3.142   1.849   7.311 -2.6882 -0.3295  0.7672
   52CHL1    C1 3818   3.116   2.149   7.132 -0.4677 -0.4877 -0.4534
   52CHL1   H1A 3819   3.007   2.145   7.151 -0.7798 -0.8152 -2.2618
   52CHL1   H1B 3820   3.145   2.253   7.158 -1.3420 -0.2057 -0.5968
   52CHL1    C2 3821   3.145   2.118   6.984  0.0260 -0.3791  0.3096
   52CHL1   H2A 3822   3.103   2.201   6.924 -1.8890 -0.8975  0.9169
   52CHL1   H2B 3823   3.079   2.036   6.949 -2.9171  1.3084  1.7083
   52CHL1   C20 3824   3.065   2.045   7.928  0.1679 -0.3247 -0.3198
   52CHL1   H20 3825   3.056   1.934   7.936 -2.7392 -0.2650 -1.9548
   52CHL1   C21 3826   2.919   2.079   7.888  0.3133  0.9750 -0.3468
   52CHL1  H21A 3827   2.857   2.047   7.974  1.9838 -0.0570  0.5058
   52CHL1  H21B 3828   2.877   2.016   7.807  0.6231  0.6998 -0.2952
   52CHL1  H21C 3829   2.907   2.188   7.873 -1.8027  0.7813 -0.2298
   52CHL1   C22 3830   3.114   2.097   8.068 -0.3414  0.0891 -0.0877
   52CHL1  H22A 3831   3.223   2.110   8.052 -0.2239  0.5478  1.1025
   52CHL1  H22B 3832   3.070   2.198   8.081  1.3470  1.0355 -1.4801
   52CHL1   C23 3833   3.070   2.007   8.182 -0.5803  1.0928  0.1350
   52CHL1  H23A 3834   2.959   2.015   8.189 -0.9118 -0.5724 -2.3187
   52CHL1  H23B 3835   3.098   1.902   8.158 -0.7033  0.9102  0.7881
   52CHL1   C24 3836   3.133   2.054   8.317 -0.0562  0.4348  0.2899
   52CHL1  H24A 3837   3.240   2.063   8.289 -0.1935 -0.0019 -0.3937
   52CHL1  H24B 3838   3.091   2.153   8.344 -0.6397  0.0655  0.7426
   52CHL1   C25 3839   3.112   1.956   8.440  0.3604 -0.0558  0.4228
   52CHL1   H25 3840   3.156   2.004   8.530 -0.0215  0.4635  0.3316
   52CHL1   C26 3841   2.963   1.930   8.464  0.2632  0.9208 -0.0365
   52CHL1  H26A 3842   2.904   2.024   8.469  0.2998  0.9169  0.4821
   52CHL1  H26B 3843   2.923   1.874   8.377  2.2324  0.9120 -0.9600
   52CHL1  H26C 3844   2.938   1.875   8.557 -0.7718 -0.1796 -0.9475
   52CHL1   C27 3845   3.182   1.821   8.416 -0.4456 -0.9953  1.1478
   52CHL1  H27A 3846   3.121   1.752   8.355  1.3021 -1.9113  0.3928
   52CHL1  H27B 3847   3.288   1.836   8.386 -0.9062 -0.4940 -0.2725
   52CHL1  H27C 3848   3.179   1.764   8.511 -1.2219 -0.7886  1.2555
   53CHL1    C3 3849   5.846   5.576   7.085  0.5466  0.1715 -0.4646
   53CHL1    H3 3850   5.957   5.574   7.089  0.5140 -0.6435  0.5567
   53CHL1    O3 3851   5.807   5.574   6.945 -0.0785 -0.2815 -0.0062
   53CHL1   H3' 3852   5.852   5.497   6.911 -0.9668 -0.1024 -1.5987
   53CHL1    C4 3853   5.778   5.453   7.163  0.5344 -0.0579 -0.2728
   53CHL1   H4A 3854   5.670   5.449   7.138  0.7526 -0.1055 -1.2232
   53CHL1   H4B 3855   5.817   5.361   7.115  0.4585 -0.4529  0.4277
   53CHL1    C5 3856   5.802   5.453   7.308  0.3705  0.7298  0.0918
   53CHL1    C6 3857   5.861   5.358   7.379  0.5851 -0.3146  0.4123
   53CHL1    H6 3858   5.887   5.262   7.330  0.6218  0.6262 -1.4682
   53CHL1    C7 3859   5.878   5.349   7.529 -0.0744 -0.4720  0.2639
   53CHL1   H7A 3860   5.850   5.248   7.564  1.6904 -0.6617  1.2047
   53CHL1   H7B 3861   5.986   5.356   7.556  0.0591  0.0809 -0.3998
   53CHL1    C8 3862   5.791   5.457   7.599 -0.9191  0.2225 -0.5439
   53CHL1    H8 3863   5.688   5.416   7.594 -1.4266  1.3832  0.4350
   53CHL1   C14 3864   5.833   5.467   7.743 -0.2113 -0.4683  0.0903
   53CHL1   H14 3865   5.933   5.513   7.727 -0.6365  0.6003  0.4692
   53CHL1   C15 3866   5.850   5.337   7.826  0.1335 -0.2293  0.2239
   53CHL1  H15A 3867   5.769   5.265   7.801  0.9806 -1.2017  0.2198
   53CHL1  H15B 3868   5.948   5.294   7.796  0.9569  0.9058  1.2399
   53CHL1   C16 3869   5.858   5.389   7.970  0.1346 -0.3375 -0.0299
   53CHL1  H16A 3870   5.775   5.339   8.024 -1.0226  0.4252 -1.0656
   53CHL1  H16B 3871   5.958   5.361   8.010  0.3328  0.4796  0.0656
   53CHL1   C17 3872   5.826   5.545   7.964 -0.1671  0.0146  0.1277
   53CHL1   H17 3873   5.926   5.590   7.945  0.7054 -1.7545  0.4532
   53CHL1   C13 3874   5.750   5.571   7.829  0.3836  0.6651  0.1541
   53CHL1   C18 3875   5.600   5.539   7.846 -0.1068  0.1828  0.0540
   53CHL1  H18A 3876   5.559   5.518   7.745  3.1396 -0.9055 -1.1184
   53CHL1  H18B 3877   5.585   5.446   7.904 -1.4512 -0.7505 -1.7380
   53CHL1  H18C 3878   5.543   5.623   7.892  0.8108  1.4454 -1.0684
   53CHL1   C12 3879   5.771   5.702   7.761 -0.0767 -0.3934 -0.7880
   53CHL1  H12A 3880   5.721   5.791   7.804  0.9784  0.5567 -1.5074
   53CHL1  H12B 3881   5.876   5.738   7.764 -1.1430  2.7599  0.0800
   53CHL1   C11 3882   5.719   5.698   7.619  1.2010 -0.5138  0.1689
   53CHL1  H11A 3883   5.611   5.672   7.619  0.8174  0.9029  2.5244
   53CHL1  H11B 3884   5.729   5.793   7.563  0.6935 -0.1677  0.6578
   53CHL1    C9 3885   5.790   5.593   7.533 -0.2683  0.0402 -0.0234
   53CHL1    H9 3886   5.896   5.626   7.535 -0.3208  0.2262 -0.2312
   53CHL1   C10 3887   5.751   5.586   7.381  0.3613  0.1622 -0.0038
   53CHL1   C19 3888   5.593   5.584   7.377 -0.2990  0.1995 -0.1297
   53CHL1  H19A 3889   5.566   5.690   7.397  0.0716  0.1269  0.8226
   53CHL1  H19B 3890   5.552   5.567   7.276 -0.9855 -0.5246  0.2676
   53CHL1  H19C 3891   5.539   5.522   7.452 -0.7264 -0.3501 -0.8989
   53CHL1    C1 3892   5.815   5.704   7.311  0.2053 -0.2807  0.1573
   53CHL1   H1A 3893   5.761   5.793   7.349  0.8727  0.3820 -0.4305
   53CHL1   H1B 3894   5.921   5.716   7.341 -0.0963 -0.4672  1.3149
   53CHL1    C2 3895   5.792   5.703   7.156  0.2614  0.1274 -0.7334
   53CHL1   H2A 3896   5.842   5.785   7.099 -0.0934  1.4199  0.7814
   53CHL1   H2B 3897   5.688   5.715   7.119  0.7651  1.5956 -1.7436
   53CHL1   C20 3898   5.765   5.587   8.100  0.0507 -0.0311  0.0980
   53CHL1   H20 3899   5.669   5.533   8.113  0.2329  0.0667  1.9927
   53CHL1   C21 3900   5.730   5.736   8.100 -0.1454  0.4663  0.4470
   53CHL1  H21A 3901   5.657   5.756   8.018 -0.2492  2.3808  0.9693
   53CHL1  H21B 3902   5.818   5.800   8.079  1.7753 -1.1719  3.2572
   53CHL1  H21C 3903   5.689   5.757   8.201  0.2870  0.1864  0.6830
   53CHL1   C22 3904   5.852   5.547   8.220  0.0352 -0.7037 -1.1936
   53CHL1  H22A 3905   5.855   5.436   8.213 -1.4543 -0.9658  1.4257
   53CHL1  H22B 3906   5.957   5.582   8.225 -0.3100  0.0561  3.4498
   53CHL1   C23 3907   5.798   5.586   8.362 -0.6550 -0.3091  0.3190
   53CHL1  H23A 3908   5.809   5.697   8.362 -0.4170 -0.3353 -0.2378
   53CHL1  H23B 3909   5.688   5.570   8.366 -0.7835  0.4684 -0.0344
   53CHL1   C24 3910   5.868   5.523   8.476  0.5234  0.0069 -0.1118
   53CHL1  H24A 3911   5.870   5.416   8.446 -0.3957 -0.0276 -0.0746
   53CHL1  H24B 3912   5.972   5.557   8.495  1.3483 -1.7291 -1.4622
   53CHL1   C25 3913   5.801   5.544   8.614  0.2375 -0.3230 -0.2578
   53CHL1   H25 3914   5.805   5.651   8.644  1.4946 -1.0034  2.1302
   53CHL1   C26 3915   5.654   5.504   8.613  0.4228  0.4249  0.8855
   53CHL1  H26A 3916   5.598   5.509   8.708 -0.1279 -1.4698  0.6795
   53CHL1  H26B 3917   5.594   5.567   8.544 -0.4577 -1.1719  0.1758
   53CHL1  H26C 3918   5.641   5.399   8.579  1.6613  0.4239  0.3691
   53CHL1   C27 3919   5.867   5.457   8.723  0.2532  0.4285 -0.3400
   53CHL1  H27A 3920   5.975   5.480   8.738  0.6337 -1.1452 -0.6415
   53CHL1  H27B 3921   5.813   5.465   8.820 -0.5252 -1.0522 -0.6458
   53CHL1  H27C 3922   5.850   5.356   8.681  0.3852 -0.1880  1.0731
   54CHL1    C3 3923   6.255   0.493   6.981  0.1310 -0.5739 -0.4957
   54CHL1    H3 3924   6.163   0.555   6.991  1.6363  1.7569 -0.7106
   54CHL1    O3 3925   6.272   0.519   6.842  0.1489  0.3958 -0.0188
   54CHL1   H3' 3926   6.353   0.477   6.810  0.4560  1.0791 -0.1486
   54CHL1    C4 3927   6.362   0.551   7.073  0.1198  0.3991  0.0572
   54CHL1   H4A 3928   6.460   0.508   7.044 -0.2751  0.9231 -2.1422
   54CHL1   H4B 3929   6.362   0.659   7.048  0.9648 -0.2007 -2.6407
   54CHL1    C5 3930   6.333   0.524   7.223  0.3216 -0.0982 -1.0601
   54CHL1    C6 3931   6.315   0.615   7.314 -0.4523  0.0881  0.3340
   54CHL1    H6 3932   6.348   0.714   7.278 -0.2768 -0.1366 -0.1340
   54CHL1    C7 3933   6.291   0.604   7.465 -0.6253  0.4532 -0.2394
   54CHL1   H7A 3934   6.376   0.654   7.516  0.1491 -1.4332  0.3836
   54CHL1   H7B 3935   6.190   0.645   7.489 -0.8001 -0.0344 -0.1344
   54CHL1    C8 3936   6.291   0.457   7.509 -0.4320  0.0415 -0.0182
   54CHL1    H8 3937   6.396   0.423   7.523 -0.6589 -1.6520 -2.2326
   54CHL1   C14 3938   6.220   0.434   7.644 -1.0883 -0.3180  0.6468
   54CHL1   H14 3939   6.111   0.454   7.637 -1.1613 -0.7296  0.5720
   54CHL1   C15 3940   6.269   0.525   7.761 -0.1177  0.5182  0.2787
   54CHL1  H15A 3941   6.379   0.526   7.777 -0.1689  3.0316  0.6730
   54CHL1  H15B 3942   6.239   0.632   7.755  1.8584  1.1574  1.4498
   54CHL1   C16 3943   6.205   0.452   7.883 -0.3699  0.5900 -0.0719
   54CHL1  H16A 3944   6.283   0.453   7.963 -1.6018  1.5794  1.1206
   54CHL1  H16B 3945   6.118   0.510   7.921  0.8661  0.9751  2.2754
   54CHL1   C17 3946   6.153   0.314   7.835  0.2180 -1.1435  0.0011
   54CHL1   H17 3947   6.043   0.321   7.823  0.3594 -0.7460 -1.0692
   54CHL1   C13 3948   6.216   0.292   7.696  0.6152  0.7009 -0.5484
   54CHL1   C18 3949   6.361   0.234   7.713 -0.7886 -0.1868  0.1273
   54CHL1  H18A 3950   6.420   0.279   7.796 -0.4618  0.5023 -0.4828
   54CHL1  H18B 3951   6.358   0.125   7.737 -0.0539 -0.4107 -0.8134
   54CHL1  H18C 3952   6.417   0.237   7.618 -0.5729  2.2136  0.3112
   54CHL1   C12 3953   6.137   0.210   7.598  0.0766  0.6028 -0.3040
   54CHL1  H12A 3954   6.144   0.106   7.638 -1.1473  1.1119  1.2975
   54CHL1  H12B 3955   6.030   0.238   7.591 -0.4295 -1.5094 -1.5713
   54CHL1   C11 3956   6.192   0.219   7.455 -0.1114 -0.6112  0.3707
   54CHL1  H11A 3957   6.294   0.175   7.466  0.5100  0.0831 -2.2238
   54CHL1  H11B 3958   6.138   0.165   7.375 -2.4273  0.0793  1.4269
   54CHL1    C9 3959   6.227   0.362   7.403  0.6778  0.7591  0.0159
   54CHL1    H9 3960   6.125   0.406   7.395  1.1380  1.6156 -1.4220
   54CHL1   C10 3961   6.288   0.380   7.257  0.2001  0.4056 -0.6625
   54CHL1   C19 3962   6.420   0.307   7.257  0.1665 -0.2924  0.4548
   54CHL1  H19A 3963   6.463   0.327   7.157 -0.0902 -2.5857 -0.1508
   54CHL1  H19B 3964   6.489   0.347   7.334 -0.2331 -1.8649  1.6713
   54CHL1  H19C 3965   6.402   0.201   7.288 -2.0078 -0.3686 -0.9792
   54CHL1    C1 3966   6.198   0.320   7.151  0.6230 -0.8479 -0.2564
   54CHL1   H1A 3967   6.195   0.212   7.174  0.7612 -0.1627  3.4410
   54CHL1   H1B 3968   6.098   0.358   7.182  1.3442  2.9942 -2.3225
   54CHL1    C2 3969   6.231   0.336   7.011  0.5737 -0.2398  0.3592
   54CHL1   H2A 3970   6.145   0.315   6.944  0.6499  1.0274 -0.1553
   54CHL1   H2B 3971   6.327   0.293   6.974  0.5596  1.1542 -1.3949
   54CHL1   C20 3972   6.161   0.197   7.943  0.7450 -0.0306  0.0781
   54CHL1   H20 3973   6.164   0.105   7.880 -0.4629  1.4263 -2.1746
   54CHL1   C21 3974   6.025   0.195   8.025  0.5432 -0.2966 -0.5383
   54CHL1  H21A 3975   6.005   0.099   8.077 -2.7000  0.3273 -0.5186
   54CHL1  H21B 3976   5.939   0.195   7.954  0.0706 -0.4928  0.0391
   54CHL1  H21C 3977   6.014   0.275   8.101 -0.1804 -0.7054 -0.2059
   54CHL1   C22 3978   6.284   0.197   8.042  0.7008  0.3456 -0.2396
   54CHL1  H22A 3979   6.377   0.227   7.988  1.1969  0.9053  0.9228
   54CHL1  H22B 3980   6.264   0.276   8.118  0.2065 -0.5666  0.5853
   54CHL1   C23 3981   6.313   0.060   8.116 -0.2864 -0.7752  0.5005
   54CHL1  H23A 3982   6.229   0.030   8.182 -2.1390 -1.1006 -1.9429
   54CHL1  H23B 3983   6.319  -0.014   8.034  1.7013  0.3158 -0.3647
   54CHL1   C24 3984   6.442   0.065   8.203 -0.7090 -0.6799 -0.7444
   54CHL1  H24A 3985   6.531   0.073   8.136 -1.2466 -1.9360 -1.6120
   54CHL1  H24B 3986   6.447   0.149   8.276 -3.3279  0.3546 -1.7119
   54CHL1   C25 3987   6.462  -0.054   8.298 -0.8882  0.2008 -0.4445
   54CHL1   H25 3988   6.363  -0.074   8.344  0.0631 -0.3890  1.3912
   54CHL1   C26 3989   6.499  -0.193   8.231  0.1645 -0.6245  0.3896
   54CHL1  H26A 3990   6.435  -0.204   8.140  1.7092  0.0847 -0.8030
   54CHL1  H26B 3991   6.602  -0.186   8.190  1.2160  0.7392  3.1331
   54CHL1  H26C 3992   6.494  -0.277   8.304  0.9265 -2.1230 -1.2268
   54CHL1   C27 3993   6.569  -0.026   8.405  0.7413 -0.7237  0.3177
   54CHL1  H27A 3994   6.665  -0.005   8.355  0.7144  0.7923  0.8922
   54CHL1  H27B 3995   6.540   0.053   8.478  1.3041 -1.7221  1.6543
   54CHL1  H27C 3996   6.598  -0.116   8.464 -2.1951 -2.8416 -1.3409
   55CHL1    C3 3997   5.981   1.878   6.957  0.2579 -0.2461 -0.1934
   55CHL1    H3 3998   5.925   1.784   6.941  2.2776 -1.4930 -0.2041
   55CHL1    O3 3999   6.022   1.926   6.830  0.3184  0.3250  0.2470
   55CHL1   H3' 4000   6.074   2.006   6.847 -0.5083  1.4214 -2.1548
   55CHL1    C4 4001   5.890   1.988   7.026 -0.2825 -0.2350  0.7788
   55CHL1   H4A 4002   5.953   2.078   7.010  0.3973 -0.7189  0.7571
   55CHL1   H4B 4003   5.801   2.016   6.966  1.0173  1.4576 -0.4012
   55CHL1    C5 4004   5.853   1.959   7.171  0.4743  0.1521 -0.1713
   55CHL1    C6 4005   5.720   1.972   7.202  0.2123 -0.4593 -0.5240
   55CHL1    H6 4006   5.651   1.980   7.116  0.5038  1.0985 -0.6397
   55CHL1    C7 4007   5.665   1.934   7.331 -0.0228 -0.1207  0.2730
   55CHL1   H7A 4008   5.592   2.013   7.359 -1.2206 -1.4120  0.8608
   55CHL1   H7B 4009   5.602   1.842   7.334  0.5418 -0.5663 -1.1209
   55CHL1    C8 4010   5.775   1.939   7.437 -0.2896 -0.3787 -0.0638
   55CHL1    H8 4011   5.803   2.046   7.445 -1.5360  0.0998 -1.7213
   55CHL1   C14 4012   5.731   1.876   7.569 -0.3292  0.1757 -0.7506
   55CHL1   H14 4013   5.716   1.773   7.531 -0.6799  0.4858 -1.4506
   55CHL1   C15 4014   5.598   1.919   7.628  0.3000  0.0743  0.3056
   55CHL1  H15A 4015   5.589   2.029   7.642  1.9165 -0.1074  3.0861
   55CHL1  H15B 4016   5.522   1.876   7.559  1.6120  0.1160 -1.1950
   55CHL1   C16 4017   5.602   1.846   7.759 -0.3730  0.8797  0.6785
   55CHL1  H16A 4018   5.558   1.904   7.842  2.2211  1.6864  1.5357
   55CHL1  H16B 4019   5.540   1.754   7.756  0.7502  0.1289 -0.3385
   55CHL1   C17 4020   5.746   1.796   7.787  0.5414 -0.8019  0.0488
   55CHL1   H17 4021   5.738   1.689   7.758  0.8843 -1.1435  1.1804
   55CHL1   C13 4022   5.829   1.869   7.687  0.1484  0.4546 -0.0552
   55CHL1   C18 4023   5.861   2.012   7.742 -0.0275  0.3465  0.3215
   55CHL1  H18A 4024   5.922   2.064   7.665 -0.7597  2.2260  0.9628
   55CHL1  H18B 4025   5.765   2.067   7.754 -0.6248 -0.5674 -0.1864
   55CHL1  H18C 4026   5.926   2.023   7.831  0.6850 -0.5161 -0.0852
   55CHL1   C12 4027   5.960   1.798   7.640  0.2639  0.7142  0.9324
   55CHL1  H12A 4028   6.042   1.796   7.714 -0.0316 -0.2163  1.2472
   55CHL1  H12B 4029   5.941   1.689   7.630 -1.1523  0.7858  2.5216
   55CHL1   C11 4030   6.018   1.857   7.509  0.4430  0.3607  0.5695
   55CHL1  H11A 4031   6.056   1.960   7.523 -1.4485  1.2554 -0.6357
   55CHL1  H11B 4032   6.108   1.797   7.482 -0.2804 -0.7662  0.5999
   55CHL1    C9 4033   5.907   1.866   7.393  0.7314 -0.0596 -0.0800
   55CHL1    H9 4034   5.893   1.756   7.386  4.3799 -0.5451 -0.9301
   55CHL1   C10 4035   5.967   1.914   7.255  0.0147 -0.8142  0.0801
   55CHL1   C19 4036   6.043   2.049   7.278 -0.2885 -0.7052  0.6888
   55CHL1  H19A 4037   6.115   2.041   7.362  1.9977  2.2214 -0.9046
   55CHL1  H19B 4038   6.095   2.082   7.185 -0.5056 -1.1715  0.3993
   55CHL1  H19C 4039   5.975   2.132   7.305 -0.7386 -1.3678  1.6271
   55CHL1    C1 4040   6.049   1.801   7.192  0.3427  0.3254 -0.2599
   55CHL1   H1A 4041   6.131   1.775   7.262  0.3201 -0.4638 -0.5192
   55CHL1   H1B 4042   5.980   1.715   7.181  0.9899 -0.2322  0.0596
   55CHL1    C2 4043   6.100   1.839   7.047  0.6719  0.5557  0.9328
   55CHL1   H2A 4044   6.161   1.759   7.001 -0.5931  1.7928 -3.1857
   55CHL1   H2B 4045   6.177   1.919   7.053 -0.6575  2.1287 -1.6404
   55CHL1   C20 4046   5.782   1.809   7.933  0.0428  0.1381  0.0075
   55CHL1   H20 4047   5.791   1.915   7.964  1.8197  0.5526 -1.7992
   55CHL1   C21 4048   5.921   1.750   7.951 -0.8379  0.0633  0.2595
   55CHL1  H21A 4049   5.949   1.663   7.888  1.8595  0.9361  0.1861
   55CHL1  H21B 4050   5.947   1.732   8.057  2.1850  1.2477 -0.2343
   55CHL1  H21C 4051   5.997   1.820   7.909  0.5011 -2.3287 -1.4101
   55CHL1   C22 4052   5.682   1.738   8.029  0.8237  0.0909  0.0281
   55CHL1  H22A 4053   5.709   1.751   8.136 -1.5799  0.6697  0.5894
   55CHL1  H22B 4054   5.581   1.784   8.025  0.6874 -0.2762 -0.7468
   55CHL1   C23 4055   5.678   1.584   8.014 -0.0786  0.6477  0.0476
   55CHL1  H23A 4056   5.626   1.565   7.918 -1.4648  1.3906  0.6255
   55CHL1  H23B 4057   5.779   1.538   8.016 -0.5082 -0.5694 -2.9687
   55CHL1   C24 4058   5.604   1.513   8.137 -0.0113 -0.1161  0.3688
   55CHL1  H24A 4059   5.636   1.407   8.140 -2.4454 -0.9707 -2.2812
   55CHL1  H24B 4060   5.644   1.566   8.226 -2.1632  2.4699 -0.1189
   55CHL1   C25 4061   5.445   1.536   8.132 -0.6420  0.4148 -0.2542
   55CHL1   H25 4062   5.432   1.644   8.153  0.4023  0.6314 -0.7006
   55CHL1   C26 4063   5.377   1.499   8.000 -0.1883  0.1837  1.1335
   55CHL1  H26A 4064   5.406   1.397   7.966  0.4534 -0.0205  2.2433
   55CHL1  H26B 4065   5.268   1.508   8.016  0.0784  2.4716  1.9011
   55CHL1  H26C 4066   5.403   1.576   7.925  0.6015  1.3689  2.5857
   55CHL1   C27 4067   5.385   1.457   8.249  0.0664 -0.6128 -0.0099
   55CHL1  H27A 4068   5.406   1.347   8.253 -0.6657 -0.7825 -0.6448
   55CHL1  H27B 4069   5.437   1.503   8.335 -0.7052  1.1101 -0.4525
   55CHL1  H27C 4070   5.274   1.453   8.259  0.0558  0.2648  0.1926
   56CHL1    C3 4071   5.424   0.140   6.968  0.6154 -0.0051 -0.3650
   56CHL1    H3 4072   5.522   0.192   6.977  0.2894  0.4977  0.2935
   56CHL1    O3 4073   5.388   0.105   6.832  0.1361 -0.3452  0.0948
   56CHL1   H3' 4074   5.332   0.028   6.838  1.0700 -0.9134  2.0928
   56CHL1    C4 4075   5.426   0.020   7.064 -0.5012 -0.0963  0.2767
   56CHL1   H4A 4076   5.327  -0.030   7.056  0.4312 -1.8801 -0.4028
   56CHL1   H4B 4077   5.496  -0.063   7.038  1.4445  0.9273  2.0367
   56CHL1    C5 4078   5.451   0.064   7.207  1.0831  0.3293  0.0110
   56CHL1    C6 4079   5.560   0.022   7.281 -0.7635 -0.6031  1.2050
   56CHL1    H6 4080   5.622  -0.056   7.234  0.9084  1.3490  0.1066
   56CHL1    C7 4081   5.588   0.046   7.422 -0.8455 -0.1572  0.7851
   56CHL1   H7A 4082   5.600  -0.045   7.485 -0.6630  0.4828  1.7002
   56CHL1   H7B 4083   5.675   0.114   7.430  0.2652 -1.3646 -0.7556
   56CHL1    C8 4084   5.468   0.125   7.495  0.4549  0.6567 -0.4009
   56CHL1    H8 4085   5.400   0.042   7.523  3.2860 -0.7393  2.8142
   56CHL1   C14 4086   5.523   0.183   7.621 -0.2348  0.7723  0.2157
   56CHL1   H14 4087   5.591   0.265   7.590  0.1419  0.4843  0.2788
   56CHL1   C15 4088   5.599   0.095   7.723  0.4026  0.5428  0.8419
   56CHL1  H15A 4089   5.571  -0.013   7.730 -0.9122  0.9009  1.2643
   56CHL1  H15B 4090   5.708   0.092   7.703  0.4742  2.7660  0.8605
   56CHL1   C16 4091   5.583   0.169   7.862 -0.0639  0.4006 -0.4983
   56CHL1  H16A 4092   5.525   0.097   7.924 -0.2909  0.0019 -1.1660
   56CHL1  H16B 4093   5.675   0.191   7.920  0.2567  1.2618 -1.3229
   56CHL1   C17 4094   5.493   0.291   7.829 -0.8532 -0.3736 -0.3263
   56CHL1   H17 4095   5.554   0.380   7.802  1.1909 -1.1782  1.5086
   56CHL1   C13 4096   5.414   0.250   7.702  0.6215  0.5810 -0.4744
   56CHL1   C18 4097   5.308   0.149   7.748  0.0218  0.1502 -0.0790
   56CHL1  H18A 4098   5.256   0.100   7.662 -0.0680  2.0003 -1.1114
   56CHL1  H18B 4099   5.351   0.063   7.803 -0.1190 -2.2525 -3.5322
   56CHL1  H18C 4100   5.233   0.203   7.810 -1.2220 -0.7472 -0.7741
   56CHL1   C12 4101   5.350   0.360   7.616 -0.4847 -0.4419 -0.6340
   56CHL1  H12A 4102   5.265   0.401   7.674 -0.5279 -0.4891 -0.6642
   56CHL1  H12B 4103   5.435   0.431   7.602  0.1431 -1.2624 -1.0159
   56CHL1   C11 4104   5.300   0.306   7.484 -0.0033  0.5165 -0.0475
   56CHL1  H11A 4105   5.220   0.232   7.504  2.1505 -1.4611  1.5630
   56CHL1  H11B 4106   5.262   0.387   7.418 -1.0467  1.1139  1.2572
   56CHL1    C9 4107   5.404   0.233   7.405 -0.4492 -0.2811 -0.2937
   56CHL1    H9 4108   5.488   0.300   7.378 -1.4858  0.6951 -1.1112
   56CHL1   C10 4109   5.354   0.172   7.270 -0.1759  0.5780  0.5481
   56CHL1   C19 4110   5.221   0.098   7.293 -0.4197  0.4345  0.8526
   56CHL1  H19A 4111   5.249   0.006   7.350  1.9345 -1.5459 -3.2151
   56CHL1  H19B 4112   5.137   0.147   7.345 -0.9824 -1.1513  1.4837
   56CHL1  H19C 4113   5.184   0.054   7.197 -0.5818 -0.0069  1.1152
   56CHL1    C1 4114   5.323   0.288   7.163  0.3942  0.0161 -0.4117
   56CHL1   H1A 4115   5.228   0.335   7.199  0.5039 -0.5990  0.6952
   56CHL1   H1B 4116   5.401   0.366   7.173  1.9026 -1.4182 -0.8332
   56CHL1    C2 4117   5.309   0.240   7.017  0.7480  0.6112 -0.8368
   56CHL1   H2A 4118   5.303   0.335   6.959 -2.0001  0.9285 -0.1115
   56CHL1   H2B 4119   5.208   0.194   7.008  1.0735 -0.6480  1.6896
   56CHL1   C20 4120   5.418   0.332   7.964 -0.1072  0.3841  0.2362
   56CHL1   H20 4121   5.348   0.249   7.990  0.6974  0.1301  1.6312
   56CHL1   C21 4122   5.337   0.459   7.945 -0.2991 -0.3243 -0.2163
   56CHL1  H21A 4123   5.259   0.448   7.867 -1.2981  2.4954  0.3468
   56CHL1  H21B 4124   5.390   0.555   7.928  0.9529 -0.9202  0.2711
   56CHL1  H21C 4125   5.280   0.471   8.039  0.3593  0.6599  0.0614
   56CHL1   C22 4126   5.512   0.352   8.090 -0.8442  0.3238  0.4212
   56CHL1  H22A 4127   5.450   0.382   8.177 -0.7493  0.6890  0.3623
   56CHL1  H22B 4128   5.571   0.261   8.115 -1.4180 -0.3195 -0.5248
   56CHL1   C23 4129   5.617   0.463   8.076 -0.0526  0.0638 -0.0489
   56CHL1  H23A 4130   5.705   0.431   8.016 -1.4612  0.7118 -2.5261
   56CHL1  H23B 4131   5.583   0.545   8.010  1.2452  1.0956  0.5335
   56CHL1   C24 4132   5.652   0.528   8.209  0.0901 -0.0720 -0.0774
   56CHL1  H24A 4133   5.566   0.588   8.247  0.5475 -0.1626  1.1375
   56CHL1  H24B 4134   5.676   0.448   8.283  0.1853 -0.7953 -0.8781
   56CHL1   C25 4135   5.773   0.620   8.199 -0.0877  0.0647 -0.2042
   56CHL1   H25 4136   5.759   0.680   8.106 -0.0669  1.1277  0.4658
   56CHL1   C26 4137   5.780   0.718   8.317 -0.2386 -0.5940  0.6338
   56CHL1  H26A 4138   5.869   0.784   8.309  0.7299 -1.8459  0.9368
   56CHL1  H26B 4139   5.803   0.648   8.400 -0.8021 -2.3931 -0.6975
   56CHL1  H26C 4140   5.685   0.776   8.326  1.2618  1.8881  0.9029
   56CHL1   C27 4141   5.909   0.548   8.196  0.0849 -0.5075 -0.2048
   56CHL1  H27A 4142   5.905   0.471   8.116 -1.4227 -0.7524  0.0895
   56CHL1  H27B 4143   5.992   0.620   8.181 -0.3013  0.8140  3.3444
   56CHL1  H27C 4144   5.931   0.492   8.289  1.0138  0.7103  0.3248
   57SAPC     N 4145   5.493   2.607  10.932  0.2862 -0.1316 -0.5224
   57SAPC   C12 4146   5.512   2.685  10.802 -0.2108  0.7598  0.6536
   57SAPC  H12A 4147   5.521   2.612  10.723 -0.0559  1.0724  0.3852
   57SAPC  H12B 4148   5.600   2.747  10.799  0.6791 -0.5714 -1.5515
   57SAPC   C13 4149   5.363   2.542  10.935 -0.2548  0.1497 -0.5220
   57SAPC  H13A 4150   5.361   2.478  11.022 -1.8295 -0.8155 -1.2406
   57SAPC  H13B 4151   5.296   2.626  10.938  0.3014  0.5693  0.0853
   57SAPC  H13C 4152   5.335   2.473  10.856 -1.3629  0.6429 -0.5654
   57SAPC   C14 4153   5.602   2.506  10.948 -0.6415 -0.0919  0.4422
   57SAPC  H14A 4154   5.699   2.553  10.941 -0.7106 -0.0985 -0.5932
   57SAPC  H14B 4155   5.606   2.457  11.045 -0.5139  0.5841  0.7801
   57SAPC  H14C 4156   5.594   2.424  10.878 -1.6555  1.8251 -1.7500
   57SAPC   C15 4157   5.511   2.695  11.048  0.4788  0.7727  0.4930
   57SAPC  H15A 4158   5.433   2.769  11.059 -2.1985 -2.1047  2.0661
   57SAPC  H15B 4159   5.499   2.637  11.139 -0.4930 -0.6172 -0.5095
   57SAPC  H15C 4160   5.609   2.741  11.051  1.0056 -0.2765 -0.4929
   57SAPC   C11 4161   5.404   2.783  10.739  0.3198  0.3083 -0.6361
   57SAPC  H11A 4162   5.321   2.720  10.702  1.5105 -1.0451 -1.0220
   57SAPC  H11B 4163   5.443   2.836  10.649 -0.0678 -1.5871 -1.9266
   57SAPC     P 4164   5.225   2.915  10.882 -0.3888 -0.2544 -0.0339
   57SAPC   O13 4165   5.197   2.823  10.997  0.2667  0.1484  0.1761
   57SAPC   O14 4166   5.209   3.055  10.915 -0.2883 -0.3919  0.2017
   57SAPC   O12 4167   5.372   2.886  10.838 -0.2705  0.5261 -0.4270
   57SAPC   O11 4168   5.140   2.875  10.758 -0.5311 -0.3869  0.0229
   57SAPC    C1 4169   5.042   2.970  10.701  1.2435  0.0895  0.1929
   57SAPC    HA 4170   4.955   2.988  10.768  0.6362 -0.8104 -0.3557
   57SAPC    HB 4171   5.094   3.065  10.675  1.4750 -0.5646 -1.7731
   57SAPC    C2 4172   4.986   2.912  10.565 -0.7022 -0.4401  0.3425
   57SAPC    HS 4173   4.879   2.942  10.561 -0.0456  1.8874 -0.2710
   57SAPC   O21 4174   4.983   2.769  10.550  0.1279 -0.4903 -0.3353
   57SAPC   C21 4175   4.921   2.705  10.641 -0.2587  0.5193  0.0492
   57SAPC   O22 4176   4.841   2.755  10.718  0.3923  0.0036 -0.0570
   57SAPC   C22 4177   4.959   2.560  10.634  0.4104  0.0558 -0.3036
   57SAPC   H2R 4178   5.065   2.551  10.669  0.3948 -2.5423 -0.8146
   57SAPC   H2S 4179   4.900   2.505  10.711  0.6764  0.9916  0.5881
   57SAPC    C3 4180   5.064   2.980  10.448 -0.4542 -0.2572 -0.9356
   57SAPC    HX 4181   5.020   2.941  10.353 -2.1423  2.1526 -1.1890
   57SAPC    HY 4182   5.173   2.963  10.440 -0.0982  0.9891  1.0248
   57SAPC   O31 4183   5.059   3.127  10.460 -0.1464  0.1313 -0.1144
   57SAPC   C31 4184   4.958   3.185  10.400 -0.0325 -0.3821 -0.3849
   57SAPC   O32 4185   4.873   3.130  10.336 -0.1079 -0.1739  0.1293
   57SAPC   C32 4186   4.984   3.334  10.388 -0.7797  0.4945  0.1706
   57SAPC   H2X 4187   5.079   3.339  10.331 -0.3509 -0.2252  0.8056
   57SAPC   H2Y 4188   5.008   3.359  10.494  1.4872 -1.0602  0.0471
   57SAPC   C23 4189   4.925   2.491  10.498  0.3311 -0.7772  0.3466
   57SAPC   H3R 4190   4.830   2.535  10.462  0.7595 -0.8600 -0.9113
   57SAPC   H3S 4191   4.916   2.381  10.510  1.8737 -0.8909  0.6775
   57SAPC   C24 4192   5.046   2.508  10.406  0.2172  0.2207  0.8339
   57SAPC   H4R 4193   5.135   2.494  10.472  2.1764  0.3929 -1.7070
   57SAPC   H4S 4194   5.057   2.608  10.360  1.0538  0.3787  1.3597
   57SAPC   C25 4195   5.041   2.391  10.310  0.1662 -0.7004  0.2136
   57SAPC   H5R 4196   5.067   2.296  10.357  5.5674 -0.3611 -1.7965
   57SAPC   C26 4197   5.023   2.396  10.173  1.2240 -0.1447 -0.0647
   57SAPC   H6R 4198   5.014   2.308  10.108  0.7225 -0.3329  0.2584
   57SAPC   C27 4199   4.998   2.528  10.102  0.0463  0.2170 -0.2143
   57SAPC   H7R 4200   4.953   2.605  10.168  0.0797 -1.4807  1.8285
   57SAPC   H7S 4201   4.929   2.512  10.017  0.5195 -0.9527 -0.3858
   57SAPC   C28 4202   5.123   2.580  10.040 -0.0012 -0.3066  0.0709
   57SAPC   H8R 4203   5.182   2.651  10.099  1.6356 -0.7877 -0.9542
   57SAPC   C29 4204   5.176   2.534   9.928  0.1726 -0.2235  0.9230
   57SAPC   H9R 4205   5.265   2.588   9.893  0.3067  0.4685  2.3131
   57SAPC  C210 4206   5.130   2.414   9.844 -0.3592 -0.3567 -0.5056
   57SAPC  H10R 4207   5.029   2.387   9.880  0.0769 -0.3750  0.7487
   57SAPC  H10S 4208   5.204   2.335   9.871  0.8566  1.2502  1.0406
   57SAPC  C211 4209   5.131   2.423   9.689  0.2724 -0.2164 -0.8256
   57SAPC  H11R 4210   5.188   2.507   9.646 -0.5197  1.1414  0.7044
   57SAPC  C212 4211   5.071   2.332   9.610 -0.2739  0.0445  0.1460
   57SAPC  H12R 4212   5.071   2.352   9.502  0.6288  1.4602  0.3921
   57SAPC  C213 4213   4.999   2.216   9.668  0.1487  0.6215 -0.1234
   57SAPC  H13R 4214   5.043   2.181   9.764 -0.5185 -0.1238 -0.0855
   57SAPC  H13S 4215   5.020   2.131   9.599  0.2554 -0.8469  1.6504
   57SAPC  C214 4216   4.854   2.246   9.684  0.1718  0.6230 -0.8668
   57SAPC  H14R 4217   4.836   2.285   9.785 -1.3687 -2.1908  0.0070
   57SAPC  C215 4218   4.754   2.230   9.600 -0.2507  0.1274  0.4460
   57SAPC  H15R 4219   4.652   2.255   9.632  0.0866  0.9479  0.9135
   57SAPC  C216 4220   4.777   2.165   9.466 -0.3518  0.9813 -0.4202
   57SAPC  H16R 4221   4.874   2.111   9.463 -0.3138  1.0437 -0.3231
   57SAPC  H16S 4222   4.773   2.239   9.383  0.6641  2.2514  0.6389
   57SAPC  C217 4223   4.658   2.066   9.453  0.0741  0.0431 -0.0095
   57SAPC  H17R 4224   4.642   2.008   9.547  0.4061  0.1381  0.1063
   57SAPC  H17S 4225   4.685   1.992   9.375  0.0093 -0.7790  0.7383
   57SAPC  C218 4226   4.531   2.133   9.404 -0.3547 -0.8868  0.4547
   57SAPC  H18R 4227   4.517   2.221   9.470  0.7757 -1.3226  1.2877
   57SAPC  H18S 4228   4.437   2.075   9.417 -0.3137 -1.6545 -2.3038
   57SAPC  C219 4229   4.544   2.189   9.259 -0.2778 -0.3050  0.7857
   57SAPC  H19R 4230   4.641   2.181   9.205 -0.6181 -0.1352  0.1475
   57SAPC  H19S 4231   4.532   2.299   9.274  3.0585  0.2104  0.1595
   57SAPC  C220 4232   4.434   2.130   9.168 -0.0151  0.7999 -0.7041
   57SAPC  H20R 4233   4.432   2.189   9.074 -1.2958 -1.1956 -1.9824
   57SAPC  H20S 4234   4.332   2.138   9.210  0.1192  0.8510 -0.3850
   57SAPC  H20T 4235   4.464   2.024   9.151  0.5670  0.6157  1.4098
   57SAPC   C33 4236   4.875   3.428  10.331 -0.5502  0.2955 -0.0021
   57SAPC   H3X 4237   4.909   3.532  10.350 -0.8481  0.3406  0.2791
   57SAPC   H3Y 4238   4.773   3.413  10.372 -0.5753  0.4545 -0.0049
   57SAPC   C34 4239   4.865   3.437  10.170  0.5504 -0.4292 -0.0290
   57SAPC   H4X 4240   4.966   3.443  10.124 -0.0082 -1.0901 -1.3760
   57SAPC   H4Y 4241   4.816   3.534  10.144  1.0101 -0.4320 -0.9439
   57SAPC   C35 4242   4.799   3.318  10.101  0.5821  0.6916  0.3046
   57SAPC   H5X 4243   4.689   3.319  10.121  0.4306  1.2891 -0.4753
   57SAPC   H5Y 4244   4.837   3.217  10.127 -0.3561 -0.1807 -1.5532
   57SAPC   C36 4245   4.814   3.317   9.943  0.0992 -0.2956  0.0607
   57SAPC   H6X 4246   4.921   3.340   9.921  0.2718 -0.4751  0.7187
   57SAPC   H6Y 4247   4.761   3.405   9.901 -0.1738 -0.8915 -0.8592
   57SAPC   C37 4248   4.760   3.196   9.865  0.0399  0.3213  0.6948
   57SAPC   H7X 4249   4.649   3.199   9.880  0.1752 -0.8559  2.0600
   57SAPC   H7Y 4250   4.797   3.100   9.907  0.3709 -1.0522 -2.5632
   57SAPC   C38 4251   4.807   3.202   9.720 -0.3646  0.1798 -0.1169
   57SAPC   H8X 4252   4.914   3.176   9.711 -1.5443 -4.9842 -0.6176
   57SAPC   H8Y 4253   4.811   3.309   9.691  1.7543  0.1761  0.1322
   57SAPC   C39 4254   4.723   3.117   9.617 -0.5068  0.0809  0.1748
   57SAPC   H9X 4255   4.624   3.168   9.613  0.0765  1.3931  2.1027
   57SAPC   H9Y 4256   4.713   3.010   9.643 -0.3384 -0.0864 -0.4425
   57SAPC  C310 4257   4.781   3.116   9.469  0.6101  0.4785 -0.0106
   57SAPC  H10X 4258   4.874   3.055   9.461 -0.2962 -1.3132  2.6261
   57SAPC  H10Y 4259   4.811   3.218   9.436 -1.8151  0.8794 -1.0804
   57SAPC  C311 4260   4.689   3.065   9.370  0.3431  0.2793  1.0507
   57SAPC  H11X 4261   4.605   3.138   9.369 -0.7049 -0.8845  2.2525
   57SAPC  H11Y 4262   4.650   2.971   9.414  0.4670  0.1718  0.9298
   57SAPC  C312 4263   4.733   3.024   9.229 -0.4413  0.0360 -0.7475
   57SAPC  H12X 4264   4.819   2.954   9.231  1.5260  2.4242  2.0730
   57SAPC  H12Y 4265   4.773   3.113   9.176  0.5754  0.1483  0.1967
   57SAPC  C313 4266   4.619   2.970   9.140 -0.0651  0.5702 -0.6558
   57SAPC  H13X 4267   4.657   2.965   9.035 -3.2261  2.6109 -1.9930
   57SAPC  H13Y 4268   4.539   3.046   9.131 -1.3215 -0.4603  1.5104
   57SAPC  C314 4269   4.565   2.837   9.173  0.3655  0.1931  0.1442
   57SAPC  H14X 4270   4.553   2.814   9.281  0.7021 -1.2083 -0.1054
   57SAPC  H14Y 4271   4.642   2.760   9.151  2.0166  1.2477  1.9782
   57SAPC  C315 4272   4.431   2.814   9.098 -0.5640 -0.3552  0.5739
   57SAPC  H15X 4273   4.454   2.825   8.989 -0.4848 -0.4444  0.5814
   57SAPC  H15Y 4274   4.353   2.890   9.121 -1.9211 -0.5697 -3.0165
   57SAPC  C316 4275   4.364   2.679   9.115 -0.4298  0.8366 -0.3942
   57SAPC  H16X 4276   4.257   2.681   9.085 -0.3586 -0.3479 -0.7549
   57SAPC  H16Y 4277   4.366   2.670   9.226  0.6527  0.1851 -0.4550
   57SAPC  C317 4278   4.434   2.553   9.060  0.2377 -0.9601 -0.5197
   57SAPC  H17X 4279   4.378   2.468   9.104 -0.8691  1.4367  2.8626
   57SAPC  H17Y 4280   4.537   2.556   9.099  0.2607  2.3695 -0.6692
   57SAPC  C318 4281   4.437   2.547   8.908 -0.6525 -0.6278  0.7093
   57SAPC  H18X 4282   4.343   2.574   8.854  0.0380 -2.5330 -1.5104
   57SAPC  H18Y 4283   4.488   2.456   8.870  1.5700  0.7649  0.2128
   57SAPC  H18Z 4284   4.511   2.617   8.864 -1.8097 -0.6829 -1.4486
   58SAPC     N 4285   0.761   1.225  10.567 -0.0947  0.4261 -0.1238
   58SAPC   C12 4286   0.623   1.281  10.537 -0.3304 -0.8490  0.2784
   58SAPC  H12A 4287   0.565   1.203  10.490  0.0535 -0.7982 -0.2862
   58SAPC  H12B 4288   0.629   1.344  10.449 -0.8229 -0.3446  0.6014
   58SAPC   C13 4289   0.753   1.112  10.664  0.0360  0.1979  0.0558
   58SAPC  H13A 4290   0.849   1.066  10.677  0.0563  0.3420  0.4221
   58SAPC  H13B 4291   0.724   1.148  10.762 -1.2381  1.3470 -0.7174
   58SAPC  H13C 4292   0.676   1.043  10.632  0.9495  0.0690 -1.8966
   58SAPC   C14 4293   0.819   1.182  10.434 -0.1169 -0.2455 -0.0206
   58SAPC  H14A 4294   0.902   1.114  10.449  0.4563  0.8912  2.1913
   58SAPC  H14B 4295   0.739   1.124  10.390  0.3644 -0.6024 -0.4393
   58SAPC  H14C 4296   0.844   1.263  10.367  0.8223 -1.5959 -1.3369
   58SAPC   C15 4297   0.841   1.341  10.617 -0.0354 -0.3473 -0.5521
   58SAPC  H15A 4298   0.848   1.422  10.547  3.5547 -0.4989 -0.4354
   58SAPC  H15B 4299   0.775   1.382  10.692 -1.1285 -2.0379 -0.5564
   58SAPC  H15C 4300   0.935   1.315  10.663 -1.1787  0.2517  2.2904
   58SAPC   C11 4301   0.540   1.357  10.640  0.0776  0.7652 -0.0948
   58SAPC  H11A 4302   0.544   1.296  10.733  3.0218  0.9053 -0.0844
   58SAPC  H11B 4303   0.432   1.362  10.615  0.1186 -1.0167 -0.7045
   58SAPC     P 4304   0.564   1.613  10.601  0.1603 -0.2582  0.0511
   58SAPC   O13 4305   0.440   1.667  10.656 -0.4777 -0.4944  0.0242
   58SAPC   O14 4306   0.685   1.695  10.617 -0.2303  0.7638  0.2406
   58SAPC   O12 4307   0.592   1.479  10.680  0.2303  0.0559 -0.7331
   58SAPC   O11 4308   0.554   1.558  10.453  0.1613 -0.0287 -0.1420
   58SAPC    C1 4309   0.583   1.651  10.346 -0.7133  0.7503  0.8396
   58SAPC    HA 4310   0.530   1.749  10.360 -1.4489  0.3785  0.6938
   58SAPC    HB 4311   0.691   1.677  10.354  0.0112 -2.4610  2.1773
   58SAPC    C2 4312   0.551   1.585  10.215 -0.2996  0.7078 -0.6786
   58SAPC    HS 4313   0.620   1.501  10.193 -1.2837 -0.4172  0.4732
   58SAPC   O21 4314   0.547   1.681  10.112 -0.2766  0.0171  0.0151
   58SAPC   C21 4315   0.672   1.714  10.067 -0.5818 -0.5793  0.2817
   58SAPC   O22 4316   0.774   1.660  10.100 -0.0719 -0.7355  0.0053
   58SAPC   C22 4317   0.659   1.817   9.954  0.2210 -0.4556 -0.5489
   58SAPC   H2R 4318   0.603   1.894  10.010 -0.7615 -0.4926 -1.4642
   58SAPC   H2S 4319   0.754   1.860   9.914  0.6074  1.0544  1.9449
   58SAPC    C3 4320   0.418   1.509  10.231  0.3413  1.0475  0.3501
   58SAPC    HX 4321   0.334   1.575  10.260 -0.0719  0.0367  1.4759
   58SAPC    HY 4322   0.428   1.433  10.312 -0.0540 -0.0816 -0.6302
   58SAPC   O31 4323   0.379   1.450  10.103  0.2253  0.2514 -0.2085
   58SAPC   C31 4324   0.453   1.337  10.064  0.5296 -0.0472  0.3123
   58SAPC   O32 4325   0.540   1.286  10.132 -0.1070 -0.3108 -0.4620
   58SAPC   C32 4326   0.398   1.278   9.936 -0.2856  0.8139  0.5290
   58SAPC   H2X 4327   0.290   1.256   9.948  0.0021 -1.4922 -1.0291
   58SAPC   H2Y 4328   0.452   1.182   9.925 -3.7096 -1.0966 -0.2956
   58SAPC   C23 4329   0.566   1.774   9.838  0.2091  0.1438  0.5134
   58SAPC   H3R 4330   0.516   1.867   9.803 -1.4562  0.0951  2.6298
   58SAPC   H3S 4331   0.488   1.706   9.879  2.1645 -2.7286 -0.3940
   58SAPC   C24 4332   0.631   1.704   9.717  0.5513  0.1519 -0.0473
   58SAPC   H4R 4333   0.554   1.695   9.637  0.3914  0.7498  0.0415
   58SAPC   H4S 4334   0.663   1.603   9.751 -1.8328 -0.1365  1.3966
   58SAPC   C25 4335   0.750   1.776   9.644  0.7402  0.5754 -0.1501
   58SAPC   H5R 4336   0.839   1.793   9.707 -0.9614  0.5857  2.3509
   58SAPC   C26 4337   0.750   1.827   9.520  0.3633 -0.5072  0.0984
   58SAPC   H6R 4338   0.843   1.877   9.489 -0.0346  1.1184  1.4380
   58SAPC   C27 4339   0.632   1.835   9.426  0.8159  0.2636  0.4825
   58SAPC   H7R 4340   0.636   1.928   9.365  0.6590  0.2281  0.4174
   58SAPC   H7S 4341   0.536   1.831   9.482  1.1009  0.7392  1.0160
   58SAPC   C28 4342   0.624   1.727   9.313 -0.1910  0.6458  0.6400
   58SAPC   H8R 4343   0.658   1.625   9.338  0.8690  0.6300 -0.8398
   58SAPC   C29 4344   0.567   1.743   9.193 -0.2384  0.1901 -0.5672
   58SAPC   H9R 4345   0.576   1.663   9.118 -1.2068  0.6806 -1.2144
   58SAPC  C210 4346   0.497   1.868   9.145 -0.5290 -0.0075  0.2469
   58SAPC  H10R 4347   0.487   1.956   9.212 -3.0502  1.2346 -1.6673
   58SAPC  H10S 4348   0.390   1.846   9.123 -0.8165  2.5357 -1.0331
   58SAPC  C211 4349   0.563   1.922   9.015 -0.4510 -0.4487  0.1062
   58SAPC  H11R 4350   0.631   2.009   9.019 -0.6086 -0.3695  1.2743
   58SAPC  C212 4351   0.554   1.868   8.888 -1.1105  0.0500 -0.5871
   58SAPC  H12R 4352   0.611   1.921   8.810 -0.5542  0.0286 -0.1974
   58SAPC  C213 4353   0.476   1.749   8.853 -0.0897 -0.5143 -0.6783
   58SAPC  H13R 4354   0.408   1.781   8.772 -0.7086  1.2359  0.5198
   58SAPC  H13S 4355   0.403   1.713   8.928  0.1263 -0.8685 -0.6310
   58SAPC  C214 4356   0.563   1.631   8.833  0.0351 -0.3452  0.2572
   58SAPC  H14R 4357   0.584   1.570   8.923 -0.8834  0.8898  1.3257
   58SAPC  C215 4358   0.593   1.588   8.713  0.0615  0.8100 -0.6723
   58SAPC  H15R 4359   0.656   1.498   8.703 -1.4478 -0.4675  0.9487
   58SAPC  C216 4360   0.561   1.665   8.585  0.4628 -0.0966  0.6489
   58SAPC  H16R 4361   0.459   1.708   8.590 -0.9749 -3.3471  0.6747
   58SAPC  H16S 4362   0.548   1.589   8.505  0.5877 -1.1837  1.6299
   58SAPC  C217 4363   0.664   1.767   8.541 -0.3832 -0.8143 -0.2051
   58SAPC  H17R 4364   0.759   1.711   8.527 -0.4885 -1.0774  0.1055
   58SAPC  H17S 4365   0.680   1.849   8.614 -1.8129 -0.7508  0.0474
   58SAPC  C218 4366   0.633   1.827   8.398 -0.0215 -0.0408 -1.2868
   58SAPC  H18R 4367   0.690   1.922   8.391  0.6871 -0.4530 -1.0814
   58SAPC  H18S 4368   0.525   1.851   8.385 -0.1083 -0.2098 -0.8578
   58SAPC  C219 4369   0.674   1.735   8.284  0.1691 -0.3306  0.1516
   58SAPC  H19R 4370   0.628   1.636   8.306 -0.4806 -0.0263  0.1971
   58SAPC  H19S 4371   0.784   1.720   8.278  0.0536 -1.4267  0.7766
   58SAPC  C220 4372   0.632   1.793   8.150  0.2368  0.0211 -0.2506
   58SAPC  H20R 4373   0.527   1.831   8.146  0.3217  0.2667 -0.1568
   58SAPC  H20S 4374   0.644   1.719   8.067 -1.1631  0.4384 -0.8395
   58SAPC  H20T 4375   0.695   1.880   8.121  1.3607 -0.2144  1.4418
   58SAPC   C33 4376   0.411   1.363   9.806  0.2337 -0.7620 -0.8013
   58SAPC   H3X 4377   0.518   1.390   9.793  0.3124 -1.4101 -1.5662
   58SAPC   H3Y 4378   0.359   1.461   9.816  1.1062 -0.3727 -0.0973
   58SAPC   C34 4379   0.376   1.285   9.686 -0.0941  0.0777 -0.7690
   58SAPC   H4X 4380   0.268   1.259   9.694  0.0631 -1.4721 -3.1599
   58SAPC   H4Y 4381   0.428   1.187   9.692  3.1836  1.4952 -4.1847
   58SAPC   C35 4382   0.413   1.353   9.551  0.0416 -0.5654  0.2169
   58SAPC   H5X 4383   0.510   1.310   9.518  0.3953  0.3993 -0.0370
   58SAPC   H5Y 4384   0.426   1.463   9.566  1.0209 -0.4889 -1.0989
   58SAPC   C36 4385   0.314   1.325   9.437 -0.2320  1.0193 -0.5445
   58SAPC   H6X 4386   0.224   1.388   9.451 -1.4076 -0.0820 -2.9058
   58SAPC   H6Y 4387   0.286   1.218   9.448 -0.6528  1.2947  1.1366
   58SAPC   C37 4388   0.360   1.330   9.291  0.2172  0.0754 -0.1997
   58SAPC   H7X 4389   0.461   1.283   9.286  0.0220 -0.3700  0.0293
   58SAPC   H7Y 4390   0.360   1.435   9.254 -0.0223 -0.3689 -1.4761
   58SAPC   C38 4391   0.270   1.245   9.196 -0.5259  0.1018  0.3072
   58SAPC   H8X 4392   0.179   1.307   9.184 -0.2028  0.8781  1.7571
   58SAPC   H8Y 4393   0.257   1.150   9.252 -1.2978  0.5309  0.8743
   58SAPC   C39 4394   0.336   1.232   9.055 -0.1262 -1.1842 -0.9056
   58SAPC   H9X 4395   0.423   1.163   9.069 -1.0370 -2.5450 -1.8863
   58SAPC   H9Y 4396   0.372   1.329   9.016 -0.2200 -0.2002  1.3994
   58SAPC  C310 4397   0.242   1.147   8.957  0.1415 -0.2181 -0.0285
   58SAPC  H10X 4398   0.248   1.042   8.994  1.4409  0.1141  0.7517
   58SAPC  H10Y 4399   0.282   1.148   8.853  1.0795 -1.2562  0.3051
   58SAPC  C311 4400   0.088   1.189   8.958 -0.3026 -0.1639 -0.7675
   58SAPC  H11X 4401   0.097   1.300   8.967 -1.8477 -0.0572 -0.4542
   58SAPC  H11Y 4402   0.042   1.146   9.050 -0.7018  1.5900 -0.1085
   58SAPC  C312 4403   0.018   1.138   8.830  0.7073 -0.6837 -0.2121
   58SAPC  H12X 4404  -0.015   1.033   8.850  1.3363 -0.8443 -0.0179
   58SAPC  H12Y 4405   0.077   1.157   8.738  0.9162  0.7062  0.2044
   58SAPC  C313 4406  -0.104   1.230   8.806  0.1257 -0.2220 -0.6445
   58SAPC  H13X 4407  -0.067   1.335   8.812 -2.0498  0.5079  0.8442
   58SAPC  H13Y 4408  -0.174   1.234   8.892 -0.0542  2.3936 -0.8677
   58SAPC  C314 4409  -0.182   1.213   8.678 -0.1423  0.2906 -0.6060
   58SAPC  H14X 4410  -0.207   1.106   8.659 -2.1619  0.6706 -0.1855
   58SAPC  H14Y 4411  -0.115   1.242   8.594  1.1336 -0.8872 -0.0249
   58SAPC  C315 4412  -0.312   1.302   8.672 -0.3534  0.5996  0.0975
   58SAPC  H15X 4413  -0.277   1.405   8.647 -2.1456  1.0985 -0.4712
   58SAPC  H15Y 4414  -0.358   1.298   8.773 -0.9788  0.4449 -0.1889
   58SAPC  C316 4415  -0.411   1.264   8.559 -0.0936 -0.2299 -0.5037
   58SAPC  H16X 4416  -0.484   1.348   8.556 -1.1829 -1.1799 -1.1461
   58SAPC  H16Y 4417  -0.467   1.176   8.597  2.1529 -1.4718  0.0289
   58SAPC  C317 4418  -0.348   1.245   8.425  0.0652 -0.0605 -0.9492
   58SAPC  H17X 4419  -0.427   1.220   8.350  0.0369 -2.4973 -0.1399
   58SAPC  H17Y 4420  -0.278   1.160   8.423  1.4128  0.9719  1.0419
   58SAPC  C318 4421  -0.271   1.370   8.370  1.1585 -0.0172 -0.7443
   58SAPC  H18X 4422  -0.274   1.381   8.259  0.9346  0.3235 -0.7068
   58SAPC  H18Y 4423  -0.167   1.373   8.406  0.5501  0.6082  0.9984
   58SAPC  H18Z 4424  -0.331   1.454   8.411  0.8677 -0.5701 -0.0430
   59SAPC     N 4425   1.789   2.363  11.311 -0.5321 -0.3955  0.5990
   59SAPC   C12 4426   1.916   2.435  11.352  1.0620  1.0375 -0.3609
   59SAPC  H12A 4427   1.982   2.374  11.412 -3.1333 -2.2185  1.1857
   59SAPC  H12B 4428   1.884   2.519  11.412 -0.2772  0.1108  0.2373
   59SAPC   C13 4429   1.685   2.450  11.245  0.9475 -0.3247 -0.8396
   59SAPC  H13A 4430   1.650   2.525  11.315 -0.2656 -1.3481 -0.3429
   59SAPC  H13B 4431   1.720   2.490  11.150  0.2493  1.3678 -0.4073
   59SAPC  H13C 4432   1.605   2.383  11.219  2.3937 -2.7860  0.9402
   59SAPC   C14 4433   1.810   2.244  11.227 -0.3243 -0.1529 -0.7525
   59SAPC  H14A 4434   1.718   2.212  11.180 -0.9918  3.0168 -1.7695
   59SAPC  H14B 4435   1.874   2.262  11.142  1.3285 -0.6681  0.3556
   59SAPC  H14C 4436   1.863   2.163  11.274 -0.2197  0.0595 -0.4989
   59SAPC   C15 4437   1.718   2.302  11.432 -0.9414 -0.1853  0.3849
   59SAPC  H15A 4438   1.648   2.230  11.392  1.4191 -2.4815  0.2533
   59SAPC  H15B 4439   1.786   2.246  11.495  0.6016  0.1221 -0.9708
   59SAPC  H15C 4440   1.653   2.374  11.479  0.7820  0.6906  1.4656
   59SAPC   C11 4441   1.992   2.500  11.234 -0.1697  0.3586  0.0818
   59SAPC  H11A 4442   2.069   2.567  11.276 -2.3933  1.7373  2.0942
   59SAPC  H11B 4443   1.921   2.571  11.186 -1.7417 -0.0148  1.7961
   59SAPC     P 4444   2.066   2.392  11.005 -0.0354  0.1586  0.4157
   59SAPC   O13 4445   2.198   2.323  10.988  0.7509 -0.2608  0.8200
   59SAPC   O14 4446   1.949   2.325  10.939 -0.5841 -0.1947  0.6668
   59SAPC   O12 4447   2.046   2.391  11.158 -0.5634  0.0631  0.4702
   59SAPC   O11 4448   2.081   2.539  10.968  0.2459  0.5834 -0.5973
   59SAPC    C1 4449   1.974   2.621  10.928  0.2402  0.2944 -0.2555
   59SAPC    HA 4450   1.875   2.586  10.963 -0.2161  1.7495 -0.0330
   59SAPC    HB 4451   1.988   2.721  10.975  1.4107 -1.2020  2.7625
   59SAPC    C2 4452   1.966   2.648  10.773 -0.0516 -0.8124 -0.5554
   59SAPC    HS 4453   1.903   2.573  10.720  0.2103 -1.1131 -0.4386
   59SAPC   O21 4454   2.108   2.644  10.724  0.6537 -0.4147 -0.6377
   59SAPC   C21 4455   2.146   2.522  10.689  0.3498  0.0403 -0.3690
   59SAPC   O22 4456   2.072   2.421  10.684 -0.0770 -0.6789 -0.1372
   59SAPC   C22 4457   2.298   2.522  10.671 -0.4058 -0.1784 -0.1485
   59SAPC   H2R 4458   2.329   2.544  10.776 -0.3535  1.7375 -0.5341
   59SAPC   H2S 4459   2.344   2.426  10.640 -0.6641 -0.2205 -0.4045
   59SAPC    C3 4460   1.897   2.783  10.745 -0.6479  0.0536 -0.2524
   59SAPC    HX 4461   1.962   2.872  10.765  0.2080 -0.6409  0.0786
   59SAPC    HY 4462   1.813   2.791  10.817 -0.4834 -1.8904  0.1754
   59SAPC   O31 4463   1.837   2.791  10.616  0.1422  0.1160  0.3036
   59SAPC   C31 4464   1.908   2.845  10.510  0.4665 -0.3284 -0.0757
   59SAPC   O32 4465   2.020   2.891  10.514  0.3016  0.1699  0.0581
   59SAPC   C32 4466   1.827   2.833  10.383  0.4868 -0.7833 -0.7359
   59SAPC   H2X 4467   1.761   2.921  10.368  1.0826 -0.1896  0.0357
   59SAPC   H2Y 4468   1.776   2.735  10.384  0.6859 -0.9747 -3.9568
   59SAPC   C23 4469   2.350   2.643  10.578 -0.5695 -0.2659  0.5248
   59SAPC   H3R 4470   2.457   2.667  10.598 -0.1231 -0.7378 -1.2275
   59SAPC   H3S 4471   2.285   2.732  10.583  2.1164  1.9805 -2.5877
   59SAPC   C24 4472   2.351   2.615  10.422 -0.2927  0.3399 -0.1241
   59SAPC   H4R 4473   2.248   2.581  10.397 -0.3599  0.2156  0.3072
   59SAPC   H4S 4474   2.418   2.530  10.400  1.5395  1.6641  0.2307
   59SAPC   C25 4475   2.388   2.722  10.323 -0.9072  0.4577 -0.1457
   59SAPC   H5R 4476   2.389   2.826  10.359  2.1705  0.6714 -0.7556
   59SAPC   C26 4477   2.420   2.710  10.197  0.6138  0.2592 -0.1551
   59SAPC   H6R 4478   2.441   2.801  10.137  1.0175 -0.5958 -1.3290
   59SAPC   C27 4479   2.434   2.576  10.127  0.3051  0.1415  0.1520
   59SAPC   H7R 4480   2.443   2.490  10.196 -1.3688  1.7979  2.5293
   59SAPC   H7S 4481   2.532   2.574  10.075 -0.8866  1.0376 -2.1881
   59SAPC   C28 4482   2.330   2.547  10.026 -0.6170 -0.0838  0.7504
   59SAPC   H8R 4483   2.235   2.506  10.063 -1.0941 -0.0775 -0.4577
   59SAPC   C29 4484   2.336   2.568   9.889  0.2962 -0.1490  0.6209
   59SAPC   H9R 4485   2.245   2.531   9.839  0.2008  1.8205 -0.6922
   59SAPC  C210 4486   2.439   2.630   9.800  0.1641 -0.3948 -0.3016
   59SAPC  H10R 4487   2.499   2.704   9.857 -0.1695 -0.4375  0.1056
   59SAPC  H10S 4488   2.393   2.678   9.711  0.5352  1.6039  0.5771
   59SAPC  C211 4489   2.545   2.526   9.765  0.2135 -0.2766 -0.3810
   59SAPC  H11R 4490   2.586   2.455   9.839  0.5764  2.2318  1.8955
   59SAPC  C212 4491   2.599   2.511   9.637  0.1992 -0.4477  0.4794
   59SAPC  H12R 4492   2.682   2.442   9.620  1.4544  0.8327  1.2744
   59SAPC  C213 4493   2.569   2.590   9.510 -0.1549  0.2151  0.2063
   59SAPC  H13R 4494   2.664   2.630   9.470 -0.7372  0.6737 -0.7459
   59SAPC  H13S 4495   2.497   2.673   9.530 -0.6905 -0.1954  0.0014
   59SAPC  C214 4496   2.525   2.504   9.394 -0.2348  0.0181 -0.1237
   59SAPC  H14R 4497   2.540   2.395   9.398 -0.1473  0.0262 -0.2237
   59SAPC  C215 4498   2.464   2.534   9.280 -0.1832 -0.5684 -0.2811
   59SAPC  H15R 4499   2.440   2.454   9.210 -1.8259  0.6262 -1.1098
   59SAPC  C216 4500   2.427   2.667   9.227  0.2141 -1.0024  0.4490
   59SAPC  H16R 4501   2.463   2.745   9.298  2.6718 -0.2937 -1.4972
   59SAPC  H16S 4502   2.318   2.683   9.211  0.4575  2.0313  1.3673
   59SAPC  C217 4503   2.506   2.700   9.101 -0.2675 -0.0574  0.1765
   59SAPC  H17R 4504   2.610   2.702   9.140 -1.0024  2.2072  2.1179
   59SAPC  H17S 4505   2.484   2.803   9.065  0.0449 -0.4211 -1.0699
   59SAPC  C218 4506   2.481   2.614   8.980  0.1306  0.5570 -0.2754
   59SAPC  H18R 4507   2.382   2.619   8.931  0.4209  1.2513 -0.7944
   59SAPC  H18S 4508   2.498   2.507   9.005  0.3751  0.6203 -0.1651
   59SAPC  C219 4509   2.580   2.642   8.867 -0.4888  0.0798 -0.6179
   59SAPC  H19R 4510   2.568   2.560   8.793  1.7036 -2.0614  1.3095
   59SAPC  H19S 4511   2.686   2.626   8.897 -0.4761 -2.3443 -1.8236
   59SAPC  C220 4512   2.550   2.781   8.809 -0.1931  0.4499  0.0409
   59SAPC  H20R 4513   2.580   2.863   8.878 -0.7531  0.4493  0.2838
   59SAPC  H20S 4514   2.442   2.795   8.787  0.2063  1.6556 -1.2609
   59SAPC  H20T 4515   2.599   2.794   8.710  1.1200 -3.2052  0.1530
   59SAPC   C33 4516   1.929   2.830  10.271 -0.2554  0.3417  0.9182
   59SAPC   H3X 4517   2.024   2.778  10.298 -0.3627 -1.4640 -1.9316
   59SAPC   H3Y 4518   1.952   2.938  10.256  0.9494 -0.0037  0.1889
   59SAPC   C34 4519   1.881   2.762  10.150 -0.6207  0.2592 -0.1692
   59SAPC   H4X 4520   1.776   2.794  10.130 -0.9541  0.5172  1.8871
   59SAPC   H4Y 4521   1.867   2.653  10.168  2.0177 -0.4675 -2.2651
   59SAPC   C35 4522   1.987   2.771  10.040  0.2275 -0.5648 -0.0445
   59SAPC   H5X 4523   2.074   2.716  10.082 -0.6422 -1.1877  0.9561
   59SAPC   H5Y 4524   2.011   2.878  10.025 -1.8732  0.0685  0.9975
   59SAPC   C36 4525   1.941   2.710   9.905  0.6117 -1.1073  0.0854
   59SAPC   H6X 4526   1.834   2.739   9.898  1.1141  0.7403 -0.2125
   59SAPC   H6Y 4527   1.940   2.599   9.912  0.5454 -0.9901  2.6495
   59SAPC   C37 4528   2.014   2.766   9.778  0.3470 -0.4827 -0.1934
   59SAPC   H7X 4529   2.121   2.771   9.807 -0.3469 -0.0708  2.3843
   59SAPC   H7Y 4530   1.990   2.873   9.764 -2.6345 -0.8828  1.4751
   59SAPC   C38 4531   1.994   2.681   9.652  0.4192  0.1291 -0.4108
   59SAPC   H8X 4532   1.891   2.686   9.610 -0.0510 -0.7007  0.6013
   59SAPC   H8Y 4533   2.016   2.579   9.692 -2.1874  0.3111  1.6719
   59SAPC   C39 4534   2.108   2.691   9.551 -0.0011  1.1607 -0.4327
   59SAPC   H9X 4535   2.195   2.628   9.582 -1.0874  0.2971  0.9248
   59SAPC   H9Y 4536   2.148   2.794   9.561 -1.3556  1.3844  3.7845
   59SAPC  C310 4537   2.052   2.651   9.410 -0.2682 -0.2327 -0.6214
   59SAPC  H10X 4538   2.014   2.546   9.408  1.7383 -0.9551 -1.6963
   59SAPC  H10Y 4539   2.136   2.654   9.338 -0.6062  0.9134 -0.9654
   59SAPC  C311 4540   1.932   2.740   9.360 -0.0005  0.3125  0.1683
   59SAPC  H11X 4541   1.946   2.847   9.384  0.8875  0.2025  0.1427
   59SAPC  H11Y 4542   1.844   2.712   9.422  0.9091 -1.2770  0.7745
   59SAPC  C312 4543   1.915   2.695   9.213 -0.1731  0.4554  0.5005
   59SAPC  H12X 4544   1.913   2.584   9.216 -0.4022  0.4927  2.5556
   59SAPC  H12Y 4545   2.009   2.718   9.158  0.3294 -1.1396  0.6531
   59SAPC  C313 4546   1.792   2.767   9.146  0.0868  0.1976  0.6313
   59SAPC  H13X 4547   1.813   2.876   9.152  2.1577 -0.0844 -1.0483
   59SAPC  H13Y 4548   1.701   2.748   9.207 -1.3678 -0.0142 -1.5529
   59SAPC  C314 4549   1.770   2.731   9.003 -0.3325  0.3132  0.0820
   59SAPC  H14X 4550   1.861   2.743   8.941 -0.0334 -1.0218  0.2563
   59SAPC  H14Y 4551   1.686   2.792   8.962 -0.9796 -1.5260 -1.4212
   59SAPC  C315 4552   1.734   2.574   8.988 -0.5096 -0.7308  0.1519
   59SAPC  H15X 4553   1.637   2.566   9.042  0.1014  0.1629  1.4199
   59SAPC  H15Y 4554   1.808   2.515   9.047 -0.9569 -1.3640  0.0840
   59SAPC  C316 4555   1.722   2.524   8.847 -0.9796 -0.2669  0.0039
   59SAPC  H16X 4556   1.818   2.542   8.796 -0.6850 -2.1237 -0.1493
   59SAPC  H16Y 4557   1.652   2.596   8.799 -0.9029 -0.1718  0.0372
   59SAPC  C317 4558   1.701   2.375   8.831  0.3788 -0.9289  0.1281
   59SAPC  H17X 4559   1.614   2.347   8.894  0.5262 -2.0140 -0.1455
   59SAPC  H17Y 4560   1.789   2.326   8.878  1.8289  2.1042  0.7021
   59SAPC  C318 4561   1.684   2.319   8.692  0.4956 -0.8184  0.0076
   59SAPC  H18X 4562   1.597   2.372   8.648  0.5116 -0.0688  0.8814
   59SAPC  H18Y 4563   1.653   2.212   8.693 -1.3356 -0.3104 -0.3066
   59SAPC  H18Z 4564   1.772   2.347   8.630  1.1069 -1.2331  0.6840
   60SAPC     N 4565   3.023   1.120  10.803  0.6197  0.2582 -0.0116
   60SAPC   C12 4566   3.069   1.069  10.665  0.6546  1.0270 -0.9593
   60SAPC  H12A 4567   2.986   1.062  10.596  0.4191  1.2299 -0.7006
   60SAPC  H12B 4568   3.096   0.965  10.669 -3.2023  0.0230  2.9295
   60SAPC   C13 4569   3.126   1.131  10.905  0.1200 -0.3509  0.2568
   60SAPC  H13A 4570   3.153   1.041  10.959  1.4637  0.8530  1.6662
   60SAPC  H13B 4571   3.221   1.147  10.856  1.7462 -1.1186  3.0621
   60SAPC  H13C 4572   3.115   1.223  10.962 -1.7229 -1.0870  1.1230
   60SAPC   C14 4573   2.965   1.260  10.801 -0.0359 -0.9226  0.0203
   60SAPC  H14A 4574   2.876   1.262  10.740  1.2934 -0.1247 -1.9094
   60SAPC  H14B 4575   2.941   1.296  10.901 -0.9505 -1.6900  0.0882
   60SAPC  H14C 4576   3.035   1.327  10.754 -0.3377 -1.0065 -0.5416
   60SAPC   C15 4577   2.920   1.036  10.858 -0.1370  0.5437 -0.3016
   60SAPC  H15A 4578   2.844   1.018  10.784  0.3203 -1.2840 -0.3426
   60SAPC  H15B 4579   2.958   0.939  10.888 -1.2560  0.3304  0.4605
   60SAPC  H15C 4580   2.879   1.079  10.949 -1.2994 -0.1745 -0.4781
   60SAPC   C11 4581   3.186   1.136  10.601 -0.2602 -0.4580  0.3148
   60SAPC  H11A 4582   3.170   1.246  10.607 -0.2940 -0.4548  0.1744
   60SAPC  H11B 4583   3.181   1.112  10.492 -1.1429 -1.0214  0.4723
   60SAPC     P 4584   3.367   0.956  10.616  0.0267  0.2196  0.2500
   60SAPC   O13 4585   3.474   0.924  10.710 -0.4220 -0.0113  0.0601
   60SAPC   O14 4586   3.269   0.846  10.592 -0.4050  0.2551 -0.5467
   60SAPC   O12 4587   3.301   1.094  10.663  0.4487  0.2294 -0.0016
   60SAPC   O11 4588   3.438   0.986  10.478  0.7218  0.7035  0.1459
   60SAPC    C1 4589   3.498   1.120  10.473  0.3334 -0.2939 -0.1853
   60SAPC    HA 4590   3.424   1.202  10.460  0.4610 -0.5167 -2.5621
   60SAPC    HB 4591   3.546   1.150  10.569  0.1036  1.7184 -0.6675
   60SAPC    C2 4592   3.598   1.134  10.357  0.3235 -0.6561  0.1746
   60SAPC    HS 4593   3.620   1.242  10.339 -1.1492 -0.9204 -3.7328
   60SAPC   O21 4594   3.537   1.071  10.238 -0.4557  0.6701  0.0346
   60SAPC   C21 4595   3.561   1.129  10.128 -0.1616  0.4073  0.3401
   60SAPC   O22 4596   3.623   1.234  10.107  0.8713 -0.6016 -0.5344
   60SAPC   C22 4597   3.508   1.045  10.007 -0.4785 -0.2117  0.0566
   60SAPC   H2R 4598   3.522   0.936  10.024 -0.8423 -0.1936  0.4959
   60SAPC   H2S 4599   3.400   1.069   9.992 -0.1271  1.5533  0.2809
   60SAPC    C3 4600   3.731   1.062  10.382 -0.1035 -0.8058  0.3592
   60SAPC    HX 4601   3.697   0.957  10.393 -3.8015  0.4708  1.6190
   60SAPC    HY 4602   3.776   1.109  10.472  0.4799 -0.1152 -0.2827
   60SAPC   O31 4603   3.825   1.085  10.269  0.4768  0.1755  0.0868
   60SAPC   C31 4604   3.956   1.054  10.293  0.2517  0.1775 -0.8853
   60SAPC   O32 4605   4.008   1.032  10.403 -0.2075  0.3576  0.3341
   60SAPC   C32 4606   4.027   1.029  10.155 -0.1877  0.2711 -0.7461
   60SAPC   H2X 4607   3.970   0.947  10.107 -0.7760  0.0681  0.3011
   60SAPC   H2Y 4608   4.122   0.978  10.181 -0.4096 -0.6403 -1.7055
   60SAPC   C23 4609   3.594   1.072   9.885 -0.3253  0.0512 -0.4457
   60SAPC   H3R 4610   3.701   1.052   9.908  0.1995 -0.0729 -2.8494
   60SAPC   H3S 4611   3.603   1.182   9.868 -3.8984  0.6564  1.2364
   60SAPC   C24 4612   3.543   1.001   9.756  0.1419 -0.1839  0.6039
   60SAPC   H4R 4613   3.433   0.996   9.740 -0.2532  0.0987  2.9950
   60SAPC   H4S 4614   3.595   0.902   9.760 -0.2545 -0.4109  0.1287
   60SAPC   C25 4615   3.609   1.050   9.626 -0.8704  0.8384 -0.0397
   60SAPC   H5R 4616   3.698   1.113   9.633 -1.8627  2.0256  2.2410
   60SAPC   C26 4617   3.570   1.011   9.504 -0.2406 -0.2698 -1.1141
   60SAPC   H6R 4618   3.616   1.057   9.415 -2.9999 -0.4803 -2.7135
   60SAPC   C27 4619   3.462   0.915   9.473 -0.1762  0.4336 -0.3095
   60SAPC   H7R 4620   3.372   0.973   9.444 -0.9370 -0.9823 -0.8266
   60SAPC   H7S 4621   3.426   0.861   9.563  1.4736  0.7894  0.5891
   60SAPC   C28 4622   3.502   0.815   9.369  0.0122  0.0488  0.1741
   60SAPC   H8R 4623   3.559   0.732   9.413  0.4625  0.0305 -0.4532
   60SAPC   C29 4624   3.500   0.822   9.240 -0.2364 -0.1976  0.0456
   60SAPC   H9R 4625   3.563   0.747   9.189  1.9671  1.6433 -0.0329
   60SAPC  C210 4626   3.447   0.920   9.138 -0.4030  0.1789 -0.0292
   60SAPC  H10R 4627   3.530   0.937   9.066 -0.6958 -0.6823 -0.5715
   60SAPC  H10S 4628   3.419   1.019   9.181  1.7757  0.8994 -0.1649
   60SAPC  C211 4629   3.320   0.852   9.090  0.5623 -0.5371 -0.6341
   60SAPC  H11R 4630   3.249   0.810   9.163  1.0125  0.5190  0.4245
   60SAPC  C212 4631   3.293   0.845   8.957 -0.5444  1.1521  0.3933
   60SAPC  H12R 4632   3.208   0.784   8.922  0.5643 -1.3524  1.9658
   60SAPC  C213 4633   3.372   0.902   8.845 -0.5347  0.2145 -0.0967
   60SAPC  H13R 4634   3.455   0.833   8.817 -0.5717  0.5072 -0.9415
   60SAPC  H13S 4635   3.415   1.000   8.876 -1.5852 -0.1516  2.6221
   60SAPC  C214 4636   3.281   0.946   8.731 -0.6315  0.2794  0.1558
   60SAPC  H14R 4637   3.235   1.045   8.745 -0.8980 -0.1472  2.3766
   60SAPC  C215 4638   3.248   0.869   8.628  0.9901 -0.0687  0.6179
   60SAPC  H15R 4639   3.180   0.917   8.557 -0.1426 -0.5069  1.3880
   60SAPC  C216 4640   3.288   0.723   8.604 -0.1634 -0.7515 -0.0853
   60SAPC  H16R 4641   3.277   0.662   8.696  2.3352  0.8967  1.3629
   60SAPC  H16S 4642   3.390   0.710   8.564  0.2770 -0.6206  0.9872
   60SAPC  C217 4643   3.183   0.677   8.490 -0.0720  0.9490 -0.1354
   60SAPC  H17R 4644   3.208   0.743   8.403 -3.5580  0.9442 -1.2496
   60SAPC  H17S 4645   3.082   0.688   8.537  0.3481  0.1296  0.9714
   60SAPC  C218 4646   3.201   0.529   8.463  0.1721 -0.2664  0.2562
   60SAPC  H18R 4647   3.120   0.493   8.397  0.5993  2.5288 -1.8845
   60SAPC  H18S 4648   3.192   0.473   8.559 -1.3254  2.3686  1.7411
   60SAPC  C219 4649   3.338   0.496   8.401  0.1966 -0.2080 -0.0696
   60SAPC  H19R 4650   3.347   0.386   8.413 -0.6018 -0.3324 -0.5721
   60SAPC  H19S 4651   3.418   0.539   8.464 -2.8606  2.9641  1.8290
   60SAPC  C220 4652   3.360   0.531   8.253  0.0040 -0.8241  0.3639
   60SAPC  H20R 4653   3.360   0.641   8.240  0.8862 -0.7244  1.1256
   60SAPC  H20S 4654   3.275   0.493   8.194  0.5578 -3.2988  1.0749
   60SAPC  H20T 4655   3.452   0.490   8.204  0.5505 -0.6436  1.2171
   60SAPC   C33 4656   4.050   1.164  10.078  0.2727  0.4952 -0.3859
   60SAPC   H3X 4657   4.140   1.217  10.116  0.9974 -1.2080  0.3643
   60SAPC   H3Y 4658   3.962   1.231  10.068  1.0685  1.2596 -2.5831
   60SAPC   C34 4659   4.102   1.136   9.928  0.3712 -0.1599  0.0523
   60SAPC   H4X 4660   4.023   1.093   9.863  0.8493 -0.2384 -0.4733
   60SAPC   H4Y 4661   4.189   1.067   9.926  0.3482 -0.2462  1.2343
   60SAPC   C35 4662   4.149   1.267   9.866  0.6586  0.0166 -0.5145
   60SAPC   H5X 4663   4.247   1.291   9.911  0.1320  0.4991  0.3904
   60SAPC   H5Y 4664   4.071   1.345   9.876  0.1001 -0.4591 -1.0389
   60SAPC   C36 4665   4.167   1.245   9.714 -0.4773  0.3628 -0.0221
   60SAPC   H6X 4666   4.062   1.231   9.680 -0.4351 -0.4281  0.1399
   60SAPC   H6Y 4667   4.239   1.161   9.701 -0.4052  0.2090  1.2197
   60SAPC   C37 4668   4.222   1.379   9.664  0.5653  0.2650  0.1182
   60SAPC   H7X 4669   4.302   1.420   9.730 -1.6794  2.5720  1.5193
   60SAPC   H7Y 4670   4.130   1.440   9.675  0.7526  0.1889  2.2639
   60SAPC   C38 4671   4.273   1.369   9.522  0.0914 -0.5316  0.1659
   60SAPC   H8X 4672   4.350   1.290   9.524 -0.1583 -0.7760  0.0937
   60SAPC   H8Y 4673   4.310   1.469   9.487 -0.0620 -0.3718  0.4605
   60SAPC   C39 4674   4.164   1.346   9.423  0.4504 -0.1114 -0.5913
   60SAPC   H9X 4675   4.094   1.432   9.425  2.1071  1.3068 -2.2633
   60SAPC   H9Y 4676   4.111   1.250   9.442  0.4797 -0.0934 -0.4093
   60SAPC  C310 4677   4.208   1.338   9.280 -0.0216 -1.0003  0.3961
   60SAPC  H10X 4678   4.284   1.257   9.270  1.3508  0.3491 -0.3548
   60SAPC  H10Y 4679   4.251   1.435   9.247  0.7485 -1.2729  0.5876
   60SAPC  C311 4680   4.101   1.310   9.170  0.9130  0.4341  0.4441
   60SAPC  H11X 4681   4.061   1.210   9.196 -0.4612  0.2757 -2.1044
   60SAPC  H11Y 4682   4.155   1.302   9.074  0.2544  0.4183  0.0721
   60SAPC  C312 4683   3.972   1.398   9.162  0.8300  0.7761 -0.4320
   60SAPC  H12X 4684   4.023   1.482   9.110 -0.7613 -0.5348 -4.3282
   60SAPC  H12Y 4685   3.918   1.417   9.257  2.0750 -1.9300  0.8962
   60SAPC  C313 4686   3.871   1.338   9.073 -0.5401 -0.2446  0.2877
   60SAPC  H13X 4687   3.777   1.398   9.078 -1.2719 -1.2900 -0.6779
   60SAPC  H13Y 4688   3.837   1.242   9.117 -0.3669  0.3836  1.8279
   60SAPC  C314 4689   3.915   1.317   8.927 -0.1542  0.5914  0.4433
   60SAPC  H14X 4690   3.999   1.245   8.920  0.1115  0.9121  0.2789
   60SAPC  H14Y 4691   3.952   1.416   8.892  1.6758  0.2651  1.4035
   60SAPC  C315 4692   3.821   1.262   8.818  0.9024 -1.1133  0.7536
   60SAPC  H15X 4693   3.861   1.286   8.717  0.4796  0.3561  0.9230
   60SAPC  H15Y 4694   3.722   1.307   8.839  1.9958  1.9416 -0.2219
   60SAPC  C316 4695   3.792   1.112   8.826  0.2395  0.0339 -0.5459
   60SAPC  H16X 4696   3.777   1.088   8.933 -0.8690  0.4022 -0.6179
   60SAPC  H16Y 4697   3.888   1.062   8.799 -0.8395 -2.1284 -0.4510
   60SAPC  C317 4698   3.682   1.053   8.731 -0.6102 -0.1430  0.2292
   60SAPC  H17X 4699   3.611   1.134   8.704  0.4288  0.0492 -2.0034
   60SAPC  H17Y 4700   3.629   0.982   8.798  0.6903  0.2467  1.6775
   60SAPC  C318 4701   3.735   0.984   8.605  0.3623 -0.3794  0.1446
   60SAPC  H18X 4702   3.645   0.931   8.569 -0.0241  1.5978 -1.9089
   60SAPC  H18Y 4703   3.809   0.905   8.630  1.8015  0.8898 -0.0361
   60SAPC  H18Z 4704   3.774   1.049   8.523 -0.7392 -0.9168 -0.8249
   61SAPC     N 4705   4.975   0.290  10.904 -0.2067  0.1784 -0.6452
   61SAPC   C12 4706   4.966   0.176  11.005  0.7284 -0.2455 -0.4257
   61SAPC  H12A 4707   4.888   0.196  11.076  0.2784  1.3897 -1.3530
   61SAPC  H12B 4708   5.053   0.183  11.070 -0.1595 -0.1814  0.7742
   61SAPC   C13 4709   5.078   0.271  10.799  0.2899 -0.1044 -0.7695
   61SAPC  H13A 4710   5.033   0.204  10.726 -3.3922  2.0292 -0.5721
   61SAPC  H13B 4711   5.098   0.365  10.750  0.3896  0.8192  1.0044
   61SAPC  H13C 4712   5.169   0.222  10.830 -0.5119  0.3148  2.4147
   61SAPC   C14 4713   4.836   0.315  10.846 -0.2094 -0.4381 -0.0780
   61SAPC  H14A 4714   4.810   0.231  10.784 -0.4139  0.0769 -0.6949
   61SAPC  H14B 4715   4.764   0.308  10.926  1.0477  2.8346  1.4599
   61SAPC  H14C 4716   4.827   0.405  10.787  0.2795 -0.7130 -0.5771
   61SAPC   C15 4717   5.014   0.416  10.971  0.8201  0.4378 -0.1157
   61SAPC  H15A 4718   5.095   0.405  11.042  1.1078  1.5078 -0.2670
   61SAPC  H15B 4719   5.044   0.493  10.901  0.0593  0.6660 -0.1928
   61SAPC  H15C 4720   4.932   0.447  11.035  0.7074 -0.2943  0.0900
   61SAPC   C11 4721   4.967   0.027  10.957  0.1494  0.7082  0.1033
   61SAPC  H11A 4722   4.963  -0.043  11.044 -2.2597  2.6652  1.6277
   61SAPC  H11B 4723   5.064   0.020  10.904  1.1330  1.8622  1.6761
   61SAPC     P 4724   4.717  -0.026  10.893  0.0893 -0.4981 -0.0671
   61SAPC   O13 4725   4.686   0.007  11.034 -0.2784  0.0097  0.7202
   61SAPC   O14 4726   4.634   0.045  10.797 -0.3936 -0.2162 -0.3656
   61SAPC   O12 4727   4.867  -0.005  10.864 -0.2384  0.3349  0.4652
   61SAPC   O11 4728   4.698  -0.181  10.857  0.1894 -0.0184  0.6051
   61SAPC    C1 4729   4.806  -0.261  10.806 -0.2253  0.3478 -0.1363
   61SAPC    HA 4730   4.903  -0.266  10.861  0.3583  0.1127 -1.1607
   61SAPC    HB 4731   4.770  -0.366  10.800  0.9658 -0.0280 -1.0694
   61SAPC    C2 4732   4.859  -0.220  10.665 -0.2984 -0.1725 -0.1093
   61SAPC    HS 4733   4.912  -0.124  10.680 -3.5330  1.7400 -0.3205
   61SAPC   O21 4734   4.746  -0.200  10.583 -0.6467  0.6531 -0.3720
   61SAPC   C21 4735   4.763  -0.119  10.481  0.9250 -0.6764 -0.2874
   61SAPC   O22 4736   4.862  -0.050  10.462  0.0403 -0.3195 -0.0666
   61SAPC   C22 4737   4.634  -0.102  10.404 -0.5274  0.0811 -0.1765
   61SAPC   H2R 4738   4.593  -0.202  10.378 -1.5771  0.4696 -0.0347
   61SAPC   H2S 4739   4.568  -0.064  10.485 -1.3112 -1.1923 -0.1992
   61SAPC    C3 4740   4.949  -0.336  10.613 -0.5774  0.0291  0.7096
   61SAPC    HX 4741   4.900  -0.434  10.630 -0.4055 -0.3400 -0.8544
   61SAPC    HY 4742   5.049  -0.336  10.662 -0.1367 -1.1059 -0.1785
   61SAPC   O31 4743   4.968  -0.335  10.468  0.1829 -0.1045  0.0757
   61SAPC   C31 4744   5.064  -0.273  10.406  0.3134 -0.1561 -0.6902
   61SAPC   O32 4745   5.155  -0.215  10.467 -0.1596  0.6294 -0.4900
   61SAPC   C32 4746   5.044  -0.271  10.259 -0.0283 -0.4346  0.1516
   61SAPC   H2X 4747   4.935  -0.284  10.240  0.1990  0.6639 -1.9995
   61SAPC   H2Y 4748   5.094  -0.362  10.219  0.5219 -0.6019  1.2257
   61SAPC   C23 4749   4.639  -0.001  10.284 -0.3952  0.4934 -0.2125
   61SAPC   H3R 4750   4.697  -0.041  10.198  1.2417 -0.5124  1.3302
   61SAPC   H3S 4751   4.687   0.095  10.316 -1.6042  1.2468 -0.6156
   61SAPC   C24 4752   4.503   0.039  10.229 -0.1037 -0.2674 -0.5976
   61SAPC   H4R 4753   4.523   0.119  10.154  1.0994 -0.8560 -0.9192
   61SAPC   H4S 4754   4.442   0.081  10.312  0.1212 -1.1961  0.0410
   61SAPC   C25 4755   4.427  -0.077  10.167  0.3570  0.0564  0.4315
   61SAPC   H5R 4756   4.368  -0.140  10.236 -0.9708  2.1191  1.2095
   61SAPC   C26 4757   4.397  -0.086  10.031  0.1778  0.3063  0.4045
   61SAPC   H6R 4758   4.328  -0.160   9.989 -0.2218  1.5246 -1.1461
   61SAPC   C27 4759   4.427   0.009   9.923  0.2143 -0.2730  0.4512
   61SAPC   H7R 4760   4.524  -0.026   9.881 -0.2619 -2.4108  1.0878
   61SAPC   H7S 4761   4.435   0.115   9.954 -3.7246  0.0200  0.7317
   61SAPC   C28 4762   4.329  -0.006   9.803 -0.0035 -0.8457 -0.0871
   61SAPC   H8R 4763   4.252   0.073   9.811  0.7669 -0.2556  1.8286
   61SAPC   C29 4764   4.323  -0.104   9.710  0.0473  0.1838  0.5143
   61SAPC   H9R 4765   4.241  -0.102   9.637  2.0090  0.9834 -1.7256
   61SAPC  C210 4766   4.416  -0.216   9.708 -0.0474  0.8280 -0.8398
   61SAPC  H10R 4767   4.369  -0.316   9.702 -0.1601  0.8409 -0.2416
   61SAPC  H10S 4768   4.465  -0.228   9.807  0.4012 -4.0547 -1.5334
   61SAPC  C211 4769   4.522  -0.195   9.605  0.2412  0.4714 -0.1169
   61SAPC  H11R 4770   4.587  -0.106   9.614  0.7908 -0.1478  2.4015
   61SAPC  C212 4771   4.546  -0.278   9.500 -0.1191  0.1129  0.0983
   61SAPC  H12R 4772   4.620  -0.254   9.424  0.0554  0.3600  0.3455
   61SAPC  C213 4773   4.464  -0.408   9.473 -0.2024  0.1196 -0.1961
   61SAPC  H13R 4774   4.378  -0.366   9.416 -1.2862 -1.4192  0.2948
   61SAPC  H13S 4775   4.428  -0.475   9.553  1.9434 -1.0606 -0.1996
   61SAPC  C214 4776   4.555  -0.490   9.382 -0.1305  0.6500 -0.7666
   61SAPC  H14R 4777   4.636  -0.542   9.436 -0.6757  1.2404  0.6412
   61SAPC  C215 4778   4.557  -0.494   9.246  0.0929  0.1637 -0.3083
   61SAPC  H15R 4779   4.633  -0.558   9.199  0.6036 -0.5562  1.4269
   61SAPC  C216 4780   4.461  -0.418   9.154 -0.1921  0.0913 -0.4503
   61SAPC  H16R 4781   4.510  -0.326   9.114  0.7522 -0.7551 -1.2790
   61SAPC  H16S 4782   4.381  -0.372   9.215  1.8309 -0.1292  2.5080
   61SAPC  C217 4783   4.402  -0.521   9.055 -0.4533 -0.7425 -0.0957
   61SAPC  H17R 4784   4.355  -0.604   9.113  1.1363 -1.6153 -0.0207
   61SAPC  H17S 4785   4.488  -0.566   9.001 -0.2428  0.2313 -0.5654
   61SAPC  C218 4786   4.305  -0.448   8.963 -0.0036 -0.1620  0.4055
   61SAPC  H18R 4787   4.239  -0.383   9.023  0.3705  0.3043  0.3159
   61SAPC  H18S 4788   4.235  -0.527   8.928 -0.1699  1.2110 -2.4749
   61SAPC  C219 4789   4.351  -0.384   8.834  0.4256  0.3857  0.6181
   61SAPC  H19R 4790   4.271  -0.350   8.765  1.0746  0.2014 -0.2393
   61SAPC  H19S 4791   4.400  -0.472   8.786  1.4482  0.4890  1.4578
   61SAPC  C220 4792   4.455  -0.273   8.841 -0.1712 -0.7951  0.6214
   61SAPC  H20R 4793   4.545  -0.330   8.870  0.3770 -0.6209 -0.7015
   61SAPC  H20S 4794   4.413  -0.207   8.920 -1.7874 -2.2218  0.9872
   61SAPC  H20T 4795   4.475  -0.221   8.745  0.6139 -3.6598 -0.7998
   61SAPC   C33 4796   5.101  -0.151  10.181  0.3726 -0.4457  0.3190
   61SAPC   H3X 4797   5.212  -0.152  10.181  0.4503  2.5911  0.5229
   61SAPC   H3Y 4798   5.076  -0.058  10.237  1.5377  0.2778 -0.3266
   61SAPC   C34 4799   5.056  -0.144  10.036  0.3743 -0.7098  0.2230
   61SAPC   H4X 4800   5.106  -0.219   9.971 -2.4263 -1.4522 -1.1444
   61SAPC   H4Y 4801   5.087  -0.042  10.005 -2.8321 -0.3268 -1.9419
   61SAPC   C35 4802   4.910  -0.158  10.001 -0.2989  1.2619 -0.0551
   61SAPC   H5X 4803   4.846  -0.122  10.084 -0.7163  0.6403 -0.0975
   61SAPC   H5Y 4804   4.886  -0.266   9.992 -1.9400  1.4967  1.2449
   61SAPC   C36 4805   4.866  -0.096   9.872 -0.1634 -0.2634 -0.4309
   61SAPC   H6X 4806   4.866   0.013   9.893 -0.5465 -0.2744 -0.3583
   61SAPC   H6Y 4807   4.757  -0.119   9.865 -0.1604  0.1600 -2.2460
   61SAPC   C37 4808   4.936  -0.141   9.742  0.1880 -0.0470  0.6244
   61SAPC   H7X 4809   4.872  -0.228   9.716  2.2660 -1.7253  1.0564
   61SAPC   H7Y 4810   5.043  -0.167   9.754  0.5546  0.5580 -1.2276
   61SAPC   C38 4811   4.906  -0.047   9.631 -1.0687 -0.1982  0.2535
   61SAPC   H8X 4812   4.983   0.033   9.632 -0.2748 -0.9443 -0.3524
   61SAPC   H8Y 4813   4.811   0.009   9.645 -0.3381  1.2418 -0.4883
   61SAPC   C39 4814   4.911  -0.116   9.488 -0.8301  0.1027 -0.4484
   61SAPC   H9X 4815   4.846  -0.206   9.492  0.1218 -0.5584  0.3270
   61SAPC   H9Y 4816   5.015  -0.140   9.457 -0.2121  1.2148  0.7136
   61SAPC  C310 4817   4.861  -0.038   9.366  0.1380 -0.4028  0.1631
   61SAPC  H10X 4818   4.897   0.067   9.368 -0.7931 -0.0932  1.0537
   61SAPC  H10Y 4819   4.750  -0.031   9.366  0.1631  0.0636 -0.6164
   61SAPC  C311 4820   4.894  -0.093   9.226  0.1691  0.1833 -0.0575
   61SAPC  H11X 4821   5.003  -0.072   9.213  0.1807  0.6908  0.8642
   61SAPC  H11Y 4822   4.839  -0.038   9.147 -1.9022 -2.1503 -0.3167
   61SAPC  C312 4823   4.856  -0.243   9.211  0.5677 -0.2956  0.0076
   61SAPC  H12X 4824   4.747  -0.255   9.224  0.3379  1.8714  0.1947
   61SAPC  H12Y 4825   4.916  -0.304   9.283 -0.8449  1.0334  2.3892
   61SAPC  C313 4826   4.883  -0.279   9.061  0.1787 -0.0657 -0.3973
   61SAPC  H13X 4827   4.987  -0.243   9.047  1.2867 -3.5909 -1.6427
   61SAPC  H13Y 4828   4.817  -0.223   8.991 -0.2099  0.4224  0.3596
   61SAPC  C314 4829   4.876  -0.432   9.038 -0.4665  0.1834  0.2551
   61SAPC  H14X 4830   4.777  -0.474   9.066 -0.8477  1.6513  1.1840
   61SAPC  H14Y 4831   4.953  -0.477   9.103  0.6099  0.3555 -0.8786
   61SAPC  C315 4832   4.905  -0.486   8.896 -0.3185  0.1407 -0.0519
   61SAPC  H15X 4833   4.918  -0.596   8.897 -3.8925 -0.3707 -1.6448
   61SAPC  H15Y 4834   5.001  -0.443   8.860  0.4895  0.0044  1.8830
   61SAPC  C316 4835   4.799  -0.451   8.789 -1.1397  0.5347  0.1534
   61SAPC  H16X 4836   4.850  -0.402   8.704 -3.0610 -0.3228 -1.5555
   61SAPC  H16Y 4837   4.735  -0.373   8.834 -1.8293 -0.8372  1.6066
   61SAPC  C317 4838   4.723  -0.564   8.728 -0.5354 -0.1013 -0.0103
   61SAPC  H17X 4839   4.645  -0.585   8.805 -0.3866  0.3062  0.2566
   61SAPC  H17Y 4840   4.788  -0.653   8.723 -3.6845 -2.5078  0.1380
   61SAPC  C318 4841   4.653  -0.547   8.594 -1.1850 -0.0286  0.2285
   61SAPC  H18X 4842   4.582  -0.630   8.576  0.2231 -1.5019  1.2779
   61SAPC  H18Y 4843   4.729  -0.552   8.512 -0.7557  0.5602  0.5857
   61SAPC  H18Z 4844   4.621  -0.441   8.584 -1.4287 -0.2212 -1.1181
   62SAPC     N 4845   3.589   5.617  10.964 -0.0486 -0.3653 -0.5808
   62SAPC   C12 4846   3.634   5.518  10.851  0.9602 -0.7470  0.2188
   62SAPC  H12A 4847   3.548   5.455  10.834  0.3897 -0.3444  1.5413
   62SAPC  H12B 4848   3.716   5.456  10.888  1.4647 -0.3533 -0.2355
   62SAPC   C13 4849   3.528   5.537  11.076  0.0530  0.3219 -0.1988
   62SAPC  H13A 4850   3.420   5.527  11.077  0.2293 -1.7391  0.8996
   62SAPC  H13B 4851   3.580   5.447  11.104  0.4145  0.3685 -0.7021
   62SAPC  H13C 4852   3.546   5.600  11.162 -1.1883  1.3870 -0.6968
   62SAPC   C14 4853   3.708   5.689  11.018 -0.5584  0.1056  0.1990
   62SAPC  H14A 4854   3.693   5.765  11.093  1.1059  1.0997 -0.4606
   62SAPC  H14B 4855   3.780   5.613  11.045 -0.5425 -1.2596 -3.3837
   62SAPC  H14C 4856   3.765   5.739  10.941  2.6480  0.2153  2.5490
   62SAPC   C15 4857   3.480   5.706  10.937  0.4631 -0.0726  0.2463
   62SAPC  H15A 4858   3.502   5.789  10.871 -1.0853  0.4270  0.3328
   62SAPC  H15B 4859   3.389   5.664  10.898 -0.5866  0.6173  1.8678
   62SAPC  H15C 4860   3.460   5.759  11.030 -0.3941 -0.8004  0.4818
   62SAPC   C11 4861   3.672   5.585  10.711  0.4363  0.5597  0.3219
   62SAPC  H11A 4862   3.584   5.641  10.674 -0.7554 -2.3506 -1.3964
   62SAPC  H11B 4863   3.687   5.499  10.643 -0.7782  1.4492 -1.1006
   62SAPC     P 4864   3.922   5.638  10.715  0.1498 -0.2802  0.4643
   62SAPC   O13 4865   4.001   5.739  10.791  0.6252  0.4225 -0.1251
   62SAPC   O14 4866   3.939   5.496  10.758  0.3435  0.2341 -0.6499
   62SAPC   O12 4867   3.774   5.678  10.720  0.0282 -0.8972 -0.3504
   62SAPC   O11 4868   3.954   5.638  10.564  0.0412  0.6543  0.0109
   62SAPC    C1 4869   3.934   5.755  10.492  0.2466  0.3765  0.7609
   62SAPC    HA 4870   3.836   5.803  10.511  1.1496  1.6362  2.3149
   62SAPC    HB 4871   4.009   5.834  10.511 -0.4602  0.3980  3.5885
   62SAPC    C2 4872   3.952   5.725  10.338 -0.7230 -0.0460 -0.3321
   62SAPC    HS 4873   4.057   5.739  10.306 -1.0063 -1.3002 -1.8467
   62SAPC   O21 4874   3.863   5.800  10.256 -0.6415  1.0834 -0.4890
   62SAPC   C21 4875   3.902   5.929  10.249  0.1480 -0.4097 -0.0251
   62SAPC   O22 4876   3.999   5.978  10.299  0.2295 -0.4261 -0.3841
   62SAPC   C22 4877   3.784   6.009  10.191 -0.0069 -0.5427 -0.2164
   62SAPC   H2R 4878   3.696   5.943  10.174  1.1226 -1.9248 -0.7740
   62SAPC   H2S 4879   3.755   6.092  10.259 -1.3179 -0.2776 -1.0711
   62SAPC    C3 4880   3.934   5.566  10.306 -0.0452  0.1688  0.1919
   62SAPC    HX 4881   3.835   5.523  10.336  0.1120 -1.7240 -1.8888
   62SAPC    HY 4882   4.005   5.504  10.364  0.3535  2.6817  2.5080
   62SAPC   O31 4883   3.956   5.533  10.159 -0.0507  0.1557  0.6835
   62SAPC   C31 4884   3.978   5.406  10.130 -0.2479 -0.5170 -0.6499
   62SAPC   O32 4885   3.980   5.316  10.214  0.0582 -0.2557 -0.3224
   62SAPC   C32 4886   3.996   5.380   9.978  0.7940  0.0287  0.4312
   62SAPC   H2X 4887   4.065   5.295   9.961 -2.1223 -2.4117  0.2462
   62SAPC   H2Y 4888   4.047   5.462   9.924  1.4946 -0.9175 -0.3477
   62SAPC   C23 4889   3.819   6.063  10.045  0.7218 -0.0188 -0.1624
   62SAPC   H3R 4890   3.927   6.088  10.046  0.9638 -1.0578  0.6442
   62SAPC   H3S 4891   3.755   6.151  10.022 -2.1980 -2.2911 -1.1084
   62SAPC   C24 4892   3.786   5.961   9.927  0.5882  0.3591  0.1465
   62SAPC   H4R 4893   3.777   6.024   9.836  0.6991 -0.1757 -0.2350
   62SAPC   H4S 4894   3.682   5.920   9.930  1.1719 -1.1006  1.2537
   62SAPC   C25 4895   3.884   5.852   9.912  0.0661  0.2830 -0.6376
   62SAPC   H5R 4896   3.924   5.808  10.004 -0.9375  0.0266 -0.3202
   62SAPC   C26 4897   3.936   5.812   9.798  0.0725 -0.5123  0.5081
   62SAPC   H6R 4898   4.004   5.726   9.793  0.2122 -0.4655  1.5735
   62SAPC   C27 4899   3.899   5.877   9.662 -0.1367  1.3615  0.6450
   62SAPC   H7R 4900   3.914   5.986   9.678  1.9198  1.0498  0.9725
   62SAPC   H7S 4901   3.790   5.877   9.641 -0.4935 -0.9389  2.3961
   62SAPC   C28 4902   3.993   5.841   9.548 -0.3929  0.6521  0.9103
   62SAPC   H8R 4903   4.082   5.789   9.586  0.6477 -0.1697 -2.4269
   62SAPC   C29 4904   3.966   5.856   9.416  0.4029  0.2081 -0.0045
   62SAPC   H9R 4905   4.045   5.839   9.342 -0.0132  3.2341 -1.1773
   62SAPC  C210 4906   3.839   5.914   9.356 -0.2160 -0.5015  0.4940
   62SAPC  H10R 4907   3.744   5.870   9.394  0.7730  0.1189  3.8687
   62SAPC  H10S 4908   3.849   5.886   9.249  0.0790  0.1689  0.3489
   62SAPC  C211 4909   3.846   6.069   9.366 -0.2971  0.8193  0.6792
   62SAPC  H11R 4910   3.803   6.109   9.460 -1.1153 -3.5662  2.2649
   62SAPC  C212 4911   3.895   6.147   9.268 -0.1944  0.0030 -0.3177
   62SAPC  H12R 4912   3.909   6.253   9.296  0.3089  0.0109 -0.5787
   62SAPC  C213 4913   3.962   6.110   9.139 -0.6016 -0.5212 -0.7175
   62SAPC  H13R 4914   4.015   6.012   9.142 -0.0294 -0.1754  0.8534
   62SAPC  H13S 4915   4.036   6.189   9.113 -0.1734 -0.6257  0.1545
   62SAPC  C214 4916   3.867   6.113   9.029  0.3780  0.3682  0.6424
   62SAPC  H14R 4917   3.799   6.199   9.026  0.4871  0.4132 -3.0437
   62SAPC  C215 4918   3.850   6.034   8.916 -0.4271 -0.0982 -0.0869
   62SAPC  H15R 4919   3.760   6.050   8.856 -1.6177  1.0527  1.9541
   62SAPC  C216 4920   3.943   5.919   8.889 -0.1943  0.8397 -0.7232
   62SAPC  H16R 4921   3.938   5.839   8.965 -2.0098  0.2071 -1.4717
   62SAPC  H16S 4922   4.045   5.961   8.902  0.7821 -1.3746 -1.0519
   62SAPC  C217 4923   3.919   5.855   8.745  0.9312 -0.0478 -0.5478
   62SAPC  H17R 4924   4.017   5.803   8.736 -0.0817 -1.8362 -1.4039
   62SAPC  H17S 4925   3.914   5.935   8.668  1.9907  0.4512 -0.1177
   62SAPC  C218 4926   3.802   5.756   8.750 -0.3529  1.0254  0.2569
   62SAPC  H18R 4927   3.703   5.806   8.747 -1.0970 -0.4883 -1.1210
   62SAPC  H18S 4928   3.807   5.709   8.851  1.0115  0.0918 -0.2301
   62SAPC  C219 4929   3.813   5.650   8.638  0.0706 -0.4120 -0.6557
   62SAPC  H19R 4930   3.909   5.597   8.653  0.5122  0.9381  1.3971
   62SAPC  H19S 4931   3.823   5.691   8.535  0.6007  2.3603  0.4361
   62SAPC  C220 4932   3.689   5.566   8.655  1.0175  0.8361  0.5168
   62SAPC  H20R 4933   3.692   5.513   8.753 -0.1985  0.1808  0.2077
   62SAPC  H20S 4934   3.684   5.490   8.574  1.1843  0.0822  1.2136
   62SAPC  H20T 4935   3.594   5.625   8.650  1.5958  1.6339 -1.8172
   62SAPC   C33 4936   3.870   5.341   9.897 -0.4771 -0.4504 -0.2690
   62SAPC   H3X 4937   3.789   5.400   9.945 -0.7384 -2.5541  1.9854
   62SAPC   H3Y 4938   3.827   5.238   9.895  1.0701 -1.1607  1.4552
   62SAPC   C34 4939   3.860   5.404   9.760  0.1344 -1.0797  0.1304
   62SAPC   H4X 4940   3.885   5.513   9.760 -1.6856 -0.6122 -2.2613
   62SAPC   H4Y 4941   3.757   5.412   9.719  0.2875  2.6761  0.3199
   62SAPC   C35 4942   3.948   5.337   9.649 -0.1712 -0.5195  0.0246
   62SAPC   H5X 4943   3.912   5.234   9.631  1.2674 -1.3240  1.6640
   62SAPC   H5Y 4944   4.054   5.347   9.680  0.1202  0.4304 -1.2330
   62SAPC   C36 4945   3.936   5.425   9.519  0.6360 -0.1376 -0.4359
   62SAPC   H6X 4946   3.977   5.526   9.540 -2.9994  1.8637 -2.5450
   62SAPC   H6Y 4947   3.836   5.449   9.478  1.4678  1.4760 -1.5791
   62SAPC   C37 4948   4.010   5.369   9.397 -0.1131  0.2146  0.1745
   62SAPC   H7X 4949   3.954   5.281   9.360  2.2812 -1.6378  0.7890
   62SAPC   H7Y 4950   4.104   5.322   9.434  0.0775 -0.7347 -1.4439
   62SAPC   C38 4951   4.055   5.479   9.294 -0.1262 -0.3721 -0.3077
   62SAPC   H8X 4952   4.120   5.553   9.345  1.0222 -1.8092  0.3570
   62SAPC   H8Y 4953   3.977   5.542   9.246  0.9965  2.0890  1.0447
   62SAPC   C39 4954   4.131   5.415   9.169  0.4939 -0.4617 -0.0224
   62SAPC   H9X 4955   4.058   5.344   9.123  0.0050  0.5708 -0.8597
   62SAPC   H9Y 4956   4.230   5.371   9.196  0.7046  0.3260  0.5025
   62SAPC  C310 4957   4.172   5.523   9.068 -0.0422  0.0194 -0.0973
   62SAPC  H10X 4958   4.219   5.607   9.124 -2.2563  0.5760  0.9777
   62SAPC  H10Y 4959   4.081   5.577   9.034 -0.0438 -0.6945 -1.2487
   62SAPC  C311 4960   4.274   5.470   8.960 -0.3345  0.0979  0.4970
   62SAPC  H11X 4961   4.295   5.364   8.986  1.3303  0.5799  1.1811
   62SAPC  H11Y 4962   4.372   5.523   8.963  0.0518 -0.6515  1.4352
   62SAPC  C312 4963   4.214   5.469   8.817  0.1552  0.2672  0.6943
   62SAPC  H12X 4964   4.183   5.574   8.797 -0.4818  0.1057  0.8300
   62SAPC  H12Y 4965   4.118   5.413   8.811  1.0473 -1.2175  0.0829
   62SAPC  C313 4966   4.304   5.440   8.697 -0.3726 -0.4963  0.3259
   62SAPC  H13X 4967   4.328   5.331   8.701 -3.1520 -1.3681 -3.6628
   62SAPC  H13Y 4968   4.397   5.496   8.720  0.7097 -1.3699 -1.7849
   62SAPC  C314 4969   4.247   5.480   8.559  0.4697  0.3770  0.0122
   62SAPC  H14X 4970   4.144   5.438   8.548  1.4739 -2.4215  0.8687
   62SAPC  H14Y 4971   4.326   5.436   8.496 -0.4355  0.6305 -1.3280
   62SAPC  C315 4972   4.243   5.632   8.527 -0.5146 -0.0715  0.1577
   62SAPC  H15X 4973   4.349   5.665   8.529 -0.3257 -0.6694  0.0508
   62SAPC  H15Y 4974   4.183   5.683   8.605 -0.7631 -0.7578  0.4212
   62SAPC  C316 4975   4.190   5.667   8.391  0.1232 -0.1772 -0.0328
   62SAPC  H16X 4976   4.084   5.635   8.391  0.2129 -0.5118  1.1011
   62SAPC  H16Y 4977   4.253   5.626   8.309  0.1505 -0.3001  0.0499
   62SAPC  C317 4978   4.184   5.819   8.366 -0.1333  0.7407  0.0550
   62SAPC  H17X 4979   4.115   5.864   8.441 -0.4508  1.5492 -0.7125
   62SAPC  H17Y 4980   4.137   5.835   8.267 -0.0307 -0.7189 -0.2413
   62SAPC  C318 4981   4.318   5.883   8.374 -0.5912 -0.8746 -0.4901
   62SAPC  H18X 4982   4.373   5.848   8.285 -0.5274 -1.3386 -0.2757
   62SAPC  H18Y 4983   4.374   5.855   8.466  0.1499 -1.3528 -1.0903
   62SAPC  H18Z 4984   4.325   5.993   8.359  0.3898 -0.8334  0.2243
   63SAPC     N 4985   1.243   4.501   6.232  0.3455  0.0549  0.4257
   63SAPC   C12 4986   1.231   4.523   6.377  0.2178  0.1624  0.1366
   63SAPC  H12A 4987   1.328   4.495   6.417  0.8369  1.4125 -0.4454
   63SAPC  H12B 4988   1.166   4.454   6.428  1.0057 -1.3062 -0.8003
   63SAPC   C13 4989   1.359   4.590   6.187  0.4570 -0.2122 -0.1427
   63SAPC  H13A 4990   1.436   4.580   6.261 -1.0469 -0.5902  1.4051
   63SAPC  H13B 4991   1.392   4.565   6.087 -1.8223 -4.3910  0.0109
   63SAPC  H13C 4992   1.328   4.693   6.179 -0.6259 -0.4628  0.6990
   63SAPC   C14 4993   1.276   4.361   6.184 -0.5107 -0.1394  0.3506
   63SAPC  H14A 4994   1.190   4.298   6.197  0.0400 -0.2888  3.6355
   63SAPC  H14B 4995   1.312   4.359   6.082  1.3326  0.9871  0.9551
   63SAPC  H14C 4996   1.357   4.322   6.244 -0.3700 -0.1459  0.1559
   63SAPC   C15 4997   1.123   4.544   6.156  0.9907 -0.2391  0.4223
   63SAPC  H15A 4998   1.089   4.640   6.190 -2.2183 -1.0884 -0.1889
   63SAPC  H15B 4999   1.134   4.540   6.049  0.6340 -3.1627  0.4479
   63SAPC  H15C 5000   1.037   4.480   6.174 -0.6990  1.5682 -1.0504
   63SAPC   C11 5001   1.196   4.672   6.417  0.8778  0.5377 -0.3575
   63SAPC  H11A 5002   1.285   4.737   6.403  1.4270 -0.3804 -1.1573
   63SAPC  H11B 5003   1.182   4.666   6.527  2.6855 -2.1744 -0.2074
   63SAPC     P 5004   0.946   4.702   6.412  0.2328 -0.1977 -0.0155
   63SAPC   O13 5005   0.848   4.745   6.307  0.1434 -0.1486  0.5038
   63SAPC   O14 5006   0.940   4.562   6.462  0.8069 -0.2617  0.2514
   63SAPC   O12 5007   1.084   4.729   6.351 -0.1032 -0.1657  0.1550
   63SAPC   O11 5008   0.946   4.794   6.533  0.1943  0.2574 -0.5320
   63SAPC    C1 5009   0.948   4.937   6.519  0.2227 -0.2787  0.3102
   63SAPC    HA 5010   0.941   4.975   6.415  1.5761 -0.2032  0.2400
   63SAPC    HB 5011   0.851   4.978   6.556  0.1229 -1.0690  0.9379
   63SAPC    C2 5012   1.068   4.988   6.587  0.2243  0.2654 -0.1172
   63SAPC    HS 5013   1.157   4.924   6.568 -0.8973 -1.5925  0.7372
   63SAPC   O21 5014   1.031   4.981   6.726  0.1448  0.1270 -0.0809
   63SAPC   C21 5015   1.131   4.976   6.813 -0.0210  0.5950  0.3833
   63SAPC   O22 5016   1.251   4.968   6.781 -0.2690  0.1738 -0.0634
   63SAPC   C22 5017   1.069   4.978   6.958  0.2374 -0.3991 -0.4345
   63SAPC   H2R 5018   0.969   5.027   6.961  0.6654  0.4939  4.2456
   63SAPC   H2S 5019   1.065   4.872   6.990 -0.1835 -0.5598 -1.0176
   63SAPC    C3 5020   1.103   5.134   6.551 -0.1827  0.0645  0.0022
   63SAPC    HX 5021   1.022   5.200   6.589  0.1474 -0.2707  1.3056
   63SAPC    HY 5022   1.101   5.142   6.440  0.6004 -1.0793 -0.1043
   63SAPC   O31 5023   1.222   5.197   6.613  0.1055  0.0883  0.3660
   63SAPC   C31 5024   1.332   5.174   6.542  0.2292 -0.5837  0.1326
   63SAPC   O32 5025   1.337   5.089   6.455  0.3514 -0.4231  0.5664
   63SAPC   C32 5026   1.455   5.266   6.577  0.5176 -0.0137  0.5196
   63SAPC   H2X 5027   1.419   5.369   6.557 -1.5472 -0.7381  0.3574
   63SAPC   H2Y 5028   1.531   5.242   6.500 -1.4103 -1.0672 -1.1344
   63SAPC   C23 5029   1.173   5.040   7.059 -0.0225  0.2732  0.0053
   63SAPC   H3R 5030   1.226   5.122   7.007  0.3632  0.2614  0.3786
   63SAPC   H3S 5031   1.250   4.961   7.074 -0.9497 -0.2158  2.4951
   63SAPC   C24 5032   1.122   5.093   7.197  0.2716 -0.0959 -0.8091
   63SAPC   H4R 5033   1.019   5.132   7.180  1.2425  2.8177 -0.4196
   63SAPC   H4S 5034   1.197   5.172   7.220 -1.1998  1.1583 -0.2331
   63SAPC   C25 5035   1.119   4.971   7.290  0.1915 -0.5622  0.1660
   63SAPC   H5R 5036   1.095   4.879   7.236  0.9932  0.6488 -2.3860
   63SAPC   C26 5037   1.145   4.978   7.420 -0.2150  0.3927  0.1349
   63SAPC   H6R 5038   1.121   4.887   7.477  0.8388 -0.1702 -0.3129
   63SAPC   C27 5039   1.184   5.103   7.498 -0.2631 -0.6159  0.7832
   63SAPC   H7R 5040   1.177   5.193   7.434  0.0951 -0.6258  0.7246
   63SAPC   H7S 5041   1.290   5.078   7.522 -0.9707 -2.5454  2.0045
   63SAPC   C28 5042   1.103   5.119   7.621 -0.7042 -0.0082  0.3566
   63SAPC   H8R 5043   1.002   5.161   7.612 -0.6407  0.0337 -0.1444
   63SAPC   C29 5044   1.148   5.092   7.750  0.7330 -0.3521  0.8711
   63SAPC   H9R 5045   1.088   5.119   7.838 -0.3030 -0.9621  0.3571
   63SAPC  C210 5046   1.283   5.042   7.786  0.0939 -0.1785  0.2414
   63SAPC  H10R 5047   1.338   5.131   7.823 -1.5984  0.7748  0.5338
   63SAPC  H10S 5048   1.335   5.013   7.692  0.6016  1.1621  0.0995
   63SAPC  C211 5049   1.286   4.921   7.876  0.2509  0.5009  0.3241
   63SAPC  H11R 5050   1.251   4.833   7.820  2.6164  1.2058 -2.3638
   63SAPC  C212 5051   1.326   4.904   7.999  0.0044 -0.0867  0.0547
   63SAPC  H12R 5052   1.305   4.810   8.053 -0.7359  1.1183  1.8968
   63SAPC  C213 5053   1.380   5.015   8.086 -0.3601 -1.1382 -0.2251
   63SAPC  H13R 5054   1.463   5.066   8.033 -2.5045  0.4225 -2.2408
   63SAPC  H13S 5055   1.413   4.973   8.182  1.5521  1.7499  0.4420
   63SAPC  C214 5056   1.282   5.125   8.131 -0.1338 -0.4832 -0.3045
   63SAPC  H14R 5057   1.191   5.133   8.070 -1.6780  1.2970  2.1538
   63SAPC  C215 5058   1.281   5.204   8.247  0.7943  0.3021 -0.3264
   63SAPC  H15R 5059   1.199   5.274   8.266  1.8528  1.5591 -0.3588
   63SAPC  C216 5060   1.386   5.196   8.360 -0.9309  0.0434  1.0392
   63SAPC  H16R 5061   1.381   5.103   8.420  1.9410 -1.3500 -0.7309
   63SAPC  H16S 5062   1.381   5.280   8.432  1.8917 -0.3743  1.7990
   63SAPC  C217 5063   1.536   5.211   8.319  0.2224  0.0815  0.0635
   63SAPC  H17R 5064   1.540   5.293   8.243 -1.8191  2.0555  2.0029
   63SAPC  H17S 5065   1.580   5.122   8.269  0.8245  0.0573  0.6289
   63SAPC  C218 5066   1.634   5.235   8.434 -0.2887  0.3724  0.1921
   63SAPC  H18R 5067   1.649   5.144   8.497 -0.7039  0.5130  0.4985
   63SAPC  H18S 5068   1.595   5.314   8.501 -0.7172  0.2888  0.0451
   63SAPC  C219 5069   1.775   5.271   8.382 -0.5237 -0.4265 -0.7567
   63SAPC  H19R 5070   1.769   5.373   8.338  0.2635  0.3386  0.8693
   63SAPC  H19S 5071   1.812   5.204   8.302  3.2603 -0.2754  0.7625
   63SAPC  C220 5072   1.884   5.273   8.492 -0.9117 -0.0403 -0.3384
   63SAPC  H20R 5073   1.889   5.166   8.520  1.1192 -0.2371 -1.3501
   63SAPC  H20S 5074   1.853   5.336   8.578 -1.7557 -0.6752 -0.1655
   63SAPC  H20T 5075   1.975   5.308   8.439 -1.8781 -0.5946 -2.4226
   63SAPC   C33 5076   1.513   5.244   6.717 -0.3973  0.5080 -0.1191
   63SAPC   H3X 5077   1.423   5.237   6.782  1.3030 -0.9310  2.1692
   63SAPC   H3Y 5078   1.583   5.327   6.738  1.9237 -0.7840 -2.4159
   63SAPC   C34 5079   1.585   5.104   6.718 -0.3349 -0.0412 -0.5891
   63SAPC   H4X 5080   1.654   5.086   6.632  0.7370 -0.1338  0.2779
   63SAPC   H4Y 5081   1.503   5.029   6.716  1.2213 -1.9528  2.3971
   63SAPC   C35 5082   1.656   5.075   6.846  0.4181 -0.2753  0.4925
   63SAPC   H5X 5083   1.691   5.178   6.869 -3.0215  0.9305  0.6154
   63SAPC   H5Y 5084   1.739   5.003   6.833  0.8311  0.2188  0.3696
   63SAPC   C36 5085   1.547   5.034   6.947  0.2294 -0.5494  0.0780
   63SAPC   H6X 5086   1.492   4.942   6.917 -1.1015  0.9677 -2.1940
   63SAPC   H6Y 5087   1.472   5.114   6.960 -0.4381 -0.6402 -2.9671
   63SAPC   C37 5088   1.618   5.015   7.083  0.0106 -1.0520  0.9368
   63SAPC   H7X 5089   1.653   5.115   7.114 -0.0358 -0.8043  0.1995
   63SAPC   H7Y 5090   1.718   4.965   7.080  2.7245  4.0347  1.5521
   63SAPC   C38 5091   1.527   4.950   7.184  0.1992 -0.3436 -0.3014
   63SAPC   H8X 5092   1.477   4.864   7.135  1.6786 -0.5682 -1.4469
   63SAPC   H8Y 5093   1.440   5.016   7.206  0.7656 -0.4167  2.3410
   63SAPC   C39 5094   1.601   4.912   7.312 -0.3608 -0.1309  0.1331
   63SAPC   H9X 5095   1.697   4.859   7.292 -1.2406 -1.0273 -1.8722
   63SAPC   H9Y 5096   1.538   4.836   7.362  0.8238  0.2405  2.2430
   63SAPC  C310 5097   1.631   5.025   7.408 -0.0246 -0.0051 -0.1485
   63SAPC  H10X 5098   1.536   5.066   7.449 -0.0618 -1.7813  1.6143
   63SAPC  H10Y 5099   1.682   5.109   7.356  2.6562  0.2207  2.7129
   63SAPC  C311 5100   1.728   5.001   7.535  0.3958 -0.2239 -0.2835
   63SAPC  H11X 5101   1.752   5.096   7.588 -0.9549  0.9304 -1.6758
   63SAPC  H11Y 5102   1.835   4.979   7.511  0.2587 -1.5978  0.3500
   63SAPC  C312 5103   1.662   4.909   7.646 -0.5490 -1.0575 -0.3825
   63SAPC  H12X 5104   1.636   4.807   7.611 -0.4158 -1.4580  0.6624
   63SAPC  H12Y 5105   1.566   4.953   7.680  0.5714  1.1152  0.0578
   63SAPC  C313 5106   1.752   4.913   7.771 -0.2404 -0.3339 -0.7028
   63SAPC  H13X 5107   1.788   5.017   7.789  2.5946 -1.1706 -1.2603
   63SAPC  H13Y 5108   1.840   4.849   7.750 -1.1193 -2.5497  2.0881
   63SAPC  C314 5109   1.670   4.861   7.895 -0.0630  0.0597  0.6394
   63SAPC  H14X 5110   1.628   4.762   7.867  0.5308  0.3922 -1.5199
   63SAPC  H14Y 5111   1.585   4.930   7.913 -1.2800 -1.6609  1.6586
   63SAPC  C315 5112   1.765   4.852   8.017  0.1496  0.9919 -0.0877
   63SAPC  H15X 5113   1.796   4.956   8.042  0.9468  0.6063  0.5673
   63SAPC  H15Y 5114   1.854   4.787   8.003 -2.3986 -2.5353 -0.5606
   63SAPC  C316 5115   1.706   4.786   8.144  0.2010  0.0153 -0.1680
   63SAPC  H16X 5116   1.694   4.679   8.115  2.1967 -0.4837  0.7862
   63SAPC  H16Y 5117   1.605   4.827   8.167 -0.3622 -0.0665 -2.3349
   63SAPC  C317 5118   1.815   4.784   8.254  0.1139 -0.0849 -0.3389
   63SAPC  H17X 5119   1.836   4.887   8.290  1.3899 -0.8558  1.1844
   63SAPC  H17Y 5120   1.905   4.737   8.210  1.6671  1.6692  0.8757
   63SAPC  C318 5121   1.774   4.712   8.391 -0.4154 -1.1452  0.3114
   63SAPC  H18X 5122   1.683   4.761   8.432 -0.0931 -1.2258  1.1496
   63SAPC  H18Y 5123   1.860   4.721   8.460 -0.3932  0.1279  0.1233
   63SAPC  H18Z 5124   1.753   4.604   8.376  0.5959 -1.2225 -0.5829
   64SAPC     N 5125   3.489   4.452   5.888  0.4365  0.1543 -0.7106
   64SAPC   C12 5126   3.401   4.546   5.977 -0.2449  0.2303  0.1053
   64SAPC  H12A 5127   3.315   4.492   6.014 -0.2114 -0.3104 -0.5950
   64SAPC  H12B 5128   3.360   4.625   5.916  0.5993  0.2877 -0.3978
   64SAPC   C13 5129   3.411   4.396   5.767 -0.1380 -0.4419  0.2403
   64SAPC  H13A 5130   3.351   4.312   5.799  0.9537 -1.0103  0.7981
   64SAPC  H13B 5131   3.359   4.471   5.709 -1.6992 -0.4559  1.5630
   64SAPC  H13C 5132   3.486   4.353   5.703 -1.3218 -1.3456 -0.5676
   64SAPC   C14 5133   3.604   4.532   5.837 -0.5833  0.3282  0.4928
   64SAPC  H14A 5134   3.679   4.472   5.787 -1.8144  0.9105 -2.1556
   64SAPC  H14B 5135   3.573   4.617   5.779 -1.1830 -0.4480 -0.3406
   64SAPC  H14C 5136   3.650   4.589   5.916  1.8341 -0.6816 -0.1247
   64SAPC   C15 5137   3.539   4.329   5.956 -0.2462 -0.2785  0.2585
   64SAPC  H15A 5138   3.455   4.269   5.988 -1.7563  2.2137  1.1194
   64SAPC  H15B 5139   3.592   4.267   5.886 -2.3769  0.1094 -1.7356
   64SAPC  H15C 5140   3.591   4.346   6.049 -0.7460 -0.4551  0.5732
   64SAPC   C11 5141   3.466   4.597   6.105 -0.7053  0.1976 -0.2699
   64SAPC  H11A 5142   3.482   4.506   6.167  0.6654  0.8696  0.3979
   64SAPC  H11B 5143   3.381   4.650   6.154 -2.4075  0.2954 -3.2193
   64SAPC     P 5144   3.695   4.707   6.160  0.2673  0.4161 -0.5947
   64SAPC   O13 5145   3.767   4.578   6.168 -0.3889 -0.1092  0.0228
   64SAPC   O14 5146   3.771   4.818   6.097  0.4940 -0.4249  0.3527
   64SAPC   O12 5147   3.574   4.679   6.075 -0.0364 -0.6466  0.2009
   64SAPC   O11 5148   3.637   4.741   6.300  0.5501 -0.0135  0.4381
   64SAPC    C1 5149   3.630   4.877   6.351 -0.3175  0.1795 -0.3026
   64SAPC    HA 5150   3.585   4.942   6.274 -3.1117 -0.7491  0.4708
   64SAPC    HB 5151   3.559   4.877   6.436 -0.2544 -2.0937 -0.2079
   64SAPC    C2 5152   3.768   4.942   6.397 -0.1552  0.0725 -0.2849
   64SAPC    HS 5153   3.841   4.941   6.313  1.9640 -3.1990  1.5188
   64SAPC   O21 5154   3.818   4.872   6.511  0.4972 -0.0850 -0.4265
   64SAPC   C21 5155   3.947   4.887   6.533  0.8124  0.0403 -0.5278
   64SAPC   O22 5156   4.024   4.959   6.476 -0.0037  0.3907 -0.4042
   64SAPC   C22 5157   3.985   4.803   6.648 -0.3371  0.3341  0.4027
   64SAPC   H2R 5158   3.908   4.796   6.728  0.6579 -0.2530  1.3197
   64SAPC   H2S 5159   3.995   4.694   6.628 -0.8422  0.1755  0.9933
   64SAPC    C3 5160   3.741   5.091   6.443 -0.3474 -0.1131 -0.2326
   64SAPC    HX 5161   3.699   5.151   6.360 -1.3213 -0.8483 -0.2718
   64SAPC    HY 5162   3.841   5.128   6.474  0.6008 -1.9544 -0.9694
   64SAPC   O31 5163   3.651   5.109   6.551  0.2301  0.3413  0.0248
   64SAPC   C31 5164   3.667   5.224   6.620  0.2195 -0.2385  0.1859
   64SAPC   O32 5165   3.740   5.316   6.579  0.1679  0.4748 -0.4361
   64SAPC   C32 5166   3.578   5.235   6.748  0.4976 -0.2686 -0.4052
   64SAPC   H2X 5167   3.595   5.140   6.803 -0.0071  0.3166  0.7907
   64SAPC   H2Y 5168   3.470   5.231   6.722  0.1073 -1.2128  1.2857
   64SAPC   C23 5169   4.107   4.847   6.726 -0.4741 -0.3673  0.3204
   64SAPC   H3R 5170   4.179   4.904   6.663  0.9468  0.1671  2.3776
   64SAPC   H3S 5171   4.149   4.746   6.744 -1.4966 -0.5510  1.7780
   64SAPC   C24 5172   4.087   4.928   6.859 -0.0197 -0.0907 -0.0858
   64SAPC   H4R 5173   4.181   4.934   6.918  0.9286  0.9015 -1.6590
   64SAPC   H4S 5174   4.016   4.862   6.912 -1.4985  0.6662 -1.1093
   64SAPC   C25 5175   4.025   5.065   6.830  0.3252  0.1189 -0.5122
   64SAPC   H5R 5176   4.069   5.114   6.742  0.6917 -1.2674 -1.1177
   64SAPC   C26 5177   3.929   5.134   6.890 -0.1744 -0.2555  0.7589
   64SAPC   H6R 5178   3.895   5.225   6.839 -0.4183 -1.4252 -1.2377
   64SAPC   C27 5179   3.862   5.096   7.019 -0.2757  0.4529 -0.4630
   64SAPC   H7R 5180   3.891   4.995   7.056 -1.4180  1.1733  2.4781
   64SAPC   H7S 5181   3.753   5.099   6.999 -0.2286  2.2652 -0.4980
   64SAPC   C28 5182   3.879   5.198   7.120 -0.3028  0.3745 -0.4014
   64SAPC   H8R 5183   3.946   5.282   7.095 -1.1114  0.3287 -2.8692
   64SAPC   C29 5184   3.818   5.199   7.237  0.7889 -0.0480  0.1701
   64SAPC   H9R 5185   3.830   5.292   7.293 -2.6145  0.5168  0.0934
   64SAPC  C210 5186   3.720   5.107   7.301 -0.1520  0.0878 -0.1712
   64SAPC  H10R 5187   3.696   5.026   7.229  3.0694 -1.6502  0.6205
   64SAPC  H10S 5188   3.635   5.175   7.325  0.8837  0.6988  1.8835
   64SAPC  C211 5189   3.775   5.041   7.428 -0.2865  0.2071 -0.0858
   64SAPC  H11R 5190   3.854   4.969   7.402 -2.4359 -2.3641  0.3549
   64SAPC  C212 5191   3.736   5.056   7.553  1.4043 -0.3355 -0.0035
   64SAPC  H12R 5192   3.790   5.002   7.632 -1.2593  0.5644  2.5028
   64SAPC  C213 5193   3.636   5.149   7.607 -0.3366 -0.1414  0.1164
   64SAPC  H13R 5194   3.567   5.093   7.674 -0.1176 -3.7742 -2.5315
   64SAPC  H13S 5195   3.567   5.185   7.528 -0.8472  1.7609  1.4034
   64SAPC  C214 5196   3.691   5.279   7.666  0.0488  0.1861  0.1593
   64SAPC  H14R 5197   3.779   5.326   7.619 -0.7566  2.0151  0.4610
   64SAPC  C215 5198   3.634   5.352   7.762 -0.1160 -0.2546 -0.4383
   64SAPC  H15R 5199   3.670   5.454   7.780  0.2196  0.0294 -2.5567
   64SAPC  C216 5200   3.504   5.324   7.828  1.1019  0.3142 -0.7353
   64SAPC  H16R 5201   3.426   5.289   7.757  0.6650  0.0561 -0.1328
   64SAPC  H16S 5202   3.459   5.414   7.875  1.7782  1.0758 -1.5092
   64SAPC  C217 5203   3.524   5.232   7.953  0.1688  0.8411  0.4385
   64SAPC  H17R 5204   3.593   5.285   8.021  0.6861  0.0629  0.5322
   64SAPC  H17S 5205   3.562   5.130   7.930  0.4056  0.8350  0.8534
   64SAPC  C218 5206   3.397   5.205   8.040 -0.1033  0.3104  0.2947
   64SAPC  H18R 5207   3.329   5.127   8.000  2.4270 -2.7275  1.6742
   64SAPC  H18S 5208   3.332   5.294   8.047  1.0311  1.2202 -0.5269
   64SAPC  C219 5209   3.430   5.165   8.187  0.3688 -0.3850  0.1599
   64SAPC  H19R 5210   3.345   5.118   8.242 -0.3972  0.3422 -0.3843
   64SAPC  H19S 5211   3.453   5.263   8.234 -2.0903  0.9486 -1.3546
   64SAPC  C220 5212   3.553   5.075   8.203  0.0069  0.4414 -0.2565
   64SAPC  H20R 5213   3.645   5.118   8.157  0.2129 -1.4824 -1.7224
   64SAPC  H20S 5214   3.542   4.984   8.140  2.0752  0.0858 -0.1449
   64SAPC  H20T 5215   3.559   5.050   8.311  0.6491  0.5509 -0.2593
   64SAPC   C33 5216   3.592   5.361   6.848  0.1662 -0.2389  0.2498
   64SAPC   H3X 5217   3.701   5.378   6.859  0.3825 -0.6466 -1.1978
   64SAPC   H3Y 5218   3.564   5.319   6.947 -0.8537 -2.7746 -1.0772
   64SAPC   C34 5219   3.522   5.487   6.802  0.3591 -0.6251 -0.4399
   64SAPC   H4X 5220   3.413   5.465   6.809 -0.4584  1.6973 -4.3435
   64SAPC   H4Y 5221   3.554   5.530   6.704 -1.7451 -0.8522 -1.2718
   64SAPC   C35 5222   3.561   5.610   6.895 -0.0806  0.4251  1.1922
   64SAPC   H5X 5223   3.482   5.688   6.886 -0.0683  0.4938  1.6871
   64SAPC   H5Y 5224   3.656   5.659   6.864 -1.2283  1.5917 -0.6199
   64SAPC   C36 5225   3.578   5.584   7.049  0.5245 -0.2054  0.2295
   64SAPC   H6X 5226   3.660   5.509   7.063  1.0985  0.1154 -1.3054
   64SAPC   H6Y 5227   3.484   5.541   7.090 -0.6474  2.1933  0.1080
   64SAPC   C37 5228   3.592   5.717   7.122  0.3436  0.4276 -0.3169
   64SAPC   H7X 5229   3.496   5.770   7.109 -0.1747 -0.0265  1.4422
   64SAPC   H7Y 5230   3.685   5.775   7.100  1.4116  0.5722  4.0182
   64SAPC   C38 5231   3.609   5.698   7.275 -0.9418  0.4637 -0.0659
   64SAPC   H8X 5232   3.616   5.796   7.328  0.1231  0.2048  0.2958
   64SAPC   H8Y 5233   3.707   5.647   7.287 -1.8462 -1.1013  0.8178
   64SAPC   C39 5234   3.504   5.623   7.351  1.1551 -0.3615 -0.6583
   64SAPC   H9X 5235   3.501   5.515   7.323  1.9203 -1.1525  2.1954
   64SAPC   H9Y 5236   3.399   5.658   7.339  0.4586 -1.5821  1.5773
   64SAPC  C310 5237   3.533   5.621   7.499  0.1384  0.3456 -0.4269
   64SAPC  H10X 5238   3.640   5.601   7.521  0.1591  1.4990  0.5793
   64SAPC  H10Y 5239   3.476   5.533   7.536  0.3974  1.0252  1.6242
   64SAPC  C311 5240   3.483   5.747   7.567 -1.0099  0.0797 -0.2683
   64SAPC  H11X 5241   3.375   5.755   7.544 -0.3885  1.7796 -2.7264
   64SAPC  H11Y 5242   3.524   5.838   7.518 -1.1549  1.6343  2.3757
   64SAPC  C312 5243   3.525   5.759   7.709  0.6605 -0.0453  0.7762
   64SAPC  H12X 5244   3.631   5.733   7.728  0.9271  1.3487  1.2862
   64SAPC  H12Y 5245   3.458   5.691   7.766  0.5949  0.1555  0.9419
   64SAPC  C313 5246   3.515   5.909   7.754  0.3668 -0.1659 -0.1699
   64SAPC  H13X 5247   3.593   5.973   7.708  0.7838 -1.3994 -1.2274
   64SAPC  H13Y 5248   3.541   5.906   7.862  0.7752 -2.7275 -0.3162
   64SAPC  C314 5249   3.377   5.975   7.714  0.3245 -0.5248  0.0278
   64SAPC  H14X 5250   3.308   5.895   7.750 -0.7153 -0.4384 -1.7335
   64SAPC  H14Y 5251   3.364   5.971   7.604 -1.4329 -1.5607  0.2319
   64SAPC  C315 5252   3.337   6.112   7.776 -0.4098  0.0478  0.5909
   64SAPC  H15X 5253   3.236   6.145   7.742 -0.0262 -0.8510 -1.4858
   64SAPC  H15Y 5254   3.412   6.186   7.741  1.6672 -3.0328 -1.6615
   64SAPC  C316 5255   3.328   6.112   7.927  0.2162 -0.3123  0.0606
   64SAPC  H16X 5256   3.298   6.212   7.963 -0.5663 -0.6319  0.3100
   64SAPC  H16Y 5257   3.426   6.101   7.978 -0.3007 -0.8867  0.9491
   64SAPC  C317 5258   3.239   6.001   7.990 -0.2155  0.3309  0.2206
   64SAPC  H17X 5259   3.283   5.899   7.992 -1.7162 -0.3334  0.1504
   64SAPC  H17Y 5260   3.144   5.993   7.933 -1.5948 -2.8253  2.8408
   64SAPC  C318 5261   3.192   6.044   8.132  0.3913  0.2059  0.2088
   64SAPC  H18X 5262   3.155   5.961   8.195  0.2668  1.0913  1.3118
   64SAPC  H18Y 5263   3.118   6.127   8.135 -1.1130 -1.0758 -0.6985
   64SAPC  H18Z 5264   3.282   6.077   8.188  0.5244 -2.0762  1.3725
   65SAPC     N 5265   3.222   5.942   6.049  0.0251 -0.2323  0.3132
   65SAPC   C12 5266   3.148   6.049   6.130  0.3529  0.8840 -0.2973
   65SAPC  H12A 5267   3.080   6.002   6.199 -1.4351  1.1836 -1.8375
   65SAPC  H12B 5268   3.092   6.105   6.057 -1.4551 -0.8939 -0.3216
   65SAPC   C13 5269   3.117   5.845   5.992  0.1902 -0.7379  0.8637
   65SAPC  H13A 5270   3.144   5.791   5.903 -0.2671  0.4666 -0.0177
   65SAPC  H13B 5271   3.075   5.778   6.067 -0.4441 -1.2163  0.0859
   65SAPC  H13C 5272   3.029   5.898   5.959  1.4558  1.4745  0.9847
   65SAPC   C14 5273   3.293   5.993   5.936  0.1100  0.0537  0.6102
   65SAPC  H14A 5274   3.340   5.917   5.876 -0.7414  0.4583 -0.5960
   65SAPC  H14B 5275   3.232   6.040   5.861  0.7796 -2.1256 -1.3614
   65SAPC  H14C 5276   3.370   6.064   5.964  1.3607 -0.7765 -0.6568
   65SAPC   C15 5277   3.307   5.865   6.142 -0.5241  0.4381  0.8638
   65SAPC  H15A 5278   3.254   5.822   6.225 -0.9101 -1.2013 -0.2009
   65SAPC  H15B 5279   3.360   5.787   6.089  0.4053 -0.3141  2.8707
   65SAPC  H15C 5280   3.387   5.921   6.188  0.8001 -0.3099 -0.4851
   65SAPC   C11 5281   3.236   6.141   6.216  0.0435  0.3537 -0.5037
   65SAPC  H11A 5282   3.277   6.072   6.293  1.1199 -1.6488 -2.8011
   65SAPC  H11B 5283   3.176   6.216   6.271  0.2696  1.2631 -1.4926
   65SAPC     P 5284   3.342   6.347   6.102  0.1128 -0.1821  0.0978
   65SAPC   O13 5285   3.469   6.398   6.045 -0.2395  0.5701 -0.0109
   65SAPC   O14 5286   3.226   6.362   6.009  0.2182 -0.1798  0.4971
   65SAPC   O12 5287   3.348   6.198   6.141 -0.0092 -0.3025  0.0354
   65SAPC   O11 5288   3.314   6.419   6.239 -0.0762 -0.3622  0.0007
   65SAPC    C1 5289   3.419   6.442   6.338  0.1428 -0.8598  0.7697
   65SAPC    HA 5290   3.508   6.486   6.288 -0.9464  1.3818  0.7374
   65SAPC    HB 5291   3.380   6.525   6.400 -1.2533 -1.3910  0.6172
   65SAPC    C2 5292   3.443   6.324   6.433  0.0839 -0.3114  0.4416
   65SAPC    HS 5293   3.469   6.244   6.362 -0.3556 -0.2428  0.2030
   65SAPC   O21 5294   3.333   6.300   6.520 -0.2509 -0.1080 -0.1668
   65SAPC   C21 5295   3.322   6.177   6.571 -0.2157 -0.4139  0.3372
   65SAPC   O22 5296   3.395   6.084   6.552  0.3360  0.1024  0.5459
   65SAPC   C22 5297   3.224   6.193   6.681  0.3212 -0.6139 -0.1112
   65SAPC   H2R 5298   3.245   6.289   6.733  1.7217 -0.7257 -0.4347
   65SAPC   H2S 5299   3.126   6.204   6.631 -0.2412 -1.6183  0.7786
   65SAPC    C3 5300   3.573   6.336   6.520  0.0349 -1.2427  0.3264
   65SAPC    HX 5301   3.646   6.389   6.456 -0.3063 -2.7212 -1.3068
   65SAPC    HY 5302   3.610   6.232   6.531  0.7897 -0.8733  1.3100
   65SAPC   O31 5303   3.550   6.406   6.653 -0.2058 -0.1079 -0.1995
   65SAPC   C31 5304   3.536   6.539   6.649  0.2609 -0.7107 -0.0538
   65SAPC   O32 5305   3.579   6.609   6.565 -0.4669 -0.4334 -0.4312
   65SAPC   C32 5306   3.473   6.579   6.781  0.2840 -0.2717 -0.3968
   65SAPC   H2X 5307   3.534   6.668   6.808 -2.6193  1.8819 -0.6307
   65SAPC   H2Y 5308   3.492   6.503   6.860  1.0641  1.9683  1.6211
   65SAPC   C23 5309   3.200   6.075   6.778 -0.4756 -0.3331  0.0397
   65SAPC   H3R 5310   3.218   5.976   6.730  1.2547 -0.6326  1.2816
   65SAPC   H3S 5311   3.093   6.087   6.807 -0.7197  0.2053 -1.0586
   65SAPC   C24 5312   3.283   6.078   6.905  0.3243 -0.5124  0.1547
   65SAPC   H4R 5313   3.260   6.163   6.972  1.1793  0.5762 -0.9087
   65SAPC   H4S 5314   3.390   6.081   6.873  0.0267 -0.8145 -0.9009
   65SAPC   C25 5315   3.271   5.952   6.985  0.8409  0.4395  0.0179
   65SAPC   H5R 5316   3.268   5.862   6.922  2.2996  0.0732  0.4460
   65SAPC   C26 5317   3.290   5.943   7.119 -0.2827 -0.4358  0.0201
   65SAPC   H6R 5318   3.280   5.840   7.158  0.5974 -0.4279  0.2892
   65SAPC   C27 5319   3.314   6.050   7.222 -0.8518  0.3688  0.5828
   65SAPC   H7R 5320   3.233   6.036   7.297 -0.5747  1.3092  1.0634
   65SAPC   H7S 5321   3.294   6.153   7.186  0.7906  0.5218  0.1000
   65SAPC   C28 5322   3.451   6.046   7.292 -0.1359  0.2939 -1.1168
   65SAPC   H8R 5323   3.524   5.966   7.269 -0.6214 -0.2088 -0.9189
   65SAPC   C29 5324   3.499   6.142   7.376  0.0243  0.5700  0.1489
   65SAPC   H9R 5325   3.599   6.130   7.421  0.5046  1.2508 -0.7250
   65SAPC  C210 5326   3.423   6.264   7.414  0.3553 -0.1019  0.5380
   65SAPC  H10R 5327   3.441   6.293   7.520 -0.9580  1.6330  0.3091
   65SAPC  H10S 5328   3.313   6.245   7.416  0.0743  1.5015  1.9186
   65SAPC  C211 5329   3.448   6.373   7.309 -1.0349  0.1238  0.5420
   65SAPC  H11R 5330   3.396   6.356   7.214  1.8441 -1.2480 -0.8492
   65SAPC  C212 5331   3.512   6.492   7.322 -0.3354 -0.2116 -0.2664
   65SAPC  H12R 5332   3.527   6.558   7.235 -1.1014  0.1185 -0.1456
   65SAPC  C213 5333   3.573   6.536   7.452 -0.5677 -0.2543  0.9931
   65SAPC  H13R 5334   3.679   6.500   7.454  0.2536  2.0546  0.3383
   65SAPC  H13S 5335   3.522   6.485   7.537  0.9441 -2.0999  0.8407
   65SAPC  C214 5336   3.584   6.684   7.464  1.2699 -0.0056 -0.2524
   65SAPC  H14R 5337   3.578   6.747   7.374  0.6971  0.0198 -0.2018
   65SAPC  C215 5338   3.589   6.757   7.581  0.6312  0.5321 -0.1684
   65SAPC  H15R 5339   3.600   6.867   7.577  1.0252  0.6708  3.3716
   65SAPC  C216 5340   3.586   6.707   7.727  0.2806  1.1910  0.0315
   65SAPC  H16R 5341   3.666   6.756   7.786  1.1728  1.7033 -1.5865
   65SAPC  H16S 5342   3.616   6.600   7.735  0.3228  1.2912  1.4125
   65SAPC  C217 5343   3.445   6.729   7.802 -0.1267  0.8627  0.1330
   65SAPC  H17R 5344   3.372   6.691   7.728 -0.9495  1.5281  0.6074
   65SAPC  H17S 5345   3.438   6.838   7.826 -1.4229  0.5870  1.0226
   65SAPC  C218 5346   3.431   6.634   7.924  0.1133  0.2479  0.1048
   65SAPC  H18R 5347   3.443   6.527   7.895 -2.1151 -0.4464  1.6007
   65SAPC  H18S 5348   3.326   6.664   7.942  0.3564  0.8187  0.5710
   65SAPC  C219 5349   3.506   6.676   8.054 -0.5067  0.4021 -0.3887
   65SAPC  H19R 5350   3.446   6.627   8.134 -1.4885 -0.5925 -1.7289
   65SAPC  H19S 5351   3.498   6.787   8.054 -0.4579  0.4114  0.6264
   65SAPC  C220 5352   3.650   6.627   8.080  0.0523 -0.2203 -0.1730
   65SAPC  H20R 5353   3.652   6.533   8.020 -1.8676  0.5272 -1.4277
   65SAPC  H20S 5354   3.670   6.605   8.187  1.0339 -0.6103 -0.4229
   65SAPC  H20T 5355   3.734   6.694   8.050  1.5456 -2.3378 -0.9209
   65SAPC   C33 5356   3.321   6.608   6.761 -0.0169 -0.2802  0.7755
   65SAPC   H3X 5357   3.275   6.507   6.751  1.1842 -0.6122 -2.2732
   65SAPC   H3Y 5358   3.307   6.658   6.663  1.5567 -1.3564 -0.0230
   65SAPC   C34 5359   3.267   6.706   6.864  0.7900 -0.6963 -0.2717
   65SAPC   H4X 5360   3.159   6.721   6.846  1.1115  0.0083 -1.6880
   65SAPC   H4Y 5361   3.319   6.804   6.859 -1.0034  0.5292  3.9058
   65SAPC   C35 5362   3.283   6.668   7.014 -0.8588 -0.1675  0.4140
   65SAPC   H5X 5363   3.387   6.683   7.047 -0.8649 -1.4607  1.0496
   65SAPC   H5Y 5364   3.249   6.564   7.034  0.7435 -0.7820  0.0036
   65SAPC   C36 5365   3.198   6.765   7.105 -0.0235  0.6391 -0.0513
   65SAPC   H6X 5366   3.088   6.758   7.088 -0.2149  2.1606  0.5189
   65SAPC   H6Y 5367   3.216   6.873   7.090 -1.4669  0.5298 -2.7574
   65SAPC   C37 5368   3.221   6.728   7.250  0.4362 -0.5243 -0.2596
   65SAPC   H7X 5369   3.332   6.727   7.257  0.3621 -1.4339  1.1032
   65SAPC   H7Y 5370   3.182   6.625   7.264 -2.1818  0.7635  2.4156
   65SAPC   C38 5371   3.154   6.817   7.353  0.2123 -0.4334  0.1875
   65SAPC   H8X 5372   3.045   6.797   7.344  0.1674 -0.8481  1.5193
   65SAPC   H8Y 5373   3.178   6.924   7.338 -3.4728  0.5356  0.6551
   65SAPC   C39 5374   3.186   6.765   7.496 -0.2296  0.2271 -0.1514
   65SAPC   H9X 5375   3.289   6.726   7.507 -0.7938 -0.3978  3.8538
   65SAPC   H9Y 5376   3.133   6.667   7.498 -2.4153  1.3666  0.8482
   65SAPC  C310 5377   3.152   6.852   7.616  0.7689  0.1567  0.1662
   65SAPC  H10X 5378   3.222   6.939   7.610  0.4070  0.4352 -0.0010
   65SAPC  H10Y 5379   3.181   6.801   7.711  1.2748  0.0821 -0.0279
   65SAPC  C311 5380   3.000   6.886   7.619 -0.0443  0.3087 -0.6685
   65SAPC  H11X 5381   2.944   6.797   7.654 -0.8230  1.1099  0.1430
   65SAPC  H11Y 5382   2.953   6.908   7.520  0.7863  0.1495 -1.1031
   65SAPC  C312 5383   2.966   6.999   7.719 -0.6891 -0.6815  0.5033
   65SAPC  H12X 5384   2.863   7.038   7.707 -1.0592 -0.2732  4.3757
   65SAPC  H12Y 5385   3.035   7.085   7.705  0.2248 -1.2851  1.3083
   65SAPC  C313 5386   2.960   6.949   7.867  0.3003 -0.1674 -0.3882
   65SAPC  H13X 5387   3.056   6.893   7.872  0.1453 -0.3801  0.2024
   65SAPC  H13Y 5388   2.884   6.869   7.873  0.4219 -0.2791 -0.3203
   65SAPC  C314 5389   2.957   7.063   7.965  0.0913  0.5256 -0.3919
   65SAPC  H14X 5390   2.857   7.112   7.958 -0.1620  0.1023  0.2970
   65SAPC  H14Y 5391   3.030   7.143   7.941  0.7399 -0.0052 -0.1812
   65SAPC  C315 5392   2.979   7.028   8.114 -0.9271 -0.2294 -0.0366
   65SAPC  H15X 5393   2.902   6.955   8.148  1.1280 -2.4147  0.1214
   65SAPC  H15Y 5394   2.964   7.122   8.171 -2.2083  2.3189 -4.3204
   65SAPC  C316 5395   3.116   6.979   8.132 -0.1554  0.3120 -0.1165
   65SAPC  H16X 5396   3.185   7.059   8.096  1.7402 -0.0947  2.4703
   65SAPC  H16Y 5397   3.145   6.885   8.080 -1.2532  0.7624 -1.5816
   65SAPC  C317 5398   3.159   6.946   8.282  0.7712 -0.1501  0.0657
   65SAPC  H17X 5399   3.083   6.868   8.308 -0.5066  1.0888  0.1285
   65SAPC  H17Y 5400   3.145   7.036   8.346  1.8769  0.8262 -1.0458
   65SAPC  C318 5401   3.303   6.905   8.287  0.5952 -0.6090 -0.2268
   65SAPC  H18X 5402   3.370   6.994   8.286 -1.3888  0.9327 -2.1043
   65SAPC  H18Y 5403   3.315   6.838   8.199 -0.6163 -0.3263 -0.6230
   65SAPC  H18Z 5404   3.330   6.849   8.379 -0.1850  0.1356  0.4680
   66SAPC     N 5405   1.203   6.394   5.812  0.2517 -0.0959  0.4124
   66SAPC   C12 5406   1.194   6.417   5.959  0.2154 -0.1519 -0.3883
   66SAPC  H12A 5407   1.095   6.458   5.969  1.6448  3.5365 -0.4631
   66SAPC  H12B 5408   1.266   6.492   5.989  1.5373 -1.5596  0.0144
   66SAPC   C13 5409   1.083   6.308   5.766  0.7055 -0.2248  0.1231
   66SAPC  H13A 5410   1.082   6.213   5.819  2.8057 -0.6668 -0.5937
   66SAPC  H13B 5411   0.994   6.368   5.777  1.8223  1.0588  2.5175
   66SAPC  H13C 5412   1.098   6.283   5.662 -2.0129 -2.1935  0.1294
   66SAPC   C14 5413   1.199   6.522   5.732 -0.5225  0.8022 -0.0193
   66SAPC  H14A 5414   1.116   6.587   5.758 -2.0099 -1.1091  0.1263
   66SAPC  H14B 5415   1.286   6.580   5.760 -1.0855  1.6310  0.0246
   66SAPC  H14C 5416   1.193   6.506   5.626  3.2599 -0.7136 -0.0698
   66SAPC   C15 5417   1.331   6.321   5.781 -0.0860  0.0579 -1.0774
   66SAPC  H15A 5418   1.332   6.226   5.832 -1.1303  1.0732  0.8459
   66SAPC  H15B 5419   1.352   6.313   5.675 -1.2482 -0.6560 -1.2750
   66SAPC  H15C 5420   1.417   6.373   5.819 -2.1099  1.0542  2.3626
   66SAPC   C11 5421   1.194   6.299   6.057  0.2890  0.4969 -0.7120
   66SAPC  H11A 5422   1.187   6.331   6.163  0.5720  2.3531 -1.2265
   66SAPC  H11B 5423   1.288   6.242   6.044  0.2740  0.8074 -2.3523
   66SAPC     P 5424   0.931   6.270   6.078 -0.1449 -0.0793 -0.0662
   66SAPC   O13 5425   0.915   6.416   6.063 -0.7033  0.0300 -0.0084
   66SAPC   O14 5426   0.827   6.187   6.011 -0.4390  0.2223  0.4969
   66SAPC   O12 5427   1.075   6.217   6.033 -0.3821  0.1733  0.1291
   66SAPC   O11 5428   0.933   6.239   6.227  0.5967 -0.1156  0.4178
   66SAPC    C1 5429   0.916   6.116   6.294  0.0124  0.0109 -0.9550
   66SAPC    HA 5430   0.807   6.096   6.288 -0.4499  1.5256  1.7396
   66SAPC    HB 5431   0.981   6.034   6.255  0.4986  0.3266 -0.8137
   66SAPC    C2 5432   0.942   6.127   6.455 -0.1574 -0.3468 -0.0427
   66SAPC    HS 5433   0.842   6.095   6.492  0.1593 -0.2719  0.8728
   66SAPC   O21 5434   0.981   6.261   6.500 -0.0384 -0.1018 -0.1858
   66SAPC   C21 5435   0.884   6.353   6.485 -0.0596  0.3456 -0.3343
   66SAPC   O22 5436   0.762   6.326   6.470 -0.7023 -0.1952 -0.4829
   66SAPC   C22 5437   0.956   6.487   6.470  0.3055 -0.6202  0.2109
   66SAPC   H2R 5438   1.019   6.482   6.379  1.4119  2.2146  0.7853
   66SAPC   H2S 5439   0.884   6.568   6.448  0.8520 -0.4853 -1.0984
   66SAPC    C3 5440   1.044   6.022   6.501  0.7003  0.3992 -0.2385
   66SAPC    HX 5441   1.127   6.038   6.429  1.9666  2.0211  1.5434
   66SAPC    HY 5442   1.010   5.918   6.482 -0.6629  0.4743  1.6596
   66SAPC   O31 5443   1.103   6.028   6.636 -0.2769 -0.0011  0.1516
   66SAPC   C31 5444   1.013   6.007   6.727  0.5144  0.1788 -0.3781
   66SAPC   O32 5445   0.898   5.965   6.705  0.2924 -0.0020  0.3205
   66SAPC   C32 5446   1.069   6.042   6.867  0.6946 -0.0334  0.1002
   66SAPC   H2X 5447   1.061   6.151   6.881 -0.4584  0.0111 -0.8741
   66SAPC   H2Y 5448   1.176   6.013   6.872  0.9928  1.3011  2.1146
   66SAPC   C23 5449   1.028   6.538   6.602 -0.1106  0.3446 -0.2590
   66SAPC   H3R 5450   1.058   6.640   6.571  1.0672  0.3510  0.8627
   66SAPC   H3S 5451   1.120   6.479   6.621 -0.6323  0.3350  2.3265
   66SAPC   C24 5452   0.947   6.537   6.730 -1.2852 -0.6192  0.2393
   66SAPC   H4R 5453   0.917   6.431   6.744 -1.4391 -0.6941 -0.6521
   66SAPC   H4S 5454   0.857   6.601   6.732 -1.7716 -1.3255  1.7042
   66SAPC   C25 5455   1.026   6.586   6.850  0.4419  0.0028  0.3970
   66SAPC   H5R 5456   1.099   6.665   6.828 -2.8538  2.7376 -1.0473
   66SAPC   C26 5457   1.019   6.534   6.975 -0.0268 -0.1659  0.5282
   66SAPC   H6R 5458   1.059   6.590   7.061 -1.6146 -1.7722  2.3625
   66SAPC   C27 5459   0.921   6.434   7.027  0.6050  0.5928  0.0293
   66SAPC   H7R 5460   0.980   6.342   7.040  0.4094 -0.0755 -3.4657
   66SAPC   H7S 5461   0.841   6.418   6.952 -1.1744 -0.0991  2.0154
   66SAPC   C28 5462   0.843   6.467   7.148 -0.7075 -0.5106  0.1781
   66SAPC   H8R 5463   0.816   6.573   7.158 -1.3938 -0.5521 -1.2709
   66SAPC   C29 5464   0.800   6.385   7.247 -0.6616 -0.4132  0.2354
   66SAPC   H9R 5465   0.734   6.430   7.322 -1.0647 -0.5717 -0.0286
   66SAPC  C210 5466   0.821   6.234   7.269 -0.3163  0.7244  0.2417
   66SAPC  H10R 5467   0.930   6.214   7.272 -0.5535 -1.6152 -3.2523
   66SAPC  H10S 5468   0.799   6.174   7.178 -0.5257  0.5490  0.4084
   66SAPC  C211 5469   0.748   6.183   7.397  0.1903 -0.4627  0.5793
   66SAPC  H11R 5470   0.663   6.116   7.375 -1.2781  1.7785 -0.7705
   66SAPC  C212 5471   0.768   6.216   7.526  0.6153  0.3111 -0.6132
   66SAPC  H12R 5472   0.705   6.167   7.602  0.8391  1.6305  0.4614
   66SAPC  C213 5473   0.873   6.313   7.584  0.1761  0.3511  0.0686
   66SAPC  H13R 5474   0.966   6.310   7.523  0.8341  0.7536  1.0326
   66SAPC  H13S 5475   0.914   6.267   7.677 -1.4385 -2.3427 -0.4956
   66SAPC  C214 5476   0.825   6.448   7.603 -0.0078  0.1303 -0.4175
   66SAPC  H14R 5477   0.732   6.446   7.662  0.6515 -1.6495  0.5945
   66SAPC  C215 5478   0.874   6.565   7.567 -0.6732 -0.3536 -0.6557
   66SAPC  H15R 5479   0.826   6.659   7.597  0.9011  0.1270  0.4291
   66SAPC  C216 5480   1.015   6.584   7.504 -0.1950  0.1727  0.0225
   66SAPC  H16R 5481   1.037   6.690   7.479  3.2850 -1.1042 -2.8895
   66SAPC  H16S 5482   1.020   6.533   7.405 -0.7136 -1.1096  0.6381
   66SAPC  C217 5483   1.138   6.533   7.582  0.1777 -0.3793  0.3230
   66SAPC  H17R 5484   1.220   6.531   7.507  0.5476  1.0189  0.6853
   66SAPC  H17S 5485   1.125   6.434   7.631 -2.2448  0.7058  1.9813
   66SAPC  C218 5486   1.172   6.631   7.697  0.4583  0.3225 -0.0752
   66SAPC  H18R 5487   1.165   6.731   7.651 -0.3044  0.7228  0.9016
   66SAPC  H18S 5488   1.279   6.617   7.722 -0.3269 -0.8500  2.8211
   66SAPC  C219 5489   1.086   6.608   7.818  0.3423  0.1145  0.4951
   66SAPC  H19R 5490   1.092   6.502   7.849  0.0663 -0.2436 -0.6465
   66SAPC  H19S 5491   0.978   6.613   7.794  0.6160  2.1909 -0.4556
   66SAPC  C220 5492   1.133   6.693   7.934 -0.2400  0.1783  0.7690
   66SAPC  H20R 5493   1.110   6.802   7.927  0.1013  0.1819 -0.3793
   66SAPC  H20S 5494   1.243   6.697   7.952 -0.6166 -0.9824  3.5574
   66SAPC  H20T 5495   1.073   6.660   8.022  1.3625 -0.1565  1.7536
   66SAPC   C33 5496   0.990   5.973   6.983  1.1360 -0.7617 -0.1347
   66SAPC   H3X 5497   0.981   5.866   6.956  0.9665 -0.6497 -0.5279
   66SAPC   H3Y 5498   0.888   6.018   6.989  1.2183 -0.4570 -1.0313
   66SAPC   C34 5499   1.068   5.989   7.112  0.0001 -1.3297 -0.4875
   66SAPC   H4X 5500   1.079   6.095   7.143 -3.1630 -0.5320 -1.9599
   66SAPC   H4Y 5501   1.168   5.946   7.086  0.3337 -1.0588  0.3369
   66SAPC   C35 5502   1.019   5.905   7.223  0.0894 -0.9139 -0.5947
   66SAPC   H5X 5503   1.030   5.799   7.193 -3.4825 -2.0393  1.8507
   66SAPC   H5Y 5504   0.914   5.937   7.241  0.4130 -0.0036 -0.2937
   66SAPC   C36 5505   1.110   5.932   7.344  0.1224  0.2380  0.1492
   66SAPC   H6X 5506   1.123   6.042   7.342 -0.2660  0.2934  0.5423
   66SAPC   H6Y 5507   1.206   5.881   7.320  0.0236 -0.1698  0.6129
   66SAPC   C37 5508   1.040   5.895   7.470 -0.3982 -0.7905  0.0167
   66SAPC   H7X 5509   0.983   5.800   7.466  0.4887 -1.3058 -0.4122
   66SAPC   H7Y 5510   0.963   5.974   7.487  2.3312  1.8649  0.4528
   66SAPC   C38 5511   1.121   5.899   7.605  0.7926 -0.5055 -1.0519
   66SAPC   H8X 5512   1.202   5.824   7.616  0.1043 -1.1544 -0.3136
   66SAPC   H8Y 5513   1.040   5.890   7.681 -0.0608  1.7814 -1.6479
   66SAPC   C39 5514   1.173   6.034   7.636 -0.0214 -0.0107  0.0643
   66SAPC   H9X 5515   1.092   6.109   7.625 -1.4944 -1.4655  0.6523
   66SAPC   H9Y 5516   1.244   6.065   7.557  2.5807 -0.4608  2.1252
   66SAPC  C310 5517   1.250   6.054   7.768 -0.5313  0.9339 -0.0156
   66SAPC  H10X 5518   1.345   6.109   7.752  0.1070 -0.6548 -1.9889
   66SAPC  H10Y 5519   1.276   5.953   7.808  0.1459  1.3061  0.4815
   66SAPC  C311 5520   1.166   6.130   7.868  0.3313  0.1680  0.0626
   66SAPC  H11X 5521   1.070   6.075   7.879  0.9961 -0.3210  4.5103
   66SAPC  H11Y 5522   1.147   6.234   7.835 -0.4939 -0.3408 -1.0844
   66SAPC  C312 5523   1.223   6.137   8.010  0.4544 -0.0779  0.1281
   66SAPC  H12X 5524   1.300   6.216   8.021  0.2697  0.1252 -0.0083
   66SAPC  H12Y 5525   1.251   6.039   8.054 -0.2379 -0.4639 -0.2761
   66SAPC  C313 5526   1.103   6.171   8.110  0.0998 -0.1968  0.8527
   66SAPC  H13X 5527   1.030   6.093   8.082  1.4210 -1.1660  0.0464
   66SAPC  H13Y 5528   1.068   6.273   8.081  0.3226 -0.3745 -0.0574
   66SAPC  C314 5529   1.137   6.162   8.261 -0.2909 -0.3546  0.5017
   66SAPC  H14X 5530   1.222   6.094   8.283 -0.5074  0.0267  2.6798
   66SAPC  H14Y 5531   1.053   6.108   8.310 -0.1447  0.2528  1.4537
   66SAPC  C315 5532   1.172   6.298   8.325 -0.0938 -0.1787  0.5722
   66SAPC  H15X 5533   1.167   6.287   8.435 -1.0625 -4.1033  0.2163
   66SAPC  H15Y 5534   1.092   6.366   8.289  1.4014 -0.2912 -3.2825
   66SAPC  C316 5535   1.314   6.346   8.282 -0.3885 -0.2711 -0.3723
   66SAPC  H16X 5536   1.301   6.422   8.202 -0.8184 -1.8388 -1.8161
   66SAPC  H16Y 5537   1.365   6.261   8.233 -0.4383 -0.2994 -0.3756
   66SAPC  C317 5538   1.411   6.406   8.386  0.2554  0.4579  0.3423
   66SAPC  H17X 5539   1.360   6.478   8.452  0.5421  3.7289 -2.8201
   66SAPC  H17Y 5540   1.494   6.451   8.327  0.1390  1.9020  1.2565
   66SAPC  C318 5541   1.462   6.299   8.474 -0.8092  0.3163 -0.1453
   66SAPC  H18X 5542   1.516   6.344   8.560 -0.8847  0.2318 -0.0546
   66SAPC  H18Y 5543   1.527   6.230   8.416 -0.1818 -0.9437  2.0124
   66SAPC  H18Z 5544   1.385   6.233   8.520 -0.4426 -0.8102 -1.1233
   67SAPC     N 5545   3.832   1.248   6.073 -0.4397 -0.2605 -0.0348
   67SAPC   C12 5546   3.711   1.292   6.148  0.5769  0.0545 -0.1837
   67SAPC  H12A 5547   3.654   1.201   6.160  0.2310  0.5386  1.8996
   67SAPC  H12B 5548   3.640   1.345   6.086 -0.4494 -0.3703  0.6147
   67SAPC   C13 5549   3.904   1.372   6.015  0.1256 -0.3550  0.7958
   67SAPC  H13A 5550   3.894   1.457   6.082 -0.4502  0.6369 -0.5267
   67SAPC  H13B 5551   4.008   1.351   5.998 -0.4258 -0.8335 -2.1556
   67SAPC  H13C 5552   3.862   1.416   5.926 -1.1686 -0.2827  1.4259
   67SAPC   C14 5553   3.920   1.167   6.158 -0.2077  0.2749  0.3364
   67SAPC  H14A 5554   4.006   1.123   6.109 -0.0882  0.6939  0.1725
   67SAPC  H14B 5555   3.953   1.222   6.245 -0.5521 -0.6783  1.0792
   67SAPC  H14C 5556   3.851   1.096   6.200 -1.2424  1.4535  0.6480
   67SAPC   C15 5557   3.790   1.157   5.959  0.6578  0.2191  0.3929
   67SAPC  H15A 5558   3.724   1.209   5.892  2.2550 -1.1451 -2.3274
   67SAPC  H15B 5559   3.877   1.128   5.903 -0.6985 -0.3284 -1.4634
   67SAPC  H15C 5560   3.734   1.068   5.984 -1.0743  1.3130  0.4330
   67SAPC   C11 5561   3.728   1.369   6.282 -0.5849 -0.4937 -0.0354
   67SAPC  H11A 5562   3.784   1.300   6.349  0.2531 -0.5489 -0.7797
   67SAPC  H11B 5563   3.627   1.395   6.319  0.4150  3.0024  0.4796
   67SAPC     P 5564   3.883   1.565   6.363 -0.3133 -0.3401  0.0462
   67SAPC   O13 5565   4.012   1.498   6.373 -0.5910 -0.1227 -0.6961
   67SAPC   O14 5566   3.887   1.707   6.327 -0.0152  0.3489 -0.3735
   67SAPC   O12 5567   3.792   1.493   6.257 -0.6051  0.3511 -0.2719
   67SAPC   O11 5568   3.801   1.558   6.501  0.4850  0.3018  0.1317
   67SAPC    C1 5569   3.848   1.466   6.604 -0.2882  0.1678 -0.8800
   67SAPC    HA 5570   3.764   1.417   6.657 -0.7637  1.6569 -0.2499
   67SAPC    HB 5571   3.902   1.377   6.566 -0.2085 -1.4157  2.7177
   67SAPC    C2 5572   3.946   1.532   6.710 -0.5339 -0.1032  0.2893
   67SAPC    HS 5573   4.041   1.557   6.658 -1.5020  0.2537 -1.3213
   67SAPC   O21 5574   3.987   1.447   6.815  0.0561  0.0308  0.0590
   67SAPC   C21 5575   4.075   1.345   6.777  0.1462  0.0843 -0.1764
   67SAPC   O22 5576   4.121   1.325   6.669  0.0324  0.5304  0.3515
   67SAPC   C22 5577   4.095   1.262   6.900  0.5442  0.0577 -0.0766
   67SAPC   H2R 5578   4.186   1.290   6.958 -0.7006 -0.2272  2.0915
   67SAPC   H2S 5579   4.015   1.277   6.975  2.3532 -2.3199  2.4544
   67SAPC    C3 5580   3.885   1.665   6.765 -0.4792  0.0029 -0.5788
   67SAPC    HX 5581   3.852   1.727   6.679 -2.5774 -0.3175 -0.0257
   67SAPC    HY 5582   3.979   1.713   6.800 -0.0258 -0.9422 -0.4733
   67SAPC   O31 5583   3.788   1.648   6.867 -0.0065 -0.5398 -0.3570
   67SAPC   C31 5584   3.838   1.634   6.998  1.1014  0.3676  0.5805
   67SAPC   O32 5585   3.952   1.626   7.030 -0.7153 -0.4188  0.0264
   67SAPC   C32 5586   3.726   1.637   7.094  0.0323  0.0351 -0.1423
   67SAPC   H2X 5587   3.633   1.641   7.034  1.0409 -0.2032 -1.7584
   67SAPC   H2Y 5588   3.748   1.718   7.168 -0.6785  1.2531 -1.2348
   67SAPC   C23 5589   4.111   1.119   6.861  0.0911 -0.4730 -0.4008
   67SAPC   H3R 5590   4.199   1.116   6.792  1.1180  0.0771  0.8675
   67SAPC   H3S 5591   4.019   1.094   6.804  1.4018 -1.1655 -2.2556
   67SAPC   C24 5592   4.145   1.014   6.968  0.1522 -0.0591 -0.2408
   67SAPC   H4R 5593   4.243   1.038   7.013  1.0114  0.2743 -2.2443
   67SAPC   H4S 5594   4.166   0.918   6.916  0.8955 -1.1149  1.9728
   67SAPC   C25 5595   4.042   1.008   7.081  0.0667 -0.0973 -0.6874
   67SAPC   H5R 5596   3.939   0.978   7.054 -0.8123 -0.0456  2.3987
   67SAPC   C26 5597   4.058   1.055   7.209 -0.1678 -0.2289  0.2705
   67SAPC   H6R 5598   3.975   1.054   7.281 -0.8771 -1.2274 -0.5413
   67SAPC   C27 5599   4.175   1.120   7.267 -0.1618  0.0024  0.5405
   67SAPC   H7R 5600   4.148   1.220   7.306 -0.6009  0.8417 -1.8261
   67SAPC   H7S 5601   4.255   1.131   7.190 -0.1500  1.8583  0.7924
   67SAPC   C28 5602   4.225   1.028   7.381 -0.4559 -0.5633  0.2511
   67SAPC   H8R 5603   4.276   0.934   7.354 -2.3457 -2.0791  1.7961
   67SAPC   C29 5604   4.198   1.052   7.514  0.1492 -0.5778 -0.1280
   67SAPC   H9R 5605   4.212   0.973   7.589 -0.1692 -1.6473 -1.1854
   67SAPC  C210 5606   4.117   1.174   7.560  0.2194  0.9628  1.1068
   67SAPC  H10R 5607   4.029   1.174   7.492  0.2556 -0.7984  1.0338
   67SAPC  H10S 5608   4.175   1.265   7.534  0.6976  0.1833 -0.6622
   67SAPC  C211 5609   4.075   1.184   7.706 -0.6168 -0.1628  0.0424
   67SAPC  H11R 5610   4.144   1.246   7.765  0.2108  0.0578 -1.1381
   67SAPC  C212 5611   3.972   1.121   7.768 -0.5061 -0.2040 -0.5833
   67SAPC  H12R 5612   3.959   1.147   7.874  2.7554 -1.2781  0.1366
   67SAPC  C213 5613   3.874   1.026   7.700  0.4485 -0.6438 -0.0839
   67SAPC  H13R 5614   3.925   0.996   7.606  2.1028  0.9795  0.2445
   67SAPC  H13S 5615   3.785   1.081   7.664  0.2849 -1.2421 -0.5830
   67SAPC  C214 5616   3.827   0.913   7.787 -0.7221 -0.3360  0.0708
   67SAPC  H14R 5617   3.915   0.858   7.825  1.2338  1.4199 -1.7590
   67SAPC  C215 5618   3.703   0.871   7.817 -0.1215  0.3987  0.0701
   67SAPC  H15R 5619   3.685   0.789   7.889  0.1232  0.4892  0.2330
   67SAPC  C216 5620   3.577   0.943   7.776  0.6597  0.6522  0.7272
   67SAPC  H16R 5621   3.560   0.927   7.668  0.8737 -0.3315  0.8286
   67SAPC  H16S 5622   3.589   1.052   7.788  0.8308  0.5326  1.7452
   67SAPC  C217 5623   3.443   0.907   7.857 -0.0627 -1.1455  0.5500
   67SAPC  H17R 5624   3.409   0.803   7.834  0.8541 -1.1827 -0.6464
   67SAPC  H17S 5625   3.370   0.978   7.813  1.5841 -0.1959 -0.6875
   67SAPC  C218 5626   3.455   0.918   8.010 -1.0080  0.9905 -0.9001
   67SAPC  H18R 5627   3.520   1.004   8.037 -2.2411  1.4515  0.6609
   67SAPC  H18S 5628   3.512   0.828   8.040 -1.2954  0.7061 -1.1989
   67SAPC  C219 5629   3.321   0.924   8.086 -0.6887 -0.1948 -0.4561
   67SAPC  H19R 5630   3.281   1.025   8.066  0.8630 -0.1746 -3.6335
   67SAPC  H19S 5631   3.341   0.925   8.196 -2.1074  0.8269 -0.1828
   67SAPC  C220 5632   3.219   0.819   8.047  0.5265  0.0926 -0.4117
   67SAPC  H20R 5633   3.124   0.824   8.105  0.5723  0.9961 -0.4073
   67SAPC  H20S 5634   3.269   0.720   8.052 -1.3235 -0.8600 -0.4862
   67SAPC  H20T 5635   3.195   0.841   7.941  0.3264  2.1692  0.0356
   67SAPC   C33 5636   3.731   1.512   7.189 -0.4906 -0.9740 -0.4128
   67SAPC   H3X 5637   3.661   1.515   7.275  2.4528 -1.2573  2.0870
   67SAPC   H3Y 5638   3.818   1.534   7.255  0.0727 -0.5338 -1.2810
   67SAPC   C34 5639   3.726   1.376   7.119 -0.7008 -0.1017 -0.3698
   67SAPC   H4X 5640   3.805   1.361   7.042 -0.3221 -0.5275  0.0971
   67SAPC   H4Y 5641   3.625   1.361   7.076 -2.2518  3.0100  2.0356
   67SAPC   C35 5642   3.755   1.255   7.215 -1.4388  0.1332  0.6187
   67SAPC   H5X 5643   3.852   1.278   7.263 -1.6679  0.2913  1.0073
   67SAPC   H5Y 5644   3.760   1.170   7.143 -0.7583 -2.1492  3.2912
   67SAPC   C36 5645   3.660   1.229   7.325  0.3352 -0.4605 -0.7715
   67SAPC   H6X 5646   3.622   1.318   7.380  1.4732 -0.2903 -0.2501
   67SAPC   H6Y 5647   3.712   1.164   7.399 -0.5002  0.9690  1.1105
   67SAPC   C37 5648   3.534   1.151   7.286  0.4276  0.2674 -0.0980
   67SAPC   H7X 5649   3.565   1.068   7.218 -1.5922 -0.4743 -0.1409
   67SAPC   H7Y 5650   3.466   1.217   7.227 -0.7365  0.1460  1.0869
   67SAPC   C38 5651   3.448   1.100   7.412  0.3938 -0.7906 -0.1603
   67SAPC   H8X 5652   3.420   1.188   7.473 -1.3225 -1.9698  0.8000
   67SAPC   H8Y 5653   3.504   1.024   7.471  0.3470 -1.1155 -0.5280
   67SAPC   C39 5654   3.320   1.027   7.368  0.3453  0.0238  1.2734
   67SAPC   H9X 5655   3.348   0.938   7.309  1.0426  1.2701 -0.2991
   67SAPC   H9Y 5656   3.259   1.097   7.307  0.4831 -0.5791  0.4319
   67SAPC  C310 5657   3.234   0.980   7.495 -0.3438  0.2338 -0.0270
   67SAPC  H10X 5658   3.288   0.894   7.539  1.6181  1.6472  0.3781
   67SAPC  H10Y 5659   3.138   0.930   7.468  0.1936 -2.5110  2.9221
   67SAPC  C311 5660   3.206   1.089   7.596 -0.1969  0.4415 -0.3527
   67SAPC  H11X 5661   3.174   1.183   7.546  3.4367  0.9185 -1.9178
   67SAPC  H11Y 5662   3.293   1.114   7.660  0.5240 -2.1458 -0.2751
   67SAPC  C312 5663   3.089   1.044   7.691 -0.5170 -0.1456  0.2590
   67SAPC  H12X 5664   3.107   0.941   7.728 -0.3398 -0.6002 -1.0441
   67SAPC  H12Y 5665   3.008   1.029   7.616  0.4587 -1.4674 -0.5769
   67SAPC  C313 5666   3.046   1.143   7.795  0.1379  0.0281  0.2712
   67SAPC  H13X 5667   3.011   1.238   7.749  2.1203  0.3269 -0.6734
   67SAPC  H13Y 5668   3.142   1.161   7.846  0.8348  3.9041 -2.1791
   67SAPC  C314 5669   2.941   1.089   7.900 -0.5414 -0.9721  0.7414
   67SAPC  H14X 5670   2.992   1.025   7.975  1.5719 -0.2803 -0.0503
   67SAPC  H14Y 5671   2.872   1.027   7.840 -0.6637  0.6739 -0.8859
   67SAPC  C315 5672   2.858   1.200   7.970  0.0068 -0.3162 -0.1601
   67SAPC  H15X 5673   2.790   1.247   7.896 -1.5107  0.2305  1.5404
   67SAPC  H15Y 5674   2.921   1.289   7.996 -1.8390  0.7321  0.8486
   67SAPC  C316 5675   2.768   1.148   8.083  0.3587  0.1395 -0.0562
   67SAPC  H16X 5676   2.838   1.108   8.159  0.6440 -0.4976 -0.6504
   67SAPC  H16Y 5677   2.713   1.058   8.049  2.5249 -2.4948  3.1586
   67SAPC  C317 5678   2.683   1.237   8.168  0.6859 -0.1211  0.3972
   67SAPC  H17X 5679   2.661   1.334   8.119  1.0086  1.6668  3.6107
   67SAPC  H17Y 5680   2.731   1.259   8.266  2.4580 -1.2944 -0.1797
   67SAPC  C318 5681   2.544   1.182   8.208  0.1515 -0.1004  0.4762
   67SAPC  H18X 5682   2.553   1.100   8.282 -0.7233 -3.4368 -2.9555
   67SAPC  H18Y 5683   2.497   1.141   8.116  0.2256 -3.4339  1.8330
   67SAPC  H18Z 5684   2.479   1.262   8.250 -0.6098  0.0885 -1.0330
   68SAPC     N 5685   1.479   1.059   6.293 -0.1776 -0.3790 -1.1170
   68SAPC   C12 5686   1.618   0.991   6.285  0.3650  0.6366  0.6761
   68SAPC  H12A 5687   1.660   0.993   6.384  0.4335 -0.4581  0.6774
   68SAPC  H12B 5688   1.691   1.048   6.229  1.7707 -1.3452  0.4631
   68SAPC   C13 5689   1.507   1.203   6.330  0.0374 -0.5961  0.2591
   68SAPC  H13A 5690   1.568   1.252   6.255  1.3452  0.3782  1.9047
   68SAPC  H13B 5691   1.418   1.263   6.338 -0.1372 -0.5959 -1.5776
   68SAPC  H13C 5692   1.551   1.200   6.429  1.3452 -1.2478 -0.3345
   68SAPC   C14 5693   1.423   1.051   6.156 -0.1777 -0.2332  0.4224
   68SAPC  H14A 5694   1.320   1.084   6.150  0.6269  1.9987 -2.5044
   68SAPC  H14B 5695   1.478   1.115   6.089 -1.6448 -0.0728 -0.6386
   68SAPC  H14C 5696   1.424   0.953   6.112  0.2508  0.3737 -0.9556
   68SAPC   C15 5697   1.384   1.000   6.397  0.7931  0.0007  1.1785
   68SAPC  H15A 5698   1.357   0.898   6.376 -0.4494  0.3774  0.9133
   68SAPC  H15B 5699   1.428   0.983   6.494  0.9562 -1.6375  0.8351
   68SAPC  H15C 5700   1.295   1.061   6.405 -0.0202 -1.4405  3.4787
   68SAPC   C11 5701   1.634   0.842   6.241 -0.7701  0.0850 -0.1520
   68SAPC  H11A 5702   1.740   0.816   6.257 -1.6171 -3.1161  0.5993
   68SAPC  H11B 5703   1.616   0.836   6.131 -0.4726  0.3297 -0.2153
   68SAPC     P 5704   1.497   0.619   6.244  0.3246 -0.3017  0.2995
   68SAPC   O13 5705   1.392   0.648   6.145 -0.1187  0.5091  0.1364
   68SAPC   O14 5706   1.618   0.552   6.198 -0.2218 -0.4834 -0.6620
   68SAPC   O12 5707   1.541   0.755   6.313 -0.1434  0.0779  0.4190
   68SAPC   O11 5708   1.431   0.524   6.354  0.1583  0.1430 -0.1512
   68SAPC    C1 5709   1.407   0.579   6.485 -0.6489 -0.2024  1.0038
   68SAPC    HA 5710   1.374   0.685   6.489  1.5698  0.5240  0.6476
   68SAPC    HB 5711   1.322   0.527   6.536 -1.9071  2.5424  1.8139
   68SAPC    C2 5712   1.525   0.559   6.576 -0.2802  0.3325 -0.2245
   68SAPC    HS 5713   1.601   0.631   6.540 -2.0048  1.7932 -0.9714
   68SAPC   O21 5714   1.572   0.423   6.569 -0.2580 -0.0253 -0.6437
   68SAPC   C21 5715   1.701   0.419   6.604 -0.9593  0.1877  0.0429
   68SAPC   O22 5716   1.784   0.508   6.617  0.2280  0.0082  0.3843
   68SAPC   C22 5717   1.747   0.268   6.606 -1.3673  0.0372  0.0463
   68SAPC   H2R 5718   1.716   0.232   6.505 -0.2703  1.6754 -0.8955
   68SAPC   H2S 5719   1.858   0.266   6.599 -1.4118  0.8556 -1.1227
   68SAPC    C3 5720   1.482   0.598   6.720 -0.0157  0.5932  0.2337
   68SAPC    HX 5721   1.384   0.562   6.757 -1.1839  3.4894  0.1387
   68SAPC    HY 5722   1.472   0.707   6.701 -0.5054  0.4904 -0.1218
   68SAPC   O31 5723   1.588   0.574   6.816  0.6434 -0.3267  0.0569
   68SAPC   C31 5724   1.603   0.658   6.918 -0.2501  0.1998 -0.2695
   68SAPC   O32 5725   1.549   0.765   6.933  0.3342 -0.4339 -0.3086
   68SAPC   C32 5726   1.698   0.605   7.019 -0.7899  0.4380  0.0107
   68SAPC   H2X 5727   1.769   0.684   7.053 -1.5336  1.0670  0.1355
   68SAPC   H2Y 5728   1.762   0.539   6.957  0.1610 -0.4403  1.8743
   68SAPC   C23 5729   1.674   0.182   6.706 -0.3368  0.3591  0.3488
   68SAPC   H3R 5730   1.718   0.081   6.719  0.2972  0.7261  1.1226
   68SAPC   H3S 5731   1.570   0.170   6.669 -0.5232 -1.5716  1.4680
   68SAPC   C24 5732   1.678   0.237   6.849 -0.6498 -0.4157  0.2937
   68SAPC   H4R 5733   1.610   0.175   6.911 -0.9748  1.3977  1.7869
   68SAPC   H4S 5734   1.644   0.342   6.836 -0.4539 -0.4023 -0.1181
   68SAPC   C25 5735   1.811   0.230   6.920  0.8852  0.2717 -0.1302
   68SAPC   H5R 5736   1.899   0.271   6.868  1.4583  0.5215  1.0056
   68SAPC   C26 5737   1.839   0.193   7.042  0.8803  0.7749  0.0379
   68SAPC   H6R 5738   1.942   0.206   7.078  1.3137 -2.1804 -0.0002
   68SAPC   C27 5739   1.744   0.147   7.149 -0.8900 -0.2363 -0.3594
   68SAPC   H7R 5740   1.775   0.040   7.143 -1.2926 -0.3462 -0.5467
   68SAPC   H7S 5741   1.637   0.149   7.119 -0.7676 -1.6220 -0.9546
   68SAPC   C28 5742   1.773   0.200   7.285  0.4896  0.0202  0.3500
   68SAPC   H8R 5743   1.878   0.229   7.301  0.5087 -0.8364  1.8531
   68SAPC   C29 5744   1.680   0.222   7.376 -0.5799  0.3382 -0.3571
   68SAPC   H9R 5745   1.717   0.267   7.469  2.2459 -1.5128 -0.5240
   68SAPC  C210 5746   1.530   0.202   7.383 -0.1790 -0.0310  0.6905
   68SAPC  H10R 5747   1.483   0.215   7.283 -0.8038  0.9427  1.1067
   68SAPC  H10S 5748   1.496   0.289   7.442  0.0813  0.0914  0.6639
   68SAPC  C211 5749   1.483   0.074   7.450 -0.2186  0.2296  0.1174
   68SAPC  H11R 5750   1.457  -0.010   7.383 -0.2443  0.7242 -0.4954
   68SAPC  C212 5751   1.480   0.057   7.586 -0.6021  0.6098 -0.3110
   68SAPC  H12R 5752   1.423  -0.031   7.620 -0.2145  0.6482  0.4461
   68SAPC  C213 5753   1.514   0.157   7.692 -0.2141 -0.7417 -0.1938
   68SAPC  H13R 5754   1.585   0.231   7.649  1.7113 -0.7675  2.7525
   68SAPC  H13S 5755   1.572   0.104   7.770 -2.7480 -0.0770  2.1991
   68SAPC  C214 5756   1.397   0.226   7.754  0.5766  0.0497  0.2356
   68SAPC  H14R 5757   1.307   0.224   7.691  1.6411 -3.0967 -1.2897
   68SAPC  C215 5758   1.385   0.284   7.877  0.0206 -0.7540  0.4495
   68SAPC  H15R 5759   1.291   0.332   7.911 -1.2772 -1.3836 -2.1600
   68SAPC  C216 5760   1.496   0.280   7.975  0.0578 -0.0001  0.1261
   68SAPC  H16R 5761   1.500   0.378   8.028  0.4984 -0.4906  1.0206
   68SAPC  H16S 5762   1.600   0.269   7.939 -0.0433  1.6505 -0.7230
   68SAPC  C217 5763   1.471   0.177   8.094  0.1577 -0.1525  0.0831
   68SAPC  H17R 5764   1.568   0.173   8.148  1.0140 -1.1364 -1.4863
   68SAPC  H17S 5765   1.445   0.079   8.049 -0.8632 -0.5863  1.5769
   68SAPC  C218 5766   1.366   0.222   8.200 -0.1231 -0.0084  0.5935
   68SAPC  H18R 5767   1.270   0.244   8.150 -2.0602  0.3797  4.2861
   68SAPC  H18S 5768   1.400   0.313   8.253  1.0221 -0.5371  0.7925
   68SAPC  C219 5769   1.343   0.114   8.312  0.1949  0.5772 -0.2195
   68SAPC  H19R 5770   1.273   0.164   8.384  0.1952  1.8813 -1.1058
   68SAPC  H19S 5771   1.439   0.085   8.360  0.1608 -0.0702 -0.5312
   68SAPC  C220 5772   1.285  -0.010   8.255  0.1298 -0.6701  0.2859
   68SAPC  H20R 5773   1.190   0.017   8.205  1.4374  0.4733 -1.6424
   68SAPC  H20S 5774   1.272  -0.083   8.338  0.6499 -2.6937 -1.3721
   68SAPC  H20T 5775   1.346  -0.069   8.183 -0.3312 -0.7923 -0.0064
   68SAPC   C33 5776   1.643   0.532   7.146 -0.3722 -0.0107  0.1193
   68SAPC   H3X 5777   1.716   0.473   7.206  1.8761 -0.0200 -2.5462
   68SAPC   H3Y 5778   1.554   0.469   7.124 -1.6060  2.2034 -1.5291
   68SAPC   C34 5779   1.584   0.639   7.247  0.6149  0.0676  0.8902
   68SAPC   H4X 5780   1.502   0.685   7.189  1.8461  0.0088 -0.9386
   68SAPC   H4Y 5781   1.666   0.704   7.286  1.4850 -0.9798  0.8283
   68SAPC   C35 5782   1.530   0.566   7.366  0.4237  0.2262  0.1157
   68SAPC   H5X 5783   1.620   0.509   7.400 -0.3978  0.6221  3.0836
   68SAPC   H5Y 5784   1.449   0.495   7.337  0.0706  0.6041  0.1741
   68SAPC   C36 5785   1.468   0.660   7.463 -0.0501 -0.1438 -0.0279
   68SAPC   H6X 5786   1.372   0.699   7.423 -0.3620 -1.7976 -0.9737
   68SAPC   H6Y 5787   1.539   0.743   7.478  0.6005 -0.0646 -3.2879
   68SAPC   C37 5788   1.440   0.599   7.600 -0.2558 -0.5244 -0.1645
   68SAPC   H7X 5789   1.402   0.495   7.589  0.1375 -0.6844 -0.0315
   68SAPC   H7Y 5790   1.370   0.663   7.658  1.4655  0.1278  1.2202
   68SAPC   C38 5791   1.569   0.594   7.683  0.1090  0.1181  0.5673
   68SAPC   H8X 5792   1.637   0.549   7.607 -2.4891  0.7260 -2.2439
   68SAPC   H8Y 5793   1.551   0.522   7.766 -4.2035  1.0822  0.5726
   68SAPC   C39 5794   1.624   0.727   7.736 -0.7268  0.1665  0.6488
   68SAPC   H9X 5795   1.557   0.767   7.815 -0.5052 -0.3147  1.0794
   68SAPC   H9Y 5796   1.613   0.805   7.657  1.1267 -0.9932 -0.8076
   68SAPC  C310 5797   1.768   0.724   7.774 -0.0243  0.0268 -0.2567
   68SAPC  H10X 5798   1.802   0.828   7.792 -0.1011 -0.2885  1.8784
   68SAPC  H10Y 5799   1.838   0.694   7.694  0.0778  0.8876 -0.4918
   68SAPC  C311 5800   1.799   0.645   7.899  0.9031  0.1392 -0.1436
   68SAPC  H11X 5801   1.905   0.667   7.921  1.2487  0.3087 -1.9648
   68SAPC  H11Y 5802   1.774   0.536   7.895 -0.7132  0.4440  0.8605
   68SAPC  C312 5803   1.716   0.689   8.013  0.7360 -0.1740 -0.9568
   68SAPC  H12X 5804   1.606   0.684   8.005  0.3666 -1.4584  3.3547
   68SAPC  H12Y 5805   1.739   0.798   8.022  0.4990 -0.2387  0.5306
   68SAPC  C313 5806   1.754   0.603   8.134 -0.5432 -0.1276 -0.6776
   68SAPC  H13X 5807   1.861   0.615   8.164 -0.8074 -1.0481  0.6795
   68SAPC  H13Y 5808   1.739   0.498   8.101 -1.7779  0.2463 -1.3060
   68SAPC  C314 5809   1.650   0.638   8.247 -0.0610 -0.5977 -0.2164
   68SAPC  H14X 5810   1.546   0.635   8.209 -0.4332 -0.2837  0.7642
   68SAPC  H14Y 5811   1.673   0.744   8.272 -0.6287 -0.1291 -1.5948
   68SAPC  C315 5812   1.666   0.548   8.368  0.7649 -0.3722 -0.3441
   68SAPC  H15X 5813   1.760   0.489   8.365  1.0494 -0.0528  1.4949
   68SAPC  H15Y 5814   1.578   0.480   8.379  0.3923  0.1118 -0.3351
   68SAPC  C316 5815   1.676   0.618   8.505  0.6078 -0.1198 -0.9370
   68SAPC  H16X 5816   1.602   0.700   8.512  2.6175  1.8507 -1.9789
   68SAPC  H16Y 5817   1.774   0.669   8.507  0.7310 -0.3851 -0.2099
   68SAPC  C317 5818   1.665   0.523   8.624 -0.8234  0.0746  0.1053
   68SAPC  H17X 5819   1.762   0.469   8.626 -1.4108 -1.0018  0.1098
   68SAPC  H17Y 5820   1.579   0.453   8.622  1.5403 -2.9028  0.4481
   68SAPC  C318 5821   1.643   0.607   8.751  0.3428  0.1494  1.0061
   68SAPC  H18X 5822   1.562   0.681   8.734 -0.0335 -0.6368 -0.6944
   68SAPC  H18Y 5823   1.741   0.654   8.774  1.8245 -1.8669 -0.9798
   68SAPC  H18Z 5824   1.615   0.554   8.845  1.2687  0.9428  1.7417
   69SLPC     N 5825   6.008   5.697  11.475 -0.2725 -0.4455 -0.4852
   69SLPC   C13 5826   5.894   5.599  11.474  0.0318 -0.3660  0.3679
   69SLPC  H13A 5827   5.915   5.515  11.538 -1.2753 -0.4356  0.7137
   69SLPC  H13B 5828   5.802   5.645  11.505 -1.5498 -1.7946 -2.1417
   69SLPC  H13C 5829   5.886   5.548  11.380  0.2076  0.8541 -0.3171
   69SLPC   C14 5830   6.140   5.638  11.453  0.0397  0.8312 -0.2779
   69SLPC  H14A 5831   6.185   5.618  11.549 -5.0107 -0.5386  1.9890
   69SLPC  H14B 5832   6.141   5.557  11.382  0.2418  1.0719 -0.5484
   69SLPC  H14C 5833   6.204   5.712  11.408  0.0596  0.1924 -1.3093
   69SLPC   C15 5834   6.005   5.766  11.607  0.4400 -0.2455  0.0092
   69SLPC  H15A 5835   5.912   5.820  11.618 -0.6336 -2.0032 -0.1173
   69SLPC  H15B 5836   6.012   5.703  11.695  0.6292  1.2079  1.0381
   69SLPC  H15C 5837   6.087   5.835  11.608 -0.3083  0.6659 -0.7964
   69SLPC   C12 5838   5.971   5.798  11.363 -0.3017 -0.5252  0.7965
   69SLPC  H12A 5839   6.028   5.890  11.373 -0.7883  0.2199 -2.6468
   69SLPC  H12B 5840   5.870   5.835  11.371 -0.4484 -0.8778  0.5673
   69SLPC   C11 5841   5.982   5.755  11.218 -0.1858  1.0729  0.3807
   69SLPC  H11A 5842   5.921   5.821  11.153  0.9640 -0.0846 -1.9516
   69SLPC  H11B 5843   5.943   5.652  11.207 -1.2815  1.4502  0.6646
   69SLPC     P 5844   6.186   5.652  11.080  0.5333  0.0631 -0.2014
   69SLPC   O13 5845   6.327   5.688  11.075  0.2758 -0.2137 -0.9025
   69SLPC   O14 5846   6.154   5.510  11.128 -0.3751  0.5896 -0.1789
   69SLPC   O12 5847   6.119   5.767  11.176 -0.2590  0.3507  0.1464
   69SLPC   O11 5848   6.121   5.684  10.938 -0.2203 -0.9379  0.9396
   69SLPC    C1 5849   6.051   5.584  10.862 -0.0867  0.2136 -0.3665
   69SLPC    HA 5850   6.099   5.484  10.870  1.1746  0.7532 -1.0125
   69SLPC    HB 5851   5.950   5.572  10.907  0.4986 -2.2724  0.3520
   69SLPC    C2 5852   6.033   5.626  10.714  0.5559  0.5254  0.1211
   69SLPC    HS 5853   5.946   5.693  10.698  1.1304  0.7342 -2.3668
   69SLPC   O21 5854   6.016   5.505  10.640 -0.4751  0.4927  0.3055
   69SLPC   C21 5855   5.897   5.466  10.627 -0.1645 -0.1269  0.5529
   69SLPC   O22 5856   5.794   5.523  10.660  0.1967 -0.5413 -0.1313
   69SLPC   C22 5857   5.887   5.321  10.571  0.5431 -0.7027 -0.2706
   69SLPC   H2R 5858   5.930   5.322  10.468  0.5414 -5.3967 -0.4149
   69SLPC   H2S 5859   5.938   5.242  10.630  0.1857  1.4576  3.0282
   69SLPC    C3 5860   6.143   5.706  10.660 -0.2474 -0.1655 -1.3320
   69SLPC    HX 5861   6.241   5.665  10.692 -1.9368 -4.5142 -1.4925
   69SLPC    HY 5862   6.129   5.802  10.716  0.2627  0.8175 -2.8704
   69SLPC   O31 5863   6.136   5.720  10.521  0.1909 -0.2173  1.0029
   69SLPC   C31 5864   6.217   5.643  10.437 -0.2524 -0.1799  0.8333
   69SLPC   O32 5865   6.297   5.566  10.480 -0.4838 -0.0290 -0.1550
   69SLPC   C32 5866   6.183   5.662  10.288 -0.0095 -0.7484 -0.4192
   69SLPC   H2X 5867   6.239   5.750  10.250  1.2438 -1.4470 -0.2093
   69SLPC   H2Y 5868   6.075   5.686  10.275  0.0441 -1.0121 -1.4212
   69SLPC   C23 5869   5.742   5.270  10.562 -0.1469  0.1552  1.0739
   69SLPC   H3R 5870   5.691   5.279  10.660  0.9694  3.1503  1.4401
   69SLPC   H3S 5871   5.752   5.161  10.544 -2.4036 -0.1144  1.2931
   69SLPC   C24 5872   5.655   5.319  10.443 -0.5241  0.0836 -0.1426
   69SLPC   H4R 5873   5.676   5.426  10.425  0.1613 -0.1846 -0.9547
   69SLPC   H4S 5874   5.546   5.303  10.459 -0.5896  2.3775  2.0100
   69SLPC   C25 5875   5.694   5.244  10.315 -0.2323 -0.6313  0.0829
   69SLPC   H5R 5876   5.679   5.136  10.339 -2.8478 -0.1667  0.6602
   69SLPC   H5S 5877   5.801   5.265  10.296 -0.4611 -0.7227 -1.3397
   69SLPC   C26 5878   5.612   5.286  10.188  0.2793 -0.2465  0.0673
   69SLPC   H6R 5879   5.624   5.396  10.176 -0.5701 -0.2232 -0.6132
   69SLPC   H6S 5880   5.510   5.256  10.220 -0.1017 -1.0806 -1.8564
   69SLPC   C27 5881   5.647   5.214  10.059  0.4067  0.2350  0.2145
   69SLPC   H7R 5882   5.612   5.114  10.093  0.0475  0.5256  0.7073
   69SLPC   H7S 5883   5.755   5.208  10.033  0.2273 -1.5224 -0.1628
   69SLPC   C28 5884   5.552   5.254   9.948  0.3882  0.1283 -0.1300
   69SLPC   H8R 5885   5.448   5.250   9.987  0.2228 -3.2878 -0.7338
   69SLPC   H8S 5886   5.579   5.184   9.866 -1.6422 -0.9761  0.1024
   69SLPC   C29 5887   5.574   5.399   9.905  0.4388  0.2426 -0.0434
   69SLPC   H9R 5888   5.533   5.471   9.977  0.7072 -1.0236  1.4097
   69SLPC  C210 5889   5.644   5.439   9.801 -0.0337  0.0062  0.0537
   69SLPC  H10R 5890   5.650   5.548   9.783 -1.2668  0.1484  0.4375
   69SLPC  C211 5891   5.717   5.373   9.678  0.0197 -0.3003 -0.4015
   69SLPC  H11R 5892   5.804   5.436   9.647  0.2239  0.0303  0.8488
   69SLPC  H11S 5893   5.654   5.363   9.587 -1.7387 -0.6706  0.8311
   69SLPC  C212 5894   5.774   5.241   9.716  0.7209  1.1899  0.2828
   69SLPC  H12R 5895   5.821   5.236   9.815 -1.0441 -0.7149  1.0649
   69SLPC  C213 5896   5.765   5.124   9.639  0.6075  0.3627 -0.0580
   69SLPC  H13R 5897   5.811   5.034   9.682  1.8166  0.0154 -2.0311
   69SLPC  C214 5898   5.703   5.099   9.502 -0.2437  0.0486 -0.3060
   69SLPC  H14R 5899   5.663   5.193   9.457 -0.2752 -0.5230 -1.4687
   69SLPC  H14S 5900   5.618   5.031   9.522 -0.6617  0.2671 -1.3127
   69SLPC  C215 5901   5.808   5.026   9.413 -1.3513 -0.4257  0.5675
   69SLPC  H15R 5902   5.909   5.069   9.423 -1.7583  0.8446 -0.6463
   69SLPC  H15S 5903   5.776   5.045   9.309  0.5504 -0.0788  0.0442
   69SLPC  C216 5904   5.806   4.872   9.443 -0.4659 -0.3283  0.0834
   69SLPC  H16R 5905   5.701   4.844   9.421 -0.4007 -0.1241 -0.4944
   69SLPC  H16S 5906   5.835   4.866   9.550 -2.3619 -1.6868  0.5501
   69SLPC  C217 5907   5.903   4.787   9.367  0.3797  0.1996  0.8141
   69SLPC  H17R 5908   5.907   4.691   9.424 -2.2409 -0.7685 -0.5268
   69SLPC  H17S 5909   6.002   4.832   9.385  0.5946 -0.2617  0.8046
   69SLPC  C218 5910   5.867   4.763   9.220 -0.0781 -0.1124 -0.2246
   69SLPC  H18R 5911   5.816   4.846   9.167 -1.5577 -1.6458 -1.2971
   69SLPC  H18S 5912   5.803   4.674   9.198  1.9938 -1.5297 -0.7501
   69SLPC  H18T 5913   5.963   4.750   9.165 -0.3562 -1.1844 -0.4753
   69SLPC   C33 5914   6.202   5.535  10.205 -0.5213  0.3178 -0.7252
   69SLPC   H3X 5915   6.124   5.461  10.233 -1.3497  1.7775  0.9296
   69SLPC   H3Y 5916   6.299   5.483  10.221 -0.5183  0.0620 -1.5707
   69SLPC   C34 5917   6.191   5.571  10.056 -0.3040  0.0166  0.3318
   69SLPC   H4X 5918   6.286   5.614  10.017 -1.1720 -0.2789 -2.1719
   69SLPC   H4Y 5919   6.106   5.639  10.037 -0.7372 -0.7857 -0.6030
   69SLPC   C35 5920   6.172   5.448   9.962  0.0032  0.6171 -0.4037
   69SLPC   H5X 5921   6.068   5.413   9.979  0.6231 -1.6671 -1.1716
   69SLPC   H5Y 5922   6.232   5.359   9.989 -1.1864  0.4021  1.6312
   69SLPC   C36 5923   6.190   5.492   9.815  0.1279  1.5914  0.4816
   69SLPC   H6X 5924   6.294   5.514   9.785 -0.1527  2.2889  0.0031
   69SLPC   H6Y 5925   6.137   5.589   9.802 -2.6426  0.6278  3.7456
   69SLPC   C37 5926   6.148   5.384   9.715  0.0445  0.3596 -1.1929
   69SLPC   H7X 5927   6.044   5.352   9.738  0.2437  0.9538  0.5793
   69SLPC   H7Y 5928   6.208   5.295   9.740 -1.2105 -0.1029  0.2780
   69SLPC   C38 5929   6.156   5.419   9.564 -0.3405  0.3007 -0.2941
   69SLPC   H8X 5930   6.262   5.419   9.532 -0.7925  1.5483 -1.8780
   69SLPC   H8Y 5931   6.107   5.518   9.553 -0.2395  0.4620  0.6759
   69SLPC   C39 5932   6.080   5.326   9.467  0.0921 -0.2575  0.0164
   69SLPC   H9X 5933   5.973   5.331   9.498  0.4654  3.0910  0.9460
   69SLPC   H9Y 5934   6.107   5.223   9.500 -0.6783 -1.1939 -2.2042
   69SLPC  C310 5935   6.084   5.353   9.320  0.1030  0.0643 -1.2510
   69SLPC  H10X 5936   6.190   5.373   9.295  0.8716 -2.5303 -0.1323
   69SLPC  H10Y 5937   6.024   5.444   9.300  0.7466  0.1144 -3.0336
   69SLPC  C311 5938   6.036   5.243   9.224 -0.6844  0.1106 -0.3799
   69SLPC  H11X 5939   5.928   5.226   9.243 -0.5938 -0.3010 -0.2307
   69SLPC  H11Y 5940   6.096   5.150   9.229 -1.0149 -0.0149  1.4692
   69SLPC  C312 5941   6.056   5.283   9.080  0.4000  0.6005  0.7377
   69SLPC  H12X 5942   6.167   5.290   9.078  0.4887 -0.7946  0.3577
   69SLPC  H12Y 5943   6.013   5.384   9.061 -1.1671 -0.1575  0.2140
   69SLPC  C313 5944   6.003   5.187   8.969 -0.4004 -0.6237  0.6100
   69SLPC  H13X 5945   6.007   5.245   8.875  1.2078 -3.0580 -0.8749
   69SLPC  H13Y 5946   5.898   5.153   8.982 -0.6694  0.5893  1.7379
   69SLPC  C314 5947   6.090   5.064   8.943  0.2695  0.6502 -0.1876
   69SLPC  H14X 5948   6.049   4.970   8.986 -1.3970  0.6290 -1.7474
   69SLPC  H14Y 5949   6.190   5.079   8.989  0.0432  1.1325  0.1467
   69SLPC  C315 5950   6.114   5.048   8.795 -0.1547  0.2948 -0.6490
   69SLPC  H15X 5951   6.159   5.140   8.752  1.2649  0.4461  1.1079
   69SLPC  H15Y 5952   6.020   5.017   8.743 -1.1017 -2.3258  2.4792
   69SLPC  C316 5953   6.212   4.932   8.757  0.3677 -0.3156 -0.1470
   69SLPC  H16X 5954   6.192   4.833   8.803  2.7820 -0.4088  0.7770
   69SLPC  H16Y 5955   6.311   4.967   8.791  0.1354 -1.5464  1.8847
   69SLPC  C317 5956   6.206   4.893   8.605  0.4656 -0.0841  0.4309
   69SLPC  H17X 5957   6.216   4.988   8.548 -1.4368 -0.5649 -0.7262
   69SLPC  H17Y 5958   6.103   4.857   8.584  1.4666 -2.3712 -0.7732
   69SLPC  C318 5959   6.306   4.783   8.560 -0.2546 -0.2981  0.0104
   69SLPC  H18X 5960   6.278   4.770   8.453 -0.0138 -0.4726 -0.0324
   69SLPC  H18Y 5961   6.269   4.685   8.597  0.1379  0.0428  1.3581
   69SLPC  H18Z 5962   6.414   4.810   8.565  0.3902 -2.8604  0.3766
   70SLPC     N 5963   6.681   3.154  11.049 -0.2554 -0.4345  0.3732
   70SLPC   C13 5964   6.729   3.088  11.168  0.0678 -0.0908 -0.4440
   70SLPC  H13A 5965   6.834   3.091  11.194 -0.2172 -1.6280  1.0420
   70SLPC  H13B 5966   6.688   3.139  11.254  1.9081  1.5302 -0.4885
   70SLPC  H13C 5967   6.697   2.985  11.175 -2.5448  0.7140 -0.3067
   70SLPC   C14 5968   6.689   3.309  11.069  0.7107 -0.0677  0.4332
   70SLPC  H14A 5969   6.600   3.347  11.117  1.0338  1.3938 -0.0824
   70SLPC  H14B 5970   6.781   3.341  11.114 -0.2277  2.2921  0.7814
   70SLPC  H14C 5971   6.696   3.357  10.972  1.8791  0.6682  0.8815
   70SLPC   C15 5972   6.539   3.116  11.019  0.3300  0.4843  0.5670
   70SLPC  H15A 5973   6.471   3.155  11.094 -0.1099  0.1301  0.3512
   70SLPC  H15B 5974   6.519   3.152  10.919  0.2596  0.5726  0.6133
   70SLPC  H15C 5975   6.535   3.008  11.012 -1.5280  0.6001 -0.2968
   70SLPC   C12 5976   6.780   3.112  10.939  0.1885 -0.0378 -0.7185
   70SLPC  H12A 5977   6.787   3.005  10.928  1.5524 -0.0676  0.3197
   70SLPC  H12B 5978   6.875   3.151  10.973 -0.5441  1.6012 -0.4592
   70SLPC   C11 5979   6.747   3.159  10.799  0.0064  0.3090 -0.6259
   70SLPC  H11A 5980   6.837   3.130  10.741  0.5684 -0.3832  0.5770
   70SLPC  H11B 5981   6.735   3.269  10.808 -2.8183 -0.0278  0.1189
   70SLPC     P 5982   6.534   3.145  10.650  0.2088  0.2760  0.0712
   70SLPC   O13 5983   6.433   3.207  10.739  0.1506 -0.0266  0.0895
   70SLPC   O14 5984   6.589   3.223  10.541 -0.4657 -0.0788 -0.1016
   70SLPC   O12 5985   6.643   3.087  10.747  0.6829 -0.3927  0.0669
   70SLPC   O11 5986   6.470   3.011  10.596 -0.1603  0.1946  0.3046
   70SLPC    C1 5987   6.547   2.889  10.589 -0.3029 -0.1734 -0.8032
   70SLPC    HA 5988   6.656   2.899  10.608  0.2240 -0.1872 -3.6269
   70SLPC    HB 5989   6.498   2.812  10.653  0.8386 -1.0239 -0.9312
   70SLPC    C2 5990   6.544   2.825  10.448  0.7287  0.4098  0.3202
   70SLPC    HS 5991   6.620   2.745  10.440  1.5431  1.4019 -2.2632
   70SLPC   O21 5992   6.559   2.920  10.341  0.1421  0.2451 -0.4067
   70SLPC   C21 5993   6.675   2.972  10.340 -0.7284 -0.6179  0.3618
   70SLPC   O22 5994   6.779   2.924  10.391 -0.4374  0.0852  0.4061
   70SLPC   C22 5995   6.673   3.099  10.255  0.0653 -0.0921 -0.2570
   70SLPC   H2R 5996   6.569   3.121  10.223  0.2328  0.1987 -0.6081
   70SLPC   H2S 5997   6.711   3.179  10.321  1.5667 -0.3571 -0.7789
   70SLPC    C3 5998   6.407   2.765  10.419 -0.2339  0.1298 -0.5449
   70SLPC    HX 5999   6.330   2.837  10.451  0.1927 -0.7849  2.7440
   70SLPC    HY 6000   6.386   2.673  10.478  1.2870  0.4349  0.5030
   70SLPC   O31 6001   6.401   2.719  10.279  0.6510 -0.2633 -0.3374
   70SLPC   C31 6002   6.322   2.797  10.196  0.4628  1.0253  0.7024
   70SLPC   O32 6003   6.234   2.866  10.241  0.6734  0.3092  0.1470
   70SLPC   C32 6004   6.361   2.786  10.044  0.9368  0.7501 -0.1281
   70SLPC   H2X 6005   6.312   2.700   9.994  2.5631  0.7370 -1.7295
   70SLPC   H2Y 6006   6.471   2.787  10.034  0.8510  1.3307 -1.0804
   70SLPC   C23 6007   6.765   3.089  10.127  0.5317  1.0715 -0.2618
   70SLPC   H3R 6008   6.863   3.060  10.172  0.8125  0.8189 -1.0117
   70SLPC   H3S 6009   6.775   3.189  10.080  1.4311  1.4397  0.7022
   70SLPC   C24 6010   6.710   2.988  10.026  0.2448  0.0463 -0.1719
   70SLPC   H4R 6011   6.614   3.039  10.005  0.0223 -0.8228 -1.3356
   70SLPC   H4S 6012   6.697   2.890  10.077  1.6381 -0.2635 -0.3671
   70SLPC   C25 6013   6.792   2.961   9.904  0.0697  0.2214 -0.7540
   70SLPC   H5R 6014   6.748   2.876   9.847  0.8290 -0.9143  0.3221
   70SLPC   H5S 6015   6.893   2.916   9.918 -0.6208 -1.5987 -1.4986
   70SLPC   C26 6016   6.791   3.069   9.798 -0.5971  0.0391  0.5823
   70SLPC   H6R 6017   6.821   3.154   9.862 -3.0854  2.2712 -1.0617
   70SLPC   H6S 6018   6.685   3.087   9.767 -0.5701 -1.5584 -0.4667
   70SLPC   C27 6019   6.881   3.060   9.673 -0.0103 -0.1117 -0.8595
   70SLPC   H7R 6020   6.833   2.991   9.600 -0.5213 -0.7098  0.0347
   70SLPC   H7S 6021   6.980   3.024   9.708  0.3050  1.4960 -0.0538
   70SLPC   C28 6022   6.894   3.196   9.607  0.2620 -0.9368  0.3420
   70SLPC   H8R 6023   6.934   3.269   9.681 -1.4897  0.3870  0.0168
   70SLPC   H8S 6024   6.798   3.242   9.575  0.4365  0.5389  1.8835
   70SLPC   C29 6025   6.986   3.177   9.491 -0.1557  0.0951  0.2536
   70SLPC   H9R 6026   7.087   3.147   9.523  0.2924 -0.1493 -1.3452
   70SLPC  C210 6027   6.965   3.168   9.359  0.1029 -0.4651  1.0619
   70SLPC  H10R 6028   7.050   3.146   9.294  1.5267 -0.3544  2.8511
   70SLPC  C211 6029   6.832   3.180   9.290 -0.1507  0.4813 -0.7012
   70SLPC  H11R 6030   6.818   3.279   9.243  0.3803  1.4050  1.0358
   70SLPC  H11S 6031   6.753   3.167   9.366  0.1056  0.4587 -0.4372
   70SLPC  C212 6032   6.828   3.078   9.175  0.2027 -1.0221 -0.0584
   70SLPC  H12R 6033   6.929   3.063   9.133  1.5817  0.1560  2.6957
   70SLPC  C213 6034   6.727   3.004   9.121 -0.0509 -0.6563  0.5598
   70SLPC  H13R 6035   6.741   2.946   9.029 -0.4234 -0.3789  0.3234
   70SLPC  C214 6036   6.583   3.010   9.165  0.0010 -0.3223 -0.7908
   70SLPC  H14R 6037   6.568   3.093   9.237 -0.5750 -1.1335  0.0197
   70SLPC  H14S 6038   6.561   2.916   9.220  1.9475 -0.2977  0.0755
   70SLPC  C215 6039   6.474   3.028   9.057  0.4237 -0.2892 -0.2791
   70SLPC  H15R 6040   6.373   2.995   9.090  0.2369  0.4188 -0.1432
   70SLPC  H15S 6041   6.503   2.977   8.963  2.6172 -0.1789  0.3087
   70SLPC  C216 6042   6.460   3.173   9.011 -0.4193 -0.5359  0.1584
   70SLPC  H16R 6043   6.554   3.202   8.959 -1.0003  0.2379 -0.4860
   70SLPC  H16S 6044   6.463   3.233   9.105 -1.6812 -0.9515  0.4773
   70SLPC  C217 6045   6.337   3.207   8.933  0.4337  0.5442  0.5213
   70SLPC  H17R 6046   6.338   3.318   8.933 -0.4439  0.5869 -1.7408
   70SLPC  H17S 6047   6.237   3.177   8.971 -0.3332  1.0318 -1.0526
   70SLPC  C218 6048   6.350   3.173   8.783 -0.1616 -0.5153 -0.1960
   70SLPC  H18R 6049   6.392   3.071   8.778  3.7630  0.9287  1.1908
   70SLPC  H18S 6050   6.431   3.236   8.741 -0.6752  0.1576 -0.1947
   70SLPC  H18T 6051   6.255   3.182   8.725  0.2344 -2.6410 -1.2079
   70SLPC   C33 6052   6.312   2.918   9.975 -0.1606  0.0872 -0.2802
   70SLPC   H3X 6053   6.356   3.000  10.037  3.2797 -2.4742  0.8669
   70SLPC   H3Y 6054   6.204   2.918   9.999 -0.6424  2.4719 -2.2745
   70SLPC   C34 6055   6.345   2.919   9.831  0.0732  0.5204  0.5422
   70SLPC   H4X 6056   6.311   2.826   9.781 -0.5781  0.9671  0.1459
   70SLPC   H4Y 6057   6.455   2.907   9.823 -0.0662 -0.2764 -0.1873
   70SLPC   C35 6058   6.299   3.041   9.751  0.1457  0.7684  0.3588
   70SLPC   H5X 6059   6.344   3.137   9.786  1.1386  0.2407  0.5530
   70SLPC   H5Y 6060   6.189   3.040   9.763  0.3541  0.2640  2.3914
   70SLPC   C36 6061   6.338   3.037   9.603 -0.1647  0.8176  0.2222
   70SLPC   H6X 6062   6.317   2.938   9.556  2.2424  0.8468 -1.0206
   70SLPC   H6Y 6063   6.447   3.058   9.598  0.0075 -0.2511 -1.0777
   70SLPC   C37 6064   6.269   3.147   9.524 -0.8175 -0.1382 -0.1548
   70SLPC   H7X 6065   6.286   3.229   9.597  1.7306 -1.9923  1.4139
   70SLPC   H7Y 6066   6.159   3.129   9.518 -0.4903 -2.6851  0.8842
   70SLPC   C38 6067   6.340   3.178   9.396  0.5338  0.0689 -0.4875
   70SLPC   H8X 6068   6.352   3.091   9.328  1.1554  1.3096 -1.9958
   70SLPC   H8Y 6069   6.443   3.213   9.422  0.1558  0.1564  0.9336
   70SLPC   C39 6070   6.280   3.298   9.323  0.4010  0.1604 -0.2086
   70SLPC   H9X 6071   6.349   3.325   9.241  1.4578 -1.6189  0.0633
   70SLPC   H9Y 6072   6.288   3.386   9.391 -0.7650 -0.4508  0.7573
   70SLPC  C310 6073   6.147   3.266   9.264 -0.1076  0.2067  0.1920
   70SLPC  H10X 6074   6.075   3.246   9.345 -2.0667 -0.5009 -1.6675
   70SLPC  H10Y 6075   6.163   3.177   9.198  1.9498  0.1011  0.7768
   70SLPC  C311 6076   6.102   3.380   9.177  0.0855  0.1792  0.1454
   70SLPC  H11X 6077   6.181   3.406   9.104  0.9962 -0.3921  0.9107
   70SLPC  H11Y 6078   6.080   3.467   9.244 -2.6808 -1.2715  1.2100
   70SLPC  C312 6079   5.961   3.359   9.100  0.1121  0.2303 -0.5467
   70SLPC  H12X 6080   5.877   3.346   9.171  0.7428  1.0509  0.3494
   70SLPC  H12Y 6081   5.953   3.273   9.030 -2.3442  0.4874 -0.6395
   70SLPC  C313 6082   5.934   3.478   9.010 -0.7322 -0.1454  0.0445
   70SLPC  H13X 6083   5.872   3.442   8.926  1.8126  0.5393 -2.1995
   70SLPC  H13Y 6084   6.027   3.527   8.974 -1.8263  1.8374 -0.1839
   70SLPC  C314 6085   5.851   3.583   9.083 -0.1049 -0.7087 -0.4439
   70SLPC  H14X 6086   5.906   3.633   9.165  0.5398 -1.5382 -0.3673
   70SLPC  H14Y 6087   5.764   3.548   9.144 -0.4024 -0.0367 -0.4871
   70SLPC  C315 6088   5.811   3.706   8.993  0.7360 -0.2093 -0.3692
   70SLPC  H15X 6089   5.759   3.670   8.902  1.6130  2.1459 -1.8461
   70SLPC  H15Y 6090   5.908   3.746   8.957 -1.2107  1.9564 -3.4647
   70SLPC  C316 6091   5.721   3.809   9.062 -0.4377  0.2507 -0.2370
   70SLPC  H16X 6092   5.778   3.863   9.140  1.1505  2.5461 -2.8687
   70SLPC  H16Y 6093   5.630   3.765   9.108  0.6821 -2.6169 -0.6415
   70SLPC  C317 6094   5.669   3.914   8.970 -0.1338  0.5390  0.0277
   70SLPC  H17X 6095   5.566   3.893   8.934  0.1672 -2.0129  0.5755
   70SLPC  H17Y 6096   5.730   3.923   8.878 -0.6489  0.1312 -0.3571
   70SLPC  C318 6097   5.648   4.052   9.043  0.2586 -0.4588  0.0198
   70SLPC  H18X 6098   5.731   4.125   9.029  0.7846 -0.5735  2.3540
   70SLPC  H18Y 6099   5.636   4.038   9.153 -0.9360 -0.2341 -0.0722
   70SLPC  H18Z 6100   5.560   4.103   8.998  1.5899  2.5858  0.7634
   71SLPC     N 6101   6.740   0.918  10.514 -0.6149  0.0559  0.0626
   71SLPC   C13 6102   6.741   0.942  10.368  0.4469 -0.1616  0.0668
   71SLPC  H13A 6103   6.641   0.967  10.338  0.7631  1.0053 -0.0232
   71SLPC  H13B 6104   6.797   1.031  10.346  0.5425 -0.4707 -0.9625
   71SLPC  H13C 6105   6.782   0.857  10.316  1.5431  1.9302 -2.5943
   71SLPC   C14 6106   6.875   0.869  10.556  0.8420  0.0604  0.1832
   71SLPC  H14A 6107   6.887   0.850  10.662 -1.5816  1.9674  0.8405
   71SLPC  H14B 6108   6.904   0.780  10.502  0.1651  0.0896 -0.2265
   71SLPC  H14C 6109   6.951   0.941  10.530 -0.6130  1.0036 -1.5556
   71SLPC   C15 6110   6.641   0.814  10.560  0.9684 -0.5491  0.4154
   71SLPC  H15A 6111   6.639   0.739  10.483  0.9332 -0.6955  0.5589
   71SLPC  H15B 6112   6.658   0.774  10.659  1.2660  2.0138  1.4386
   71SLPC  H15C 6113   6.544   0.863  10.560  0.9603 -0.5572  1.2994
   71SLPC   C12 6114   6.712   1.045  10.587  0.1171  0.5968 -0.0405
   71SLPC  H12A 6115   6.634   1.109  10.550 -0.0752  0.9906  1.0231
   71SLPC  H12B 6116   6.797   1.109  10.567  0.1785  0.0027 -1.7693
   71SLPC   C11 6117   6.699   1.042  10.737  0.2190 -0.7253 -0.7305
   71SLPC  H11A 6118   6.710   1.144  10.780 -0.7214 -1.0858  0.4088
   71SLPC  H11B 6119   6.796   0.998  10.770 -0.3339 -1.4969 -0.1184
   71SLPC     P 6120   6.431   1.036  10.762  0.0593  0.0831  0.3971
   71SLPC   O13 6121   6.360   0.931  10.680 -0.4929 -0.6778 -0.4427
   71SLPC   O14 6122   6.366   1.090  10.881 -0.1064  0.0648 -0.4799
   71SLPC   O12 6123   6.582   0.979  10.791 -0.1832 -0.4930  0.6255
   71SLPC   O11 6124   6.468   1.161  10.671 -0.1369  0.2697  0.0805
   71SLPC    C1 6125   6.400   1.199  10.554  0.2833  0.3860  0.5045
   71SLPC    HA 6126   6.456   1.264  10.483  1.7071  0.6648  1.8446
   71SLPC    HB 6127   6.388   1.108  10.492  2.6667  0.3908 -0.0386
   71SLPC    C2 6128   6.269   1.271  10.590  0.1995 -0.2459  0.1989
   71SLPC    HS 6129   6.202   1.196  10.637 -0.6874  1.1095  1.1004
   71SLPC   O21 6130   6.210   1.327  10.469 -0.0192 -0.0362  0.5941
   71SLPC   C21 6131   6.160   1.234  10.381 -0.4294 -0.0957 -0.4368
   71SLPC   O22 6132   6.148   1.114  10.398 -0.5898  0.4450  0.1825
   71SLPC   C22 6133   6.140   1.313  10.254  0.3951 -0.4882 -0.4654
   71SLPC   H2R 6134   6.069   1.256  10.189 -3.5388  3.6182  0.0069
   71SLPC   H2S 6135   6.086   1.406  10.283  1.5611 -0.0019  0.1758
   71SLPC    C3 6136   6.281   1.388  10.685 -0.0793  0.3100  0.3393
   71SLPC    HX 6137   6.311   1.349  10.785 -0.2975 -1.0188 -0.1001
   71SLPC    HY 6138   6.195   1.454  10.706 -1.2943 -1.1938  0.1805
   71SLPC   O31 6139   6.392   1.475  10.644  0.3456 -0.2771 -0.1902
   71SLPC   C31 6140   6.371   1.598  10.583  0.0182 -0.1902 -0.3933
   71SLPC   O32 6141   6.262   1.648  10.565  0.1240  0.1845  0.1034
   71SLPC   C32 6142   6.496   1.670  10.548  0.0410  0.3948 -0.5788
   71SLPC   H2X 6143   6.579   1.657  10.620  0.2361  3.0106 -0.2647
   71SLPC   H2Y 6144   6.480   1.780  10.544 -0.4417  0.2714 -3.3267
   71SLPC   C23 6145   6.274   1.347  10.194  0.0888 -0.0537 -0.1072
   71SLPC   H3R 6146   6.327   1.256  10.160 -0.8577 -1.2949  1.6190
   71SLPC   H3S 6147   6.341   1.397  10.267  1.9849 -1.7621 -0.6186
   71SLPC   C24 6148   6.264   1.452  10.077  0.2359 -0.8152  0.2843
   71SLPC   H4R 6149   6.363   1.470  10.031 -0.5085  0.6825 -0.7646
   71SLPC   H4S 6150   6.218   1.547  10.109 -2.1089 -2.0445  0.7157
   71SLPC   C25 6151   6.185   1.404   9.949 -0.4644 -0.0012 -0.1426
   71SLPC   H5R 6152   6.079   1.423   9.975  0.0198  0.3494  1.6813
   71SLPC   H5S 6153   6.206   1.296   9.940 -0.1898 -0.3708  3.9694
   71SLPC   C26 6154   6.219   1.479   9.820 -0.0741  0.4715 -0.5036
   71SLPC   H6R 6155   6.290   1.565   9.827  0.3596  0.0443  0.4134
   71SLPC   H6S 6156   6.127   1.520   9.774 -1.0576 -0.2116  0.8402
   71SLPC   C27 6157   6.290   1.386   9.719  0.3415  0.1399  0.3273
   71SLPC   H7R 6158   6.214   1.308   9.694 -0.4752  1.9535 -3.0990
   71SLPC   H7S 6159   6.373   1.338   9.775  1.6572  1.2503 -0.6633
   71SLPC   C28 6160   6.348   1.454   9.592  0.9872  0.2794 -0.6695
   71SLPC   H8R 6161   6.383   1.369   9.529 -2.4156 -1.5193 -0.2379
   71SLPC   H8S 6162   6.424   1.526   9.630 -1.0205  1.8633  0.4632
   71SLPC   C29 6163   6.231   1.536   9.539 -0.3493 -0.5697  0.1002
   71SLPC   H9R 6164   6.206   1.630   9.591 -1.4527 -0.5859 -0.3836
   71SLPC  C210 6165   6.164   1.503   9.430 -0.1765 -0.2284 -0.1178
   71SLPC  H10R 6166   6.072   1.556   9.403 -0.2145  0.0920  0.6419
   71SLPC  C211 6167   6.183   1.376   9.348 -0.0568 -0.0338  1.1016
   71SLPC  H11R 6168   6.186   1.290   9.419 -1.6241 -0.1943  0.9900
   71SLPC  H11S 6169   6.289   1.375   9.315 -0.2547  2.4270  0.2955
   71SLPC  C212 6170   6.071   1.347   9.243 -0.8183  0.9783 -0.3043
   71SLPC  H12R 6171   5.967   1.328   9.276 -0.6553  1.0525  0.2669
   71SLPC  C213 6172   6.088   1.354   9.112 -0.3976 -0.8794  0.4588
   71SLPC  H13R 6173   6.014   1.324   9.036  1.3171 -4.4820  0.1061
   71SLPC  C214 6174   6.218   1.382   9.047  0.1576 -0.2448  0.3000
   71SLPC  H14R 6175   6.268   1.285   9.023  0.1000 -0.2629  0.2519
   71SLPC  H14S 6176   6.264   1.445   9.126  0.0349  1.8754 -1.2720
   71SLPC  C215 6177   6.207   1.470   8.920 -0.5322  0.1464  0.4765
   71SLPC  H15R 6178   6.145   1.418   8.844  0.2244 -2.3718  1.5366
   71SLPC  H15S 6179   6.308   1.478   8.876  0.2730 -0.1893  2.2084
   71SLPC  C216 6180   6.153   1.610   8.944 -0.3488  0.1835  0.0720
   71SLPC  H16R 6181   6.043   1.606   8.958 -0.0848 -2.2577  1.8451
   71SLPC  H16S 6182   6.170   1.661   8.847 -0.9811  0.3245  0.0320
   71SLPC  C217 6183   6.216   1.695   9.054  0.3121 -0.0816 -0.1273
   71SLPC  H17R 6184   6.325   1.694   9.033  0.4053 -1.0286  0.3555
   71SLPC  H17S 6185   6.211   1.627   9.142  1.3165 -0.3983 -0.3062
   71SLPC  C218 6186   6.160   1.835   9.079 -0.1349 -0.2681  0.2486
   71SLPC  H18R 6187   6.050   1.823   9.094  0.1858 -0.8323  2.4033
   71SLPC  H18S 6188   6.165   1.896   8.987 -1.4516  0.0273  0.3589
   71SLPC  H18T 6189   6.202   1.881   9.171 -0.4137  0.0636  0.2106
   71SLPC   C33 6190   6.541   1.631  10.402  0.7171 -0.3147 -0.6439
   71SLPC   H3X 6191   6.524   1.522  10.384 -0.1558 -0.3027  0.0920
   71SLPC   H3Y 6192   6.649   1.653  10.388  0.5756  1.6715  1.1972
   71SLPC   C34 6193   6.463   1.710  10.295  0.4037  0.4634  0.2429
   71SLPC   H4X 6194   6.429   1.814  10.318  2.5247  1.2976 -0.2774
   71SLPC   H4Y 6195   6.373   1.649  10.274  0.9811 -0.5030  0.5428
   71SLPC   C35 6196   6.536   1.717  10.151  0.8031  0.0976 -0.0581
   71SLPC   H5X 6197   6.566   1.612  10.129  0.6622  0.0708 -0.1256
   71SLPC   H5Y 6198   6.634   1.767  10.166  2.1915 -2.3947 -0.4738
   71SLPC   C36 6199   6.451   1.767  10.027  0.2733 -0.1220 -0.4805
   71SLPC   H6X 6200   6.399   1.858  10.065 -0.3360 -1.2400  1.4354
   71SLPC   H6Y 6201   6.376   1.688  10.006  0.2377  0.3125 -2.0323
   71SLPC   C37 6202   6.545   1.786   9.907 -0.4965 -1.2952 -0.4665
   71SLPC   H7X 6203   6.607   1.695   9.903  0.0103 -0.9386 -0.7531
   71SLPC   H7Y 6204   6.611   1.874   9.921 -2.1712 -0.5948  3.8012
   71SLPC   C38 6205   6.470   1.820   9.779 -0.4737  0.6685  0.1342
   71SLPC   H8X 6206   6.420   1.918   9.786  0.2021  1.0163  0.1173
   71SLPC   H8Y 6207   6.393   1.742   9.759  0.6641 -0.0488 -1.6717
   71SLPC   C39 6208   6.559   1.817   9.654 -0.0649  0.6090 -0.5108
   71SLPC   H9X 6209   6.596   1.715   9.631  1.0577  1.0091 -0.5380
   71SLPC   H9Y 6210   6.643   1.889   9.668  0.9928 -1.0556  2.3548
   71SLPC  C310 6211   6.487   1.863   9.519  0.4558  0.0188  0.8455
   71SLPC  H10X 6212   6.466   1.972   9.518 -0.3389 -0.1518 -1.0349
   71SLPC  H10Y 6213   6.398   1.799   9.509  1.5679 -2.1517  4.1032
   71SLPC  C311 6214   6.573   1.855   9.399 -0.4473  0.0080  0.8559
   71SLPC  H11X 6215   6.610   1.753   9.376 -0.1105  0.4451 -0.5939
   71SLPC  H11Y 6216   6.658   1.925   9.415 -1.3840  1.5867 -0.8543
   71SLPC  C312 6217   6.510   1.918   9.267  0.2512 -0.1086  0.5454
   71SLPC  H12X 6218   6.479   2.023   9.284  1.4201  0.0074  2.0379
   71SLPC  H12Y 6219   6.416   1.864   9.242 -0.4308  0.9138  0.8794
   71SLPC  C313 6220   6.588   1.901   9.140  0.0810  0.0113  0.4688
   71SLPC  H13X 6221   6.620   1.798   9.111 -1.0819  0.1134 -1.2002
   71SLPC  H13Y 6222   6.687   1.951   9.145  1.3257 -2.3301  0.3524
   71SLPC  C314 6223   6.503   1.973   9.028  0.7114  0.2206  0.0923
   71SLPC  H14X 6224   6.538   2.077   9.010 -1.9374  1.3250  1.1312
   71SLPC  H14Y 6225   6.397   1.984   9.058  0.3993  1.8441 -1.4517
   71SLPC  C315 6226   6.519   1.903   8.888 -0.0762 -0.0029 -0.0188
   71SLPC  H15X 6227   6.478   1.803   8.912 -1.1275  0.8224  1.7351
   71SLPC  H15Y 6228   6.626   1.893   8.860 -0.0244  1.2701 -0.3254
   71SLPC  C316 6229   6.424   1.960   8.772  0.0359  0.0686  0.5445
   71SLPC  H16X 6230   6.444   2.070   8.765  1.6247 -0.2441 -0.0690
   71SLPC  H16Y 6231   6.318   1.937   8.795  0.4728 -1.3407  1.1349
   71SLPC  C317 6232   6.455   1.893   8.636  0.7635 -0.1698 -0.6896
   71SLPC  H17X 6233   6.561   1.924   8.626  0.4420  1.2817  0.2735
   71SLPC  H17Y 6234   6.388   1.938   8.559 -0.2356  0.6191  0.6351
   71SLPC  C318 6235   6.433   1.742   8.634 -0.5105  0.7068  0.7117
   71SLPC  H18X 6236   6.454   1.696   8.535  1.0635  1.5359  0.6649
   71SLPC  H18Y 6237   6.329   1.723   8.669 -1.1481 -0.1806 -1.5383
   71SLPC  H18Z 6238   6.495   1.695   8.713 -0.0724 -1.7705 -1.0524
   72SLPC     N 6239   1.443   0.864  10.671  0.3140 -0.0311  0.0267
   72SLPC   C13 6240   1.507   0.728  10.708  0.6387  1.0538 -0.2637
   72SLPC  H13A 6241   1.429   0.653  10.711 -1.2026  2.9862  3.7532
   72SLPC  H13B 6242   1.588   0.703  10.641  1.4810  1.3964  0.6262
   72SLPC  H13C 6243   1.551   0.739  10.806  0.7860  1.7864 -0.4097
   72SLPC   C14 6244   1.557   0.960  10.651 -0.3798 -0.0721 -0.1114
   72SLPC  H14A 6245   1.617   0.970  10.741  0.1310 -1.0014 -0.3480
   72SLPC  H14B 6246   1.624   0.924  10.574 -2.4452 -0.0763 -1.9405
   72SLPC  H14C 6247   1.520   1.059  10.627  0.2769  0.3996  0.7615
   72SLPC   C15 6248   1.362   0.908  10.789  0.4458 -0.5684 -0.6279
   72SLPC  H15A 6249   1.420   0.889  10.879  2.5150 -3.0972 -2.3853
   72SLPC  H15B 6250   1.335   1.012  10.788 -1.3718 -1.0262 -0.0441
   72SLPC  H15C 6251   1.269   0.853  10.786 -0.0193  0.1864 -0.1351
   72SLPC   C12 6252   1.342   0.857  10.558 -0.0743  0.1793 -0.1332
   72SLPC  H12A 6253   1.394   0.830  10.468 -1.7617  0.3937 -1.1833
   72SLPC  H12B 6254   1.302   0.956  10.540 -0.9361 -0.0363  0.5293
   72SLPC   C11 6255   1.216   0.759  10.558  0.2821  0.3812  0.2593
   72SLPC  H11A 6256   1.245   0.655  10.532 -2.6052 -0.5727  0.7276
   72SLPC  H11B 6257   1.150   0.771  10.470  0.4869 -2.4208 -0.3248
   72SLPC     P 6258   1.000   0.807  10.686  0.1089  0.0123  0.2704
   72SLPC   O13 6259   0.943   0.790  10.820 -0.5291 -0.0958  0.0343
   72SLPC   O14 6260   0.993   0.944  10.627 -0.0097  0.5166 -0.3163
   72SLPC   O12 6261   1.145   0.758  10.679 -0.7385 -0.1310 -0.1818
   72SLPC   O11 6262   0.930   0.710  10.589  0.8299 -0.0330 -0.0266
   72SLPC    C1 6263   0.893   0.576  10.648 -0.1737 -0.2514 -0.1582
   72SLPC    HA 6264   0.985   0.537  10.697  1.5589  0.7659 -2.5002
   72SLPC    HB 6265   0.814   0.584  10.726 -1.5102 -0.2951 -1.4959
   72SLPC    C2 6266   0.858   0.478  10.530  0.6128  0.0073 -0.8633
   72SLPC    HS 6267   0.855   0.374  10.567  1.5703 -0.2144 -1.4155
   72SLPC   O21 6268   0.948   0.489  10.408  0.4239 -0.7111 -0.4422
   72SLPC   C21 6269   1.069   0.444  10.435  0.1158  0.0819 -0.4718
   72SLPC   O22 6270   1.104   0.394  10.543  0.0875  0.3876  0.0026
   72SLPC   C22 6271   1.172   0.474  10.317  0.4023 -0.0184  0.1311
   72SLPC   H2R 6272   1.170   0.584  10.306  1.1248 -0.0994 -0.9152
   72SLPC   H2S 6273   1.275   0.445  10.348  0.9515  1.1906 -0.5228
   72SLPC    C3 6274   0.711   0.498  10.482  0.3402 -0.1293  0.0516
   72SLPC    HX 6275   0.680   0.605  10.477 -0.7917 -0.5286 -1.9854
   72SLPC    HY 6276   0.636   0.466  10.557  0.0718 -0.1045 -0.2032
   72SLPC   O31 6277   0.693   0.421  10.358 -0.2305  0.1291  0.3086
   72SLPC   C31 6278   0.610   0.470  10.269 -0.4087  0.0012 -0.2529
   72SLPC   O32 6279   0.518   0.546  10.297 -0.0229 -0.0159 -0.4721
   72SLPC   C32 6280   0.644   0.401  10.139  0.3121 -0.3660 -0.3011
   72SLPC   H2X 6281   0.673   0.296  10.160  0.8243  0.1249  1.5235
   72SLPC   H2Y 6282   0.723   0.461  10.090  0.3158  1.0146  1.3614
   72SLPC   C23 6283   1.156   0.413  10.174  1.0927 -0.4466 -0.7746
   72SLPC   H3R 6284   1.165   0.303  10.177  0.3614 -0.4787  0.6489
   72SLPC   H3S 6285   1.241   0.441  10.108  1.3299 -1.8287 -1.0516
   72SLPC   C24 6286   1.024   0.461  10.108 -0.7531  1.0334  0.4244
   72SLPC   H4R 6287   1.023   0.572  10.100 -1.6462  1.0240  0.4389
   72SLPC   H4S 6288   0.935   0.441  10.171 -0.2683 -0.5042  0.6248
   72SLPC   C25 6289   0.997   0.381   9.976  0.1828  0.7543  0.1952
   72SLPC   H5R 6290   0.894   0.404   9.941  0.5167 -0.6184 -1.8090
   72SLPC   H5S 6291   0.991   0.274  10.005 -1.9414  1.1260  1.2330
   72SLPC   C26 6292   1.093   0.421   9.865  0.5629  0.3954  0.0189
   72SLPC   H6R 6293   1.195   0.382   9.885 -0.0994 -1.0853  0.6498
   72SLPC   H6S 6294   1.091   0.530   9.848  2.4009  0.1685 -1.9382
   72SLPC   C27 6295   1.057   0.366   9.727  0.8343  1.0925 -0.9083
   72SLPC   H7R 6296   0.952   0.388   9.697  0.3168  0.2438  0.2268
   72SLPC   H7S 6297   1.067   0.256   9.720 -0.0603  0.8857  0.8288
   72SLPC   C28 6298   1.162   0.420   9.624  0.0599 -0.2693  0.4140
   72SLPC   H8R 6299   1.261   0.371   9.631 -0.3956 -1.7148 -2.5187
   72SLPC   H8S 6300   1.177   0.531   9.622  0.8126 -0.3791 -0.8011
   72SLPC   C29 6301   1.119   0.390   9.478  0.7343 -0.1231  0.7793
   72SLPC   H9R 6302   1.013   0.406   9.452  0.8604 -0.6286 -0.0672
   72SLPC  C210 6303   1.195   0.355   9.375  0.3578  0.0786  0.1123
   72SLPC  H10R 6304   1.150   0.349   9.275 -1.0882 -2.9416  0.8808
   72SLPC  C211 6305   1.349   0.337   9.381  0.8709 -0.2423  0.4854
   72SLPC  H11R 6306   1.371   0.332   9.490  2.6376  0.6654  0.1812
   72SLPC  H11S 6307   1.400   0.425   9.337  1.8962 -1.5896 -1.0612
   72SLPC  C212 6308   1.391   0.204   9.325 -0.3395 -0.0115 -0.1902
   72SLPC  H12R 6309   1.382   0.122   9.397 -0.6271 -1.3296 -1.6872
   72SLPC  C213 6310   1.444   0.176   9.207 -0.0345 -0.2333 -0.3246
   72SLPC  H13R 6311   1.454   0.071   9.176  1.8052 -1.0960  2.9180
   72SLPC  C214 6312   1.484   0.259   9.095  0.1003 -0.2186 -0.2960
   72SLPC  H14R 6313   1.590   0.245   9.064 -0.7289 -3.4360 -1.9425
   72SLPC  H14S 6314   1.466   0.364   9.126 -1.4392 -0.2589 -0.9771
   72SLPC  C215 6315   1.400   0.238   8.968  0.0583  0.5352 -0.1501
   72SLPC  H15R 6316   1.411   0.336   8.916  0.4644  1.1094  1.0002
   72SLPC  H15S 6317   1.290   0.242   8.982  0.3523  0.4904  2.3286
   72SLPC  C216 6318   1.441   0.128   8.872  0.8151 -0.0089 -0.4716
   72SLPC  H16R 6319   1.541   0.144   8.827  1.2172  2.1190  1.0823
   72SLPC  H16S 6320   1.372   0.128   8.785  2.4160 -1.3747 -1.7619
   72SLPC  C217 6321   1.454  -0.011   8.940 -0.0502  0.0481  1.3282
   72SLPC  H17R 6322   1.378  -0.042   9.015 -0.1820 -2.7249  0.1240
   72SLPC  H17S 6323   1.552  -0.007   8.991 -0.4555 -0.5581  2.1800
   72SLPC  C218 6324   1.465  -0.127   8.832 -0.3795  0.4770  0.1109
   72SLPC  H18R 6325   1.512  -0.107   8.734  2.1983 -1.8857  0.8221
   72SLPC  H18S 6326   1.360  -0.156   8.810 -0.2027  0.3361 -0.5451
   72SLPC  H18T 6327   1.516  -0.214   8.878 -0.2040  0.5699  0.0899
   72SLPC   C33 6328   0.526   0.389  10.046  0.3854 -0.4581 -0.0790
   72SLPC   H3X 6329   0.466   0.482  10.053  1.7904  0.5739 -1.4753
   72SLPC   H3Y 6330   0.465   0.301  10.075 -1.9445  0.6195 -1.5243
   72SLPC   C34 6331   0.576   0.367   9.903 -0.4952 -0.3987  0.3760
   72SLPC   H4X 6332   0.642   0.278   9.903  0.0122 -0.0217  0.5194
   72SLPC   H4Y 6333   0.631   0.459   9.872 -0.0001 -0.3618  1.3346
   72SLPC   C35 6334   0.475   0.338   9.802  0.5979  0.5470  0.6961
   72SLPC   H5X 6335   0.518   0.361   9.703 -0.7931  2.6622  0.5585
   72SLPC   H5Y 6336   0.390   0.409   9.792  0.0374 -0.3510 -1.1265
   72SLPC   C36 6337   0.423   0.200   9.795  0.4211  0.2831 -0.2245
   72SLPC   H6X 6338   0.323   0.198   9.843  2.3561  2.3938  4.1783
   72SLPC   H6Y 6339   0.486   0.123   9.846  0.4733 -0.1983 -1.0010
   72SLPC   C37 6340   0.402   0.145   9.651 -0.5449 -0.6476 -0.2060
   72SLPC   H7X 6341   0.488   0.146   9.581 -0.0672  1.1086  0.3841
   72SLPC   H7Y 6342   0.341   0.228   9.608  1.9421  1.3885  0.0304
   72SLPC   C38 6343   0.325   0.015   9.656 -0.0090  0.5217 -0.6602
   72SLPC   H8X 6344   0.231   0.018   9.715  1.2174 -1.5155  1.4835
   72SLPC   H8Y 6345   0.387  -0.068   9.695  0.1266  1.9918  2.3888
   72SLPC   C39 6346   0.277  -0.030   9.521 -0.8005  0.4776 -0.0260
   72SLPC   H9X 6347   0.229   0.060   9.476  0.5141  0.6500 -1.1249
   72SLPC   H9Y 6348   0.194  -0.097   9.551 -1.3764  0.3337 -1.8532
   72SLPC  C310 6349   0.373  -0.084   9.417 -0.6917  0.3395 -0.0362
   72SLPC  H10X 6350   0.411  -0.184   9.447  2.6219  1.5243 -0.0647
   72SLPC  H10Y 6351   0.456  -0.010   9.412 -1.0112  0.9357  2.9822
   72SLPC  C311 6352   0.301  -0.088   9.281 -0.1488 -0.3320 -0.0680
   72SLPC  H11X 6353   0.297   0.018   9.249 -0.5550  0.0680  1.3001
   72SLPC  H11Y 6354   0.201  -0.137   9.279 -0.7526  0.9093 -1.3649
   72SLPC  C312 6355   0.403  -0.150   9.178 -0.1799  0.5046  0.7937
   72SLPC  H12X 6356   0.434  -0.254   9.203 -2.1086 -0.9306 -2.5239
   72SLPC  H12Y 6357   0.493  -0.086   9.187 -0.8961  1.3628  2.0834
   72SLPC  C313 6358   0.364  -0.147   9.030  0.7540  0.7874  0.8195
   72SLPC  H13X 6359   0.457  -0.147   8.969  1.5037  0.9914  1.9477
   72SLPC  H13Y 6360   0.307  -0.056   9.002  0.8031  1.4681  2.8447
   72SLPC  C314 6361   0.267  -0.273   8.998 -0.2707 -0.3713  0.1398
   72SLPC  H14X 6362   0.188  -0.289   9.075  0.7513 -0.3556  1.2059
   72SLPC  H14Y 6363   0.330  -0.362   9.017 -2.0448 -1.5181  0.8570
   72SLPC  C315 6364   0.210  -0.264   8.858  0.2853 -0.0713  0.2565
   72SLPC  H15X 6365   0.283  -0.226   8.784 -0.8726 -0.8678 -1.3334
   72SLPC  H15Y 6366   0.141  -0.177   8.867 -0.2635 -0.5527  0.7625
   72SLPC  C316 6367   0.142  -0.395   8.804  0.3455  0.8158 -0.5888
   72SLPC  H16X 6368   0.060  -0.423   8.875  0.0984  1.7225 -0.5003
   72SLPC  H16Y 6369   0.221  -0.472   8.803 -0.6484 -0.3204  2.4073
   72SLPC  C317 6370   0.088  -0.381   8.656  0.0405  0.0955 -0.3143
   72SLPC  H17X 6371   0.062  -0.481   8.617  2.5056 -1.2264  1.3241
   72SLPC  H17Y 6372   0.170  -0.343   8.591  0.5506 -0.9428 -0.2720
   72SLPC  C318 6373  -0.028  -0.280   8.647  0.0136  0.3132  0.5583
   72SLPC  H18X 6374  -0.060  -0.254   8.544 -0.7459 -0.7256  0.5236
   72SLPC  H18Y 6375   0.019  -0.193   8.697  4.9615 -1.8116 -0.0767
   72SLPC  H18Z 6376  -0.115  -0.316   8.707  1.4254 -0.6429  2.0769
   73SLPC     N 6377   1.077   5.284  11.101 -0.0161  0.5115  0.3103
   73SLPC   C13 6378   0.950   5.221  11.162  0.1825  0.4047  0.0558
   73SLPC  H13A 6379   0.927   5.240  11.266 -1.1614 -1.4720  0.1275
   73SLPC  H13B 6380   0.858   5.242  11.109 -0.6437 -0.8631  0.9774
   73SLPC  H13C 6381   0.957   5.114  11.163  1.2461  0.4614  3.5573
   73SLPC   C14 6382   1.188   5.220  11.168  0.1246  0.7361  0.7191
   73SLPC  H14A 6383   1.188   5.238  11.274 -4.2816  2.6949  0.5042
   73SLPC  H14B 6384   1.201   5.113  11.163  1.8158  0.7856  3.1943
   73SLPC  H14C 6385   1.278   5.268  11.131  0.7619 -0.3512  0.8503
   73SLPC   C15 6386   1.073   5.432  11.111 -0.0796 -0.6530  1.0120
   73SLPC  H15A 6387   0.975   5.468  11.084  0.2426 -0.5617 -0.0404
   73SLPC  H15B 6388   1.102   5.477  11.205  2.5519  2.9474 -1.3912
   73SLPC  H15C 6389   1.142   5.472  11.039  0.0571 -1.4933  0.6771
   73SLPC   C12 6390   1.085   5.250  10.955 -0.3555  0.3730  0.3939
   73SLPC  H12A 6391   0.996   5.285  10.905 -0.7157 -1.2496 -0.1261
   73SLPC  H12B 6392   1.083   5.142  10.946  4.1568  0.1772  0.7425
   73SLPC   C11 6393   1.213   5.306  10.889 -0.3312 -0.2237  0.4034
   73SLPC  H11A 6394   1.228   5.264  10.787 -2.4274  0.8617 -0.3766
   73SLPC  H11B 6395   1.305   5.290  10.950 -0.6857  1.1010  1.2803
   73SLPC     P 6396   1.291   5.536  10.788  0.0066  0.1640  0.0908
   73SLPC   O13 6397   1.275   5.678  10.830  0.5400  0.7149  0.2108
   73SLPC   O14 6398   1.425   5.474  10.799 -0.3085  0.6534 -0.1183
   73SLPC   O12 6399   1.186   5.449  10.875 -0.8161 -0.0214  0.2351
   73SLPC   O11 6400   1.233   5.514  10.636 -0.1575  0.0197  0.2129
   73SLPC    C1 6401   1.099   5.481  10.620 -0.4207  0.4617 -0.6530
   73SLPC    HA 6402   1.068   5.397  10.685  4.0604  0.7448  2.0534
   73SLPC    HB 6403   1.028   5.564  10.643 -0.7301  0.9707 -3.2465
   73SLPC    C2 6404   1.065   5.434  10.475 -0.3578  0.2805  0.2517
   73SLPC    HS 6405   1.105   5.509  10.404  0.5106 -0.1561  0.2735
   73SLPC   O21 6406   0.924   5.421  10.466  0.4865 -0.4808 -0.1390
   73SLPC   C21 6407   0.870   5.442  10.345  0.5889  0.5217 -0.2908
   73SLPC   O22 6408   0.940   5.459  10.246  0.2989 -0.6340  0.0053
   73SLPC   C22 6409   0.720   5.419  10.357  0.1803 -0.3352 -0.8037
   73SLPC   H2R 6410   0.696   5.310  10.355 -2.8587  0.1646  2.9708
   73SLPC   H2S 6411   0.692   5.457  10.458  1.3009  1.9616 -1.3247
   73SLPC    C3 6412   1.139   5.305  10.445  0.5713  0.1557  0.0360
   73SLPC    HX 6413   1.107   5.224  10.514  2.0844 -1.1199 -0.7478
   73SLPC    HY 6414   1.246   5.309  10.472 -0.0501  0.2837  2.6639
   73SLPC   O31 6415   1.108   5.249  10.316  0.3602 -0.2117 -0.6831
   73SLPC   C31 6416   1.182   5.291  10.211 -0.6905  0.7579 -0.7108
   73SLPC   O32 6417   1.266   5.378  10.219 -0.3548 -0.0879  0.2095
   73SLPC   C32 6418   1.136   5.227  10.081 -0.0279 -0.7457 -0.2819
   73SLPC   H2X 6419   1.035   5.268  10.061 -0.2711 -1.6808 -1.0270
   73SLPC   H2Y 6420   1.136   5.116  10.085  2.0637 -0.7548  0.2119
   73SLPC   C23 6421   0.649   5.483  10.235  0.6676  0.1348 -0.0709
   73SLPC   H3R 6422   0.692   5.431  10.146  0.3356 -1.0393  0.4385
   73SLPC   H3S 6423   0.669   5.592  10.231 -0.6226  0.3616 -0.5654
   73SLPC   C24 6424   0.506   5.481  10.236 -0.3534 -0.0409 -0.5841
   73SLPC   H4R 6425   0.457   5.503  10.334 -1.0797  2.8513 -1.5422
   73SLPC   H4S 6426   0.463   5.387  10.195  0.3190  0.6399 -2.8825
   73SLPC   C25 6427   0.441   5.594  10.149  0.0142  0.1511  0.4311
   73SLPC   H5R 6428   0.442   5.690  10.205 -0.1374 -0.8638  2.2152
   73SLPC   H5S 6429   0.333   5.570  10.144 -0.0507  0.6978 -1.0589
   73SLPC   C26 6430   0.499   5.605  10.003 -0.6246 -0.7155 -0.3076
   73SLPC   H6R 6431   0.480   5.504   9.962 -2.3445 -0.4785 -0.1554
   73SLPC   H6S 6432   0.607   5.625  10.017 -1.0995  0.9856  1.2149
   73SLPC   C27 6433   0.427   5.717   9.923 -0.3515 -0.1593  0.1555
   73SLPC   H7R 6434   0.446   5.815   9.972  1.6519  0.3382 -1.5017
   73SLPC   H7S 6435   0.318   5.701   9.933 -0.1902 -3.1256 -2.1839
   73SLPC   C28 6436   0.463   5.716   9.774  0.2677  0.6520  0.1010
   73SLPC   H8R 6437   0.426   5.622   9.727  1.6487  1.3887 -2.5155
   73SLPC   H8S 6438   0.574   5.715   9.782  0.2772  0.9709 -0.0162
   73SLPC   C29 6439   0.412   5.841   9.704 -0.1324  0.9834 -0.1675
   73SLPC   H9R 6440   0.389   5.928   9.768  0.0058  1.4758 -0.7898
   73SLPC  C210 6441   0.385   5.850   9.575 -0.5068  0.1912 -0.3267
   73SLPC  H10R 6442   0.327   5.939   9.547  1.0970  1.0719 -0.9598
   73SLPC  C211 6443   0.406   5.750   9.470  0.0757  0.1015  0.1403
   73SLPC  H11R 6444   0.492   5.687   9.501 -0.5748 -0.8789 -0.0358
   73SLPC  H11S 6445   0.436   5.800   9.375 -1.4976 -1.1163 -1.0021
   73SLPC  C212 6446   0.282   5.660   9.441  0.1208  0.1722  0.4930
   73SLPC  H12R 6447   0.215   5.620   9.518 -0.4277 -1.0967 -0.6249
   73SLPC  C213 6448   0.237   5.628   9.318 -0.3018 -0.0941 -0.2612
   73SLPC  H13R 6449   0.145   5.567   9.318  0.1004 -0.7083  0.8152
   73SLPC  C214 6450   0.295   5.662   9.183  0.2412 -0.3882  1.0854
   73SLPC  H14R 6451   0.333   5.766   9.183  1.7638 -0.8890  3.9277
   73SLPC  H14S 6452   0.201   5.674   9.126  0.3725 -1.0090  0.7297
   73SLPC  C215 6453   0.396   5.568   9.118 -0.1131 -0.1826 -0.0912
   73SLPC  H15R 6454   0.475   5.547   9.193 -0.0217  2.9433  0.7829
   73SLPC  H15S 6455   0.448   5.621   9.035 -1.2634 -1.6094 -1.7494
   73SLPC  C216 6456   0.330   5.427   9.075  0.2095  0.4494 -0.3845
   73SLPC  H16R 6457   0.234   5.449   9.024  1.1986  1.4201 -1.8770
   73SLPC  H16S 6458   0.322   5.355   9.159  3.2770  1.8570  1.1729
   73SLPC  C217 6459   0.425   5.358   8.978  1.1067  0.1317  0.1290
   73SLPC  H17R 6460   0.503   5.315   9.046  0.2173 -0.4477  0.8009
   73SLPC  H17S 6461   0.468   5.424   8.900  1.3830 -0.0688  0.1112
   73SLPC  C218 6462   0.353   5.250   8.901 -0.0930 -0.1352  0.1383
   73SLPC  H18R 6463   0.253   5.288   8.872  0.0689  3.1134  3.4569
   73SLPC  H18S 6464   0.325   5.161   8.961 -1.1374 -0.2137 -0.4582
   73SLPC  H18T 6465   0.411   5.216   8.813  1.1335  0.1593  0.8099
   73SLPC   C33 6466   1.234   5.259   9.964 -0.7393  0.2318 -0.4734
   73SLPC   H3X 6467   1.317   5.186   9.963 -0.0625  0.9889  0.7256
   73SLPC   H3Y 6468   1.278   5.360   9.975 -0.1133 -0.0882 -0.0610
   73SLPC   C34 6469   1.167   5.241   9.829  0.2245 -0.5998 -0.3958
   73SLPC   H4X 6470   1.239   5.286   9.757  0.3602 -0.0528  0.0781
   73SLPC   H4Y 6471   1.070   5.295   9.832  0.9279  0.6208  1.1518
   73SLPC   C35 6472   1.164   5.092   9.782  0.4883  0.2088  0.0485
   73SLPC   H5X 6473   1.095   5.029   9.842 -1.6324  2.2145 -0.2089
   73SLPC   H5Y 6474   1.268   5.056   9.797  0.1261 -0.3508  1.2899
   73SLPC   C36 6475   1.123   5.078   9.639 -0.8970  0.1845 -0.1441
   73SLPC   H6X 6476   1.021   5.122   9.634 -0.5089  0.9839 -1.3976
   73SLPC   H6Y 6477   1.109   4.969   9.621 -0.8541  0.4396 -1.8411
   73SLPC   C37 6478   1.214   5.130   9.531  0.5774 -0.1372  0.0956
   73SLPC   H7X 6479   1.317   5.109   9.569  1.1695 -0.8768 -1.8752
   73SLPC   H7Y 6480   1.206   5.240   9.525  2.2995 -0.0044 -0.1755
   73SLPC   C38 6481   1.197   5.075   9.386 -0.3156 -0.1209  0.3945
   73SLPC   H8X 6482   1.091   5.081   9.354 -0.4273 -0.8043  0.6106
   73SLPC   H8Y 6483   1.217   4.965   9.388 -2.5698 -0.6083 -1.7598
   73SLPC   C39 6484   1.267   5.148   9.279  0.2184 -0.1108  0.2952
   73SLPC   H9X 6485   1.258   5.094   9.183 -0.3246 -1.0194  0.8419
   73SLPC   H9Y 6486   1.376   5.144   9.301  0.1221 -2.0819  0.5552
   73SLPC  C310 6487   1.209   5.287   9.257  0.7914  0.3666 -0.4965
   73SLPC  H10X 6488   1.242   5.349   9.343  2.2263  0.8309 -1.3650
   73SLPC  H10Y 6489   1.099   5.293   9.242  0.6927 -0.3345 -0.0759
   73SLPC  C311 6490   1.272   5.356   9.132  0.7311  0.2550  0.3070
   73SLPC  H11X 6491   1.224   5.316   9.040  1.5452  0.2977 -0.1442
   73SLPC  H11Y 6492   1.383   5.353   9.125  0.8347  3.4312 -0.0096
   73SLPC  C312 6493   1.235   5.500   9.138 -0.3542  0.0751  0.0229
   73SLPC  H12X 6494   1.281   5.552   9.225 -0.0486  0.5297 -0.4029
   73SLPC  H12Y 6495   1.127   5.512   9.161 -0.2295  1.7712 -0.1898
   73SLPC  C313 6496   1.269   5.582   9.009 -0.1951  0.5479 -0.1353
   73SLPC  H13X 6497   1.377   5.558   8.994 -0.4138 -0.7675  0.3652
   73SLPC  H13Y 6498   1.261   5.692   9.022  1.7887  0.7193 -0.0883
   73SLPC  C314 6499   1.200   5.544   8.875 -0.0495  0.4732  0.6576
   73SLPC  H14X 6500   1.090   5.551   8.886 -0.2090 -1.3979  0.3717
   73SLPC  H14Y 6501   1.217   5.435   8.859 -1.7843 -0.0051  1.8781
   73SLPC  C315 6502   1.256   5.624   8.753  0.2758  0.3592 -0.8376
   73SLPC  H15X 6503   1.367   5.624   8.752  0.2971 -0.7587  0.1669
   73SLPC  H15Y 6504   1.223   5.729   8.770 -2.6986 -0.3976 -1.7834
   73SLPC  C316 6505   1.186   5.586   8.623 -0.0395 -0.0233 -0.3977
   73SLPC  H16X 6506   1.077   5.582   8.644  0.1905 -0.0549  0.8311
   73SLPC  H16Y 6507   1.221   5.486   8.592 -0.4139 -0.3638  0.2606
   73SLPC  C317 6508   1.200   5.684   8.510  0.3409 -0.3878 -1.4463
   73SLPC  H17X 6509   1.165   5.635   8.416 -2.1235  1.8009 -1.7298
   73SLPC  H17Y 6510   1.307   5.711   8.496  0.5352 -1.2232 -1.6326
   73SLPC  C318 6511   1.124   5.817   8.527  0.1332 -0.1389  0.0075
   73SLPC  H18X 6512   1.178   5.872   8.607  0.3449  0.5225 -0.5859
   73SLPC  H18Y 6513   1.017   5.804   8.556 -0.0489 -3.6742 -1.9273
   73SLPC  H18Z 6514   1.114   5.875   8.432  0.3621  0.0182  0.0804
   74SLPC     N 6515   2.091   6.488  10.783  1.1816  0.2876  0.6104
   74SLPC   C13 6516   2.107   6.585  10.904  0.1098  0.1692 -0.1285
   74SLPC  H13A 6517   2.067   6.536  10.992 -0.6257  1.3917  0.2346
   74SLPC  H13B 6518   2.209   6.614  10.922  0.6535 -0.9083 -1.3856
   74SLPC  H13C 6519   2.049   6.675  10.896  0.5242  0.5405  0.9439
   74SLPC   C14 6520   1.940   6.464  10.759 -0.7350  0.2300  0.1426
   74SLPC  H14A 6521   1.899   6.555  10.717  2.3280  1.1127 -1.0795
   74SLPC  H14B 6522   1.924   6.381  10.691 -2.2735 -1.6118  2.6438
   74SLPC  H14C 6523   1.902   6.442  10.858  2.0730 -1.0198  0.9885
   74SLPC   C15 6524   2.157   6.357  10.819  0.1545  0.3662  0.0881
   74SLPC  H15A 6525   2.135   6.332  10.922 -0.6482 -1.2661 -0.4631
   74SLPC  H15B 6526   2.137   6.270  10.758 -0.4937 -1.5082  2.8547
   74SLPC  H15C 6527   2.263   6.377  10.826  0.5310 -0.9882 -1.4224
   74SLPC   C12 6528   2.161   6.542  10.658  0.2768  0.2045  0.1455
   74SLPC  H12A 6529   2.157   6.480  10.569 -0.8343  0.4931 -0.0173
   74SLPC  H12B 6530   2.263   6.555  10.690  0.0239  3.6586 -0.2727
   74SLPC   C11 6531   2.102   6.677  10.603  1.2257 -0.3795  0.6293
   74SLPC  H11A 6532   2.167   6.703  10.517 -1.9440  0.1609 -1.6977
   74SLPC  H11B 6533   2.101   6.750  10.687 -0.0193  2.0298 -1.3654
   74SLPC     P 6534   1.868   6.761  10.528  0.0076  0.3069 -0.5883
   74SLPC   O13 6535   1.779   6.721  10.418  0.1797  0.0811 -0.7320
   74SLPC   O14 6536   1.807   6.804  10.653 -0.0783  0.0221 -0.2627
   74SLPC   O12 6537   1.966   6.652  10.555 -0.1630 -0.2822 -0.1913
   74SLPC   O11 6538   1.963   6.876  10.475 -0.0386  0.4718 -0.3172
   74SLPC    C1 6539   2.004   6.866  10.332 -0.7787  0.1517  0.4572
   74SLPC    HA 6540   2.103   6.914  10.323 -1.4474  1.2579 -1.1403
   74SLPC    HB 6541   2.012   6.759  10.303 -0.1436 -0.0492  1.3664
   74SLPC    C2 6542   1.914   6.948  10.237 -0.6832 -0.0166  0.2852
   74SLPC    HS 6543   1.827   6.883  10.213 -0.5884  0.1911 -0.6484
   74SLPC   O21 6544   1.985   6.961  10.112  0.6001 -0.2391 -0.4589
   74SLPC   C21 6545   1.997   6.847  10.043  0.0518  1.0245  0.1560
   74SLPC   O22 6546   1.991   6.732  10.081  0.3926 -0.3132 -0.2792
   74SLPC   C22 6547   2.017   6.895   9.896 -0.0198  0.3571  0.2020
   74SLPC   H2R 6548   1.946   6.979   9.883  1.1668  1.3063 -0.2786
   74SLPC   H2S 6549   2.122   6.922   9.875 -0.2607 -0.6478 -2.4292
   74SLPC    C3 6550   1.861   7.087  10.293  0.1932  0.5965 -0.1044
   74SLPC    HX 6551   1.942   7.133  10.353  1.4207 -0.5992 -0.8119
   74SLPC    HY 6552   1.777   7.071  10.364  1.2913  0.3427  1.1567
   74SLPC   O31 6553   1.822   7.170  10.181 -0.3424  0.0246 -0.1872
   74SLPC   C31 6554   1.715   7.127  10.112 -0.1975 -0.2570 -0.4869
   74SLPC   O32 6555   1.639   7.036  10.147  0.0802  0.4417 -0.2710
   74SLPC   C32 6556   1.714   7.196   9.972  0.5152 -0.1784  0.5788
   74SLPC   H2X 6557   1.820   7.175   9.947 -0.1241 -1.9815 -0.6634
   74SLPC   H2Y 6558   1.691   7.305   9.979 -1.9110 -0.5854 -0.4671
   74SLPC   C23 6559   1.989   6.801   9.780 -0.1039  0.5109  0.5846
   74SLPC   H3R 6560   1.883   6.797   9.748  0.1307  0.0102 -0.1426
   74SLPC   H3S 6561   2.013   6.695   9.803 -1.6281 -0.7327 -3.2614
   74SLPC   C24 6562   2.058   6.823   9.645  0.5501  0.4918 -0.3402
   74SLPC   H4R 6563   2.168   6.824   9.658  0.2959 -1.0627  2.2640
   74SLPC   H4S 6564   2.033   6.924   9.604 -1.0974  0.6611  1.0343
   74SLPC   C25 6565   2.040   6.710   9.538 -0.0084 -0.3291  0.4103
   74SLPC   H5R 6566   1.934   6.699   9.505 -0.5039 -1.8815  2.4035
   74SLPC   H5S 6567   2.064   6.610   9.580 -0.9851 -0.3714  0.8768
   74SLPC   C26 6568   2.120   6.734   9.403  0.2415 -0.3878 -0.2452
   74SLPC   H6R 6569   2.230   6.732   9.417  0.2641  1.0823 -0.1342
   74SLPC   H6S 6570   2.088   6.826   9.348  1.7921 -0.0478 -0.6001
   74SLPC   C27 6571   2.081   6.634   9.291  0.7838  0.0241 -0.1531
   74SLPC   H7R 6572   1.972   6.617   9.301  0.5649  0.7306 -1.3058
   74SLPC   H7S 6573   2.133   6.540   9.321  1.8810  0.2551 -1.3204
   74SLPC   C28 6574   2.100   6.680   9.146 -0.7707 -0.3514 -0.1650
   74SLPC   H8R 6575   2.041   6.773   9.134 -0.9786 -0.4114  0.3523
   74SLPC   H8S 6576   2.052   6.611   9.073  0.8178 -0.2517 -1.3292
   74SLPC   C29 6577   2.239   6.712   9.118 -0.0253  0.3044  0.3744
   74SLPC   H9R 6578   2.297   6.748   9.204 -2.8886  1.6667  1.8031
   74SLPC  C210 6579   2.296   6.726   8.997  0.0481  0.1719 -0.2420
   74SLPC  H10R 6580   2.401   6.760   8.993 -0.0122  0.5994  1.6841
   74SLPC  C211 6581   2.219   6.699   8.869 -0.2191 -0.4405 -0.0457
   74SLPC  H11R 6582   2.144   6.780   8.860  2.8560  2.2970 -2.1760
   74SLPC  H11S 6583   2.151   6.613   8.890  2.6713 -1.9445  3.7517
   74SLPC  C212 6584   2.303   6.672   8.745  0.5509 -0.3563 -0.0988
   74SLPC  H12R 6585   2.351   6.573   8.738 -0.1983 -0.7840  0.6643
   74SLPC  C213 6586   2.328   6.758   8.648  0.4811 -0.2213  0.1827
   74SLPC  H13R 6587   2.393   6.730   8.563  0.9190 -4.4336  1.7783
   74SLPC  C214 6588   2.277   6.901   8.659  0.3403 -0.1387  0.7994
   74SLPC  H14R 6589   2.361   6.973   8.656  0.3806 -0.0988  2.2387
   74SLPC  H14S 6590   2.226   6.921   8.756 -2.3564  1.5627 -0.9380
   74SLPC  C215 6591   2.180   6.929   8.549 -0.1032  0.8204 -0.4669
   74SLPC  H15R 6592   2.106   6.846   8.542 -1.4739  1.7272  2.1530
   74SLPC  H15S 6593   2.241   6.914   8.458 -0.0352 -0.8462 -0.1730
   74SLPC  C216 6594   2.108   7.059   8.546 -0.5067 -0.3079 -0.3421
   74SLPC  H16R 6595   2.184   7.125   8.593 -0.1817 -0.2728 -0.9086
   74SLPC  H16S 6596   2.012   7.043   8.600 -0.6772 -0.0012 -0.5602
   74SLPC  C217 6597   2.077   7.104   8.409  0.1841 -0.0338 -0.1212
   74SLPC  H17R 6598   1.991   7.052   8.362 -0.3889  1.9375 -1.3219
   74SLPC  H17S 6599   2.165   7.084   8.344  0.4468  1.1966 -0.1422
   74SLPC  C218 6600   2.050   7.248   8.397 -0.4897 -0.6776 -0.2004
   74SLPC  H18R 6601   2.131   7.308   8.443 -0.9055 -0.1384 -0.1724
   74SLPC  H18S 6602   1.960   7.276   8.457  0.4075  1.3369  0.2401
   74SLPC  H18T 6603   2.034   7.273   8.290 -2.3064  1.6166  0.5587
   74SLPC   C33 6604   1.614   7.140   9.870 -0.0351 -0.3007  0.4587
   74SLPC   H3X 6605   1.508   7.165   9.887 -0.1501 -0.9596  0.7170
   74SLPC   H3Y 6606   1.621   7.029   9.872  0.2102 -0.3179 -0.6742
   74SLPC   C34 6607   1.639   7.197   9.725 -0.8465 -0.0276  0.2059
   74SLPC   H4X 6608   1.672   7.303   9.731  1.7444 -0.9239  3.5974
   74SLPC   H4Y 6609   1.546   7.184   9.665 -1.1688  0.0112  0.6956
   74SLPC   C35 6610   1.750   7.123   9.659  0.3682  0.3513 -0.5226
   74SLPC   H5X 6611   1.724   7.016   9.671  0.3673  0.4784  0.6000
   74SLPC   H5Y 6612   1.844   7.138   9.716 -0.4616  0.1490  0.9114
   74SLPC   C36 6613   1.759   7.179   9.517  1.0082 -0.3689  0.1676
   74SLPC   H6X 6614   1.784   7.287   9.512  0.6780 -0.3179 -0.5265
   74SLPC   H6Y 6615   1.668   7.159   9.457  0.0358 -1.0137  1.8334
   74SLPC   C37 6616   1.857   7.101   9.423  0.7435  0.0680  0.4042
   74SLPC   H7X 6617   1.826   6.994   9.417  0.0987  0.1458  1.9658
   74SLPC   H7Y 6618   1.961   7.098   9.462  0.1772  0.3341  1.9950
   74SLPC   C38 6619   1.876   7.160   9.284 -0.3092 -0.8671 -0.2185
   74SLPC   H8X 6620   1.947   7.245   9.280  1.8542 -2.5832  0.5768
   74SLPC   H8Y 6621   1.782   7.207   9.246  1.7120  1.1812 -2.9637
   74SLPC   C39 6622   1.936   7.057   9.185 -0.2535  0.4493  0.3419
   74SLPC   H9X 6623   1.863   6.973   9.184  2.0694 -1.6423  0.1865
   74SLPC   H9Y 6624   2.037   7.018   9.210 -0.6799 -0.6066  0.4378
   74SLPC  C310 6625   1.939   7.106   9.043  0.5349 -0.2585 -0.6393
   74SLPC  H10X 6626   1.842   7.149   9.009  0.9053  0.7914 -0.3953
   74SLPC  H10Y 6627   1.950   7.017   8.978  0.8612 -0.2432 -0.6036
   74SLPC  C311 6628   2.051   7.204   9.016 -0.4880 -0.5214 -0.0235
   74SLPC  H11X 6629   2.137   7.167   9.076 -0.4597 -3.0528 -1.5359
   74SLPC  H11Y 6630   2.023   7.310   9.034  0.8006 -0.1029 -0.3670
   74SLPC  C312 6631   2.108   7.202   8.873 -0.4980  0.5628  0.4312
   74SLPC  H12X 6632   2.031   7.250   8.809 -0.2129  1.3846  0.7036
   74SLPC  H12Y 6633   2.141   7.100   8.844 -0.7059 -0.2805  3.0450
   74SLPC  C313 6634   2.238   7.289   8.855  0.0943 -0.5464  0.5118
   74SLPC  H13X 6635   2.249   7.281   8.744  0.4151 -0.3459  0.5291
   74SLPC  H13Y 6636   2.329   7.233   8.887  1.5859  1.1347 -0.6589
   74SLPC  C314 6637   2.236   7.432   8.898  0.0095  1.0063 -0.1555
   74SLPC  H14X 6638   2.218   7.442   9.008  2.4542  2.1325  0.1755
   74SLPC  H14Y 6639   2.151   7.487   8.853 -0.4272 -0.5896 -1.2917
   74SLPC  C315 6640   2.361   7.518   8.877 -0.4266  0.2854  0.5872
   74SLPC  H15X 6641   2.437   7.462   8.935  0.1572 -1.4931 -1.8120
   74SLPC  H15Y 6642   2.339   7.617   8.923 -3.1280  1.1554 -2.3420
   74SLPC  C316 6643   2.405   7.539   8.735  0.0103  0.4387  0.0412
   74SLPC  H16X 6644   2.320   7.563   8.669 -0.2719  3.5944  1.4518
   74SLPC  H16Y 6645   2.437   7.439   8.700 -0.9861  0.3334 -0.5587
   74SLPC  C317 6646   2.507   7.653   8.728  0.1081  0.4314 -0.4228
   74SLPC  H17X 6647   2.598   7.614   8.779 -1.6635 -4.2712 -0.5899
   74SLPC  H17Y 6648   2.462   7.727   8.799  1.5587  0.7817  0.1409
   74SLPC  C318 6649   2.528   7.724   8.598 -0.5287  0.5382  0.8516
   74SLPC  H18X 6650   2.542   7.834   8.607  3.0347  0.3772 -1.6404
   74SLPC  H18Y 6651   2.435   7.716   8.539 -0.2002  1.1996  0.2378
   74SLPC  H18Z 6652   2.620   7.698   8.542 -0.5523  0.6355  0.7679
   75SLPC     N 6653   6.207   3.179   6.153 -0.6710  0.3174 -0.0620
   75SLPC   C13 6654   6.174   3.031   6.167  0.0179  0.3001  0.0813
   75SLPC  H13A 6655   6.251   2.979   6.223  1.3401 -0.5116 -2.4111
   75SLPC  H13B 6656   6.077   3.017   6.213 -0.0420 -0.9568 -0.4279
   75SLPC  H13C 6657   6.170   2.987   6.069 -1.1788 -0.1578  0.3339
   75SLPC   C14 6658   6.099   3.271   6.188  0.2142 -0.1078 -0.9733
   75SLPC  H14A 6659   6.132   3.372   6.169  1.0082 -0.2159 -0.2143
   75SLPC  H14B 6660   6.017   3.256   6.119  0.8821 -0.3927 -1.7112
   75SLPC  H14C 6661   6.061   3.264   6.289  2.5475 -0.7788 -0.1210
   75SLPC   C15 6662   6.231   3.188   5.999  0.1467 -0.3144 -0.3294
   75SLPC  H15A 6663   6.317   3.128   5.972  0.8276  0.6454 -0.3383
   75SLPC  H15B 6664   6.148   3.147   5.944 -0.3864  0.2055  0.0678
   75SLPC  H15C 6665   6.245   3.291   5.970  1.9091 -0.7724 -1.1401
   75SLPC   C12 6666   6.344   3.211   6.224 -0.8205  0.3104 -0.1455
   75SLPC  H12A 6667   6.382   3.305   6.187  2.3648 -0.3290  1.2964
   75SLPC  H12B 6668   6.418   3.137   6.200  0.0429 -0.1230  3.4914
   75SLPC   C11 6669   6.330   3.226   6.379 -0.5872  0.0460  0.4661
   75SLPC  H11A 6670   6.283   3.326   6.392 -0.6209  0.4239 -2.2686
   75SLPC  H11B 6671   6.433   3.246   6.416  0.0028  0.6120 -1.4534
   75SLPC     P 6672   6.323   3.003   6.496 -0.0520  0.0935  0.2982
   75SLPC   O13 6673   6.220   2.920   6.562 -0.3326 -0.0780 -0.0210
   75SLPC   O14 6674   6.396   2.946   6.385  0.0609  0.1595 -0.4224
   75SLPC   O12 6675   6.253   3.129   6.440 -0.5651 -0.1689  0.1470
   75SLPC   O11 6676   6.426   3.059   6.605  0.2026 -0.2977  0.1407
   75SLPC    C1 6677   6.390   3.174   6.677 -0.3136  0.4042  0.2178
   75SLPC    HA 6678   6.461   3.259   6.666 -1.7067  1.2538 -2.6797
   75SLPC    HB 6679   6.289   3.218   6.662 -0.2999 -0.2316 -1.7846
   75SLPC    C2 6680   6.397   3.149   6.831 -0.4556  0.1298 -0.7757
   75SLPC    HS 6681   6.458   3.226   6.882 -2.0456  0.8329  0.1011
   75SLPC   O21 6682   6.440   3.017   6.868 -0.5081  0.7580  0.2133
   75SLPC   C21 6683   6.574   3.008   6.869  0.0964  0.2278  0.3205
   75SLPC   O22 6684   6.649   3.096   6.846 -0.3941 -0.3451  0.1357
   75SLPC   C22 6685   6.623   2.860   6.895 -1.2438 -0.6839  0.2774
   75SLPC   H2R 6686   6.542   2.786   6.877 -0.8370 -1.0966  0.1392
   75SLPC   H2S 6687   6.695   2.842   6.813 -0.3560  0.0950  0.8723
   75SLPC    C3 6688   6.258   3.161   6.898 -0.2299 -0.6883  0.1458
   75SLPC    HX 6689   6.194   3.097   6.833  1.0508  0.8579 -2.7331
   75SLPC    HY 6690   6.225   3.267   6.889 -2.3310 -1.4499 -1.4979
   75SLPC   O31 6691   6.258   3.132   7.038 -0.1907  1.3448  0.1809
   75SLPC   C31 6692   6.184   3.031   7.077  0.1066 -0.1995  0.2601
   75SLPC   O32 6693   6.117   2.956   7.008  0.0621  0.1837 -0.3977
   75SLPC   C32 6694   6.187   3.010   7.232 -0.0721  0.0080  0.8147
   75SLPC   H2X 6695   6.139   3.106   7.262 -0.8664  0.0158 -0.4303
   75SLPC   H2Y 6696   6.294   3.024   7.258 -0.0618 -1.6930  1.7276
   75SLPC   C23 6697   6.703   2.846   7.026  0.1272  0.7572 -0.0998
   75SLPC   H3R 6698   6.771   2.930   7.050  0.5772 -0.0457  1.4934
   75SLPC   H3S 6699   6.759   2.750   7.017  1.5416  1.3124  2.3458
   75SLPC   C24 6700   6.602   2.827   7.137 -0.0587  0.2922 -0.2094
   75SLPC   H4R 6701   6.533   2.741   7.124  1.1325 -0.5372 -1.1412
   75SLPC   H4S 6702   6.545   2.921   7.144  1.2580  1.5577 -4.9996
   75SLPC   C25 6703   6.675   2.812   7.277 -0.6830 -0.1657  0.1988
   75SLPC   H5R 6704   6.742   2.898   7.297 -1.0424 -0.1344  1.3511
   75SLPC   H5S 6705   6.740   2.722   7.272 -0.8590 -0.2778 -0.0711
   75SLPC   C26 6706   6.581   2.778   7.391 -0.0639 -0.2407 -0.4987
   75SLPC   H6R 6707   6.498   2.721   7.345 -1.0604  0.2726  0.6415
   75SLPC   H6S 6708   6.539   2.871   7.434  1.3942  0.0888  0.2619
   75SLPC   C27 6709   6.638   2.684   7.499  0.1907  0.5981 -1.1774
   75SLPC   H7R 6710   6.653   2.589   7.445 -0.7853 -0.6979  0.7538
   75SLPC   H7S 6711   6.555   2.674   7.573  1.3393  0.1376  0.0668
   75SLPC   C28 6712   6.770   2.720   7.563 -0.1306  0.1029 -0.0630
   75SLPC   H8R 6713   6.775   2.827   7.595  0.2013  1.0540 -3.1534
   75SLPC   H8S 6714   6.850   2.718   7.486  1.5837  2.3015  1.5806
   75SLPC   C29 6715   6.823   2.624   7.665  0.4460  0.2573  0.2284
   75SLPC   H9R 6716   6.860   2.535   7.613 -1.5644 -0.7802  0.5537
   75SLPC  C210 6717   6.828   2.630   7.802  0.2605  0.8777  0.2222
   75SLPC  H10R 6718   6.873   2.552   7.865 -0.1215  0.6813  0.2516
   75SLPC  C211 6719   6.779   2.745   7.889 -0.1525  0.0577 -0.4545
   75SLPC  H11R 6720   6.734   2.830   7.834  2.0632  2.1850  0.9495
   75SLPC  H11S 6721   6.874   2.794   7.920 -0.6523  0.2448  0.8038
   75SLPC  C212 6722   6.700   2.692   8.007  0.0468 -0.0133  0.4686
   75SLPC  H12R 6723   6.592   2.703   7.989  0.2098  2.1547  0.7184
   75SLPC  C213 6724   6.732   2.626   8.120 -1.0169  0.1072 -0.3425
   75SLPC  H13R 6725   6.650   2.587   8.182 -0.5689 -0.6881 -0.2414
   75SLPC  C214 6726   6.872   2.588   8.160 -0.0965 -1.1529 -0.3093
   75SLPC  H14R 6727   6.942   2.594   8.074  1.0323  2.6474  0.7929
   75SLPC  H14S 6728   6.871   2.479   8.184  2.5808 -1.8522 -3.0815
   75SLPC  C215 6729   6.933   2.662   8.272  0.2258 -0.1550  0.5659
   75SLPC  H15R 6730   6.954   2.769   8.249  0.9597 -0.6515 -1.1647
   75SLPC  H15S 6731   7.035   2.623   8.289  0.5423 -0.6312 -2.2001
   75SLPC  C216 6732   6.850   2.634   8.399 -0.2373  0.1106 -0.0656
   75SLPC  H16R 6733   6.858   2.526   8.423  2.3510 -0.4661 -3.2576
   75SLPC  H16S 6734   6.741   2.650   8.390 -0.2865  0.0910  0.4592
   75SLPC  C217 6735   6.911   2.713   8.517 -0.2120  0.9238  0.1354
   75SLPC  H17R 6736   7.021   2.700   8.524 -0.2605 -0.4785 -1.3743
   75SLPC  H17S 6737   6.876   2.661   8.609  0.3788  1.5864  0.7442
   75SLPC  C218 6738   6.873   2.864   8.514  1.0343  0.6259 -0.0822
   75SLPC  H18R 6739   6.932   2.915   8.593 -0.0412 -1.0334  1.8324
   75SLPC  H18S 6740   6.764   2.874   8.533  1.1898  1.9288  0.1613
   75SLPC  H18T 6741   6.892   2.896   8.409  0.3430  0.6263 -0.2124
   75SLPC   C33 6742   6.127   2.879   7.293  0.9683 -0.3483 -0.0033
   75SLPC   H3X 6743   6.021   2.912   7.291  0.9014 -0.6026 -2.1971
   75SLPC   H3Y 6744   6.156   2.798   7.223 -0.1183  0.1624 -1.0516
   75SLPC   C34 6745   6.165   2.846   7.438  0.1618  0.1420 -0.2628
   75SLPC   H4X 6746   6.273   2.864   7.451 -0.0579  0.7737  0.7596
   75SLPC   H4Y 6747   6.128   2.743   7.457 -3.6595  1.5963  0.8378
   75SLPC   C35 6748   6.091   2.931   7.541  0.4498  0.1609  0.0733
   75SLPC   H5X 6749   5.984   2.931   7.513  0.5150  0.0622 -0.1752
   75SLPC   H5Y 6750   6.116   3.039   7.534  2.0406 -0.2659 -1.1878
   75SLPC   C36 6751   6.098   2.883   7.683 -0.6332 -0.4043 -0.5072
   75SLPC   H6X 6752   6.205   2.885   7.714 -1.0679  0.1726  1.0137
   75SLPC   H6Y 6753   6.066   2.777   7.680 -1.1573 -0.2902  0.8001
   75SLPC   C37 6754   6.013   2.963   7.779  0.3577  0.5488 -0.5812
   75SLPC   H7X 6755   5.926   3.010   7.729 -1.5081  0.5870  2.5507
   75SLPC   H7Y 6756   6.081   3.040   7.824  1.1022  0.6476 -1.8650
   75SLPC   C38 6757   5.959   2.883   7.899  0.5486 -0.0431  0.1375
   75SLPC   H8X 6758   6.045   2.860   7.965 -0.6080  1.6227  2.2730
   75SLPC   H8Y 6759   5.918   2.783   7.873 -2.0387  0.8154  0.7944
   75SLPC   C39 6760   5.870   2.970   7.986  0.1707 -0.2089 -0.3191
   75SLPC   H9X 6761   5.785   3.013   7.929 -1.4199  0.1545  2.2530
   75SLPC   H9Y 6762   5.919   3.062   8.024 -0.3056  0.5754 -1.5820
   75SLPC  C310 6763   5.813   2.900   8.116 -0.4251  0.0987 -0.0326
   75SLPC  H10X 6764   5.890   2.897   8.196  0.0487 -1.2687 -0.5464
   75SLPC  H10Y 6765   5.790   2.792   8.102  0.1389  0.2415 -2.2185
   75SLPC  C311 6766   5.696   2.976   8.182 -0.1559 -0.6578 -0.2538
   75SLPC  H11X 6767   5.625   2.998   8.100  0.7289  0.4871 -0.7400
   75SLPC  H11Y 6768   5.714   3.080   8.218  1.1550 -0.0706 -2.5162
   75SLPC  C312 6769   5.618   2.892   8.283  0.0058 -0.8218 -1.0049
   75SLPC  H12X 6770   5.612   2.789   8.241  1.9304 -1.0563 -0.7817
   75SLPC  H12Y 6771   5.521   2.944   8.297  0.4656  0.0626 -1.1294
   75SLPC  C313 6772   5.687   2.889   8.428  0.0324  0.1062  0.3822
   75SLPC  H13X 6773   5.744   2.983   8.443 -0.0558  0.2942 -0.4382
   75SLPC  H13Y 6774   5.754   2.800   8.431  0.0358  0.0868 -0.2300
   75SLPC  C314 6775   5.574   2.869   8.540 -0.0165 -0.8959  0.2589
   75SLPC  H14X 6776   5.497   2.789   8.538 -0.8550 -0.1032  0.3646
   75SLPC  H14Y 6777   5.522   2.968   8.537  0.3515 -0.6400  1.8275
   75SLPC  C315 6778   5.627   2.863   8.681  0.1450 -0.1781  0.8055
   75SLPC  H15X 6779   5.542   2.891   8.748 -0.3238 -0.7969  0.4799
   75SLPC  H15Y 6780   5.715   2.926   8.705 -0.0989  1.0151 -1.3254
   75SLPC  C316 6781   5.657   2.719   8.725 -0.4026  0.1323  0.0987
   75SLPC  H16X 6782   5.562   2.669   8.752 -0.2687 -0.2906 -0.2039
   75SLPC  H16Y 6783   5.720   2.718   8.817  0.2467 -1.0189 -0.3431
   75SLPC  C317 6784   5.744   2.630   8.635 -0.4255  0.2406 -0.0905
   75SLPC  H17X 6785   5.704   2.618   8.532 -2.0420  0.1955  0.5258
   75SLPC  H17Y 6786   5.744   2.529   8.680  1.0834 -0.4654 -1.6142
   75SLPC  C318 6787   5.890   2.674   8.622 -0.2865  0.1046  0.9076
   75SLPC  H18X 6788   5.896   2.762   8.554 -1.9240  0.5010  1.2582
   75SLPC  H18Y 6789   5.937   2.586   8.573 -0.6752  1.2703 -1.6278
   75SLPC  H18Z 6790   5.927   2.700   8.724  1.5459  0.4735  0.1751
   76SLPC     N 6791   1.830   1.929   6.041  0.3257 -0.1272 -0.2763
   76SLPC   C13 6792   1.949   1.885   5.969 -0.2298  0.0453  0.2841
   76SLPC  H13A 6793   2.029   1.917   6.035  1.5262  0.3817 -1.9549
   76SLPC  H13B 6794   1.947   1.778   5.954  1.0217  0.1486 -0.6370
   76SLPC  H13C 6795   1.966   1.922   5.869 -0.8889  1.6183  0.7369
   76SLPC   C14 6796   1.700   1.900   5.967  0.2623  0.2829  0.4184
   76SLPC  H14A 6797   1.617   1.947   6.017 -1.3979 -0.3022 -1.7036
   76SLPC  H14B 6798   1.708   1.927   5.862 -2.5705 -0.4391 -0.0221
   76SLPC  H14C 6799   1.675   1.795   5.969  0.2427  0.2910  0.5842
   76SLPC   C15 6800   1.839   2.074   6.053  0.3074 -0.4166  0.8427
   76SLPC  H15A 6801   1.904   2.092   6.137  1.2351 -0.5454  0.1621
   76SLPC  H15B 6802   1.877   2.125   5.966 -2.2127  0.3929  0.1573
   76SLPC  H15C 6803   1.741   2.116   6.072 -0.7592 -2.5725  0.3124
   76SLPC   C12 6804   1.809   1.865   6.174 -0.8658  0.3573  0.4173
   76SLPC  H12A 6805   1.775   1.764   6.157  1.4233 -0.8927  2.9008
   76SLPC  H12B 6806   1.723   1.909   6.224  0.2051  0.7165  1.9877
   76SLPC   C11 6807   1.927   1.859   6.273  0.5122  0.4999 -0.3664
   76SLPC  H11A 6808   1.888   1.815   6.367 -0.0475  0.4360 -0.6251
   76SLPC  H11B 6809   1.961   1.960   6.302  0.6194  0.5563 -0.6799
   76SLPC     P 6810   2.055   1.630   6.224 -0.3107 -0.1345 -0.4386
   76SLPC   O13 6811   1.931   1.559   6.186  0.2131  0.1486  0.0652
   76SLPC   O14 6812   2.176   1.600   6.147  0.3672 -0.3464  0.1496
   76SLPC   O12 6813   2.039   1.786   6.214 -0.1763 -0.1175 -0.3239
   76SLPC   O11 6814   2.084   1.604   6.375 -0.6418  0.3631  0.2805
   76SLPC    C1 6815   2.219   1.630   6.435 -0.2602 -0.1755  0.4311
   76SLPC    HA 6816   2.282   1.546   6.401 -0.2747 -0.2227  0.5209
   76SLPC    HB 6817   2.265   1.725   6.400  0.3330 -0.2340  1.0562
   76SLPC    C2 6818   2.212   1.649   6.590 -0.1454 -0.4689  0.1624
   76SLPC    HS 6819   2.313   1.682   6.621 -0.6430  0.7558  0.5013
   76SLPC   O21 6820   2.182   1.517   6.646  1.0084 -0.0566 -0.1085
   76SLPC   C21 6821   2.276   1.430   6.652  0.7371  0.2470 -0.9896
   76SLPC   O22 6822   2.388   1.441   6.599  0.1816 -0.1066 -0.7040
   76SLPC   C22 6823   2.230   1.308   6.727 -0.2359  0.5704  0.1517
   76SLPC   H2R 6824   2.133   1.325   6.779  0.5685  0.1999  1.8185
   76SLPC   H2S 6825   2.220   1.218   6.663  2.4875  1.2998 -1.3722
   76SLPC    C3 6826   2.100   1.751   6.633 -0.0340 -0.5460  0.7696
   76SLPC    HX 6827   2.000   1.735   6.588  0.3510 -0.6040 -0.0584
   76SLPC    HY 6828   2.126   1.854   6.601 -0.8203 -0.1059  1.5106
   76SLPC   O31 6829   2.096   1.754   6.773  0.1139  0.2180 -0.0451
   76SLPC   C31 6830   2.013   1.673   6.836 -0.2438 -0.0058 -0.6540
   76SLPC   O32 6831   1.935   1.594   6.783  0.2580 -0.3131 -0.5422
   76SLPC   C32 6832   2.021   1.700   6.986 -0.1452 -0.0672  0.4684
   76SLPC   H2X 6833   1.957   1.789   7.006 -1.9446 -0.9959 -0.9736
   76SLPC   H2Y 6834   2.127   1.724   7.006 -0.3355  0.3617  0.9927
   76SLPC   C23 6835   2.335   1.291   6.835 -0.4258 -0.3967 -0.2595
   76SLPC   H3R 6836   2.440   1.278   6.801 -0.4572  0.1516 -0.5650
   76SLPC   H3S 6837   2.307   1.198   6.889  0.2557  0.5339  1.7539
   76SLPC   C24 6838   2.333   1.407   6.934  0.1693 -0.0831 -0.3002
   76SLPC   H4R 6839   2.230   1.443   6.956 -0.0515 -0.5659 -0.5234
   76SLPC   H4S 6840   2.383   1.484   6.872  0.5392 -0.1673 -0.1101
   76SLPC   C25 6841   2.415   1.377   7.059 -0.9110  0.0514 -0.3896
   76SLPC   H5R 6842   2.524   1.368   7.037 -0.4385  0.3403  1.6613
   76SLPC   H5S 6843   2.378   1.282   7.103 -1.3584 -0.8736 -2.7089
   76SLPC   C26 6844   2.390   1.485   7.166  0.7082 -0.4368 -0.2325
   76SLPC   H6R 6845   2.458   1.477   7.253 -1.7517  0.8353  1.8672
   76SLPC   H6S 6846   2.284   1.474   7.197  0.5560  0.7644 -0.3178
   76SLPC   C27 6847   2.415   1.632   7.110  0.4533  0.2234 -0.0063
   76SLPC   H7R 6848   2.314   1.662   7.074  0.7862  0.2916 -0.9014
   76SLPC   H7S 6849   2.481   1.628   7.020  2.6255 -2.1783  1.6288
   76SLPC   C28 6850   2.476   1.718   7.215 -0.0515  0.4770  0.4424
   76SLPC   H8R 6851   2.569   1.666   7.247 -0.7897 -1.8401 -1.0773
   76SLPC   H8S 6852   2.500   1.816   7.170 -0.2929  0.9598  1.3550
   76SLPC   C29 6853   2.382   1.756   7.322 -0.1578  0.1905 -0.5190
   76SLPC   H9R 6854   2.275   1.742   7.299 -0.4539  0.1006  0.8409
   76SLPC  C210 6855   2.416   1.825   7.436  0.1080  0.2733  0.2218
   76SLPC  H10R 6856   2.340   1.830   7.515  0.7674 -1.2046  0.9896
   76SLPC  C211 6857   2.563   1.858   7.487  0.2622  0.1424  1.0317
   76SLPC  H11R 6858   2.628   1.835   7.400 -0.4026 -1.7186  1.0097
   76SLPC  H11S 6859   2.588   1.795   7.575  0.3546 -0.7599  0.3627
   76SLPC  C212 6860   2.579   2.007   7.506 -0.1130 -0.2426  0.1022
   76SLPC  H12R 6861   2.665   2.052   7.455 -0.4864 -0.4696 -0.7228
   76SLPC  C213 6862   2.497   2.102   7.560 -0.2277  0.0079  0.1348
   76SLPC  H13R 6863   2.526   2.208   7.563 -0.7191  0.2162 -1.7316
   76SLPC  C214 6864   2.372   2.076   7.638  0.2764 -0.2577  0.6204
   76SLPC  H14R 6865   2.304   2.002   7.591  0.1993  0.1997  0.0000
   76SLPC  H14S 6866   2.310   2.169   7.636  1.8243  0.8189  1.3695
   76SLPC  C215 6867   2.388   2.042   7.784  0.6375  0.7750 -0.9289
   76SLPC  H15R 6868   2.437   2.121   7.844 -1.1665  0.3267  1.2398
   76SLPC  H15S 6869   2.444   1.946   7.792 -1.5127 -0.3006  2.7037
   76SLPC  C216 6870   2.262   2.024   7.863  0.0668 -0.3534 -0.9145
   76SLPC  H16R 6871   2.196   1.955   7.805 -2.1113 -0.4956  1.6634
   76SLPC  H16S 6872   2.206   2.118   7.882  0.2610  0.0962 -2.4416
   76SLPC  C217 6873   2.278   1.943   7.996  0.1332  0.5462 -0.6809
   76SLPC  H17R 6874   2.340   2.017   8.051  2.8450 -1.4011 -0.9781
   76SLPC  H17S 6875   2.337   1.852   7.972 -2.1456 -1.4223  1.0254
   76SLPC  C218 6876   2.150   1.921   8.075 -0.0028  0.0340  0.5933
   76SLPC  H18R 6877   2.163   1.865   8.170  0.9627 -1.1626 -0.2273
   76SLPC  H18S 6878   2.081   1.864   8.009  1.5865 -0.3415 -0.8003
   76SLPC  H18T 6879   2.096   2.017   8.083 -5.0585 -2.5106 -1.0081
   76SLPC   C33 6880   1.957   1.583   7.061 -0.1554 -0.6810  0.3091
   76SLPC   H3X 6881   1.993   1.489   7.013 -0.8268  0.4097 -2.4020
   76SLPC   H3Y 6882   1.847   1.577   7.063 -0.1131 -1.2266  1.8540
   76SLPC   C34 6883   1.996   1.574   7.208 -0.6505  0.5883  0.2005
   76SLPC   H4X 6884   1.911   1.627   7.256 -2.1616  0.4832 -2.2963
   76SLPC   H4Y 6885   2.083   1.642   7.221  0.2763 -0.7371  1.1369
   76SLPC   C35 6886   2.009   1.432   7.262 -0.0708 -0.4290 -0.3224
   76SLPC   H5X 6887   2.070   1.370   7.193  1.1479 -1.4867  1.6669
   76SLPC   H5Y 6888   1.910   1.383   7.275 -0.3514  0.6287  1.7959
   76SLPC   C36 6889   2.074   1.425   7.400 -0.2327  0.1553 -0.8341
   76SLPC   H6X 6890   2.174   1.474   7.393  0.3055 -0.8844 -0.5202
   76SLPC   H6Y 6891   2.091   1.320   7.433 -0.7210  0.6450  1.0265
   76SLPC   C37 6892   2.000   1.513   7.495  0.5698 -0.3435 -0.4790
   76SLPC   H7X 6893   1.897   1.470   7.496  0.4317 -0.0033  1.4133
   76SLPC   H7Y 6894   1.989   1.617   7.457 -0.2623 -0.3991 -0.4084
   76SLPC   C38 6895   2.047   1.512   7.640 -0.0705  0.1914  0.3743
   76SLPC   H8X 6896   2.034   1.414   7.691  0.0205 -0.1709 -0.2903
   76SLPC   H8Y 6897   1.980   1.587   7.687  2.9193  2.1825  1.5826
   76SLPC   C39 6898   2.185   1.580   7.672 -0.4510 -0.0627  0.3069
   76SLPC   H9X 6899   2.194   1.674   7.613  0.1532 -0.1949  0.1858
   76SLPC   H9Y 6900   2.263   1.509   7.638  2.1452  1.9634  1.7955
   76SLPC  C310 6901   2.197   1.624   7.820 -0.1345  0.5533 -0.0700
   76SLPC  H10X 6902   2.129   1.711   7.835 -0.6297  0.0349  0.7047
   76SLPC  H10Y 6903   2.305   1.652   7.826 -0.2098  0.6373  1.0432
   76SLPC  C311 6904   2.174   1.509   7.918  0.1453 -0.3858 -0.3476
   76SLPC  H11X 6905   2.265   1.448   7.906  1.0639  1.0796 -1.0115
   76SLPC  H11Y 6906   2.084   1.451   7.890 -1.1379  1.3765  0.0404
   76SLPC  C312 6907   2.157   1.553   8.061 -0.5282  0.0258  0.2115
   76SLPC  H12X 6908   2.048   1.578   8.059 -0.7689 -1.0194  0.2081
   76SLPC  H12Y 6909   2.229   1.634   8.083 -0.0857 -0.0655 -0.8333
   76SLPC  C313 6910   2.183   1.446   8.165  0.6101 -0.2508 -0.2362
   76SLPC  H13X 6911   2.280   1.393   8.148  1.8858  0.3962  4.3102
   76SLPC  H13Y 6912   2.105   1.368   8.154 -0.9129  1.0666  0.9933
   76SLPC  C314 6913   2.172   1.499   8.315  0.3992  0.0358 -0.0780
   76SLPC  H14X 6914   2.263   1.560   8.336  0.5459  0.0824 -0.8492
   76SLPC  H14Y 6915   2.164   1.400   8.366 -2.5902  1.9914  3.4445
   76SLPC  C315 6916   2.044   1.582   8.334 -0.3319 -0.5835 -0.0524
   76SLPC  H15X 6917   2.053   1.672   8.270  4.0633 -1.2680 -0.5730
   76SLPC  H15Y 6918   2.050   1.621   8.438  1.7961  1.6760 -0.9748
   76SLPC  C316 6919   1.908   1.517   8.314  0.2717 -0.1837 -0.5112
   76SLPC  H16X 6920   1.907   1.410   8.345 -0.0088  0.0216  0.2019
   76SLPC  H16Y 6921   1.903   1.512   8.203 -0.4614  0.4063 -0.5058
   76SLPC  C317 6922   1.792   1.591   8.371  0.0409 -0.1737  0.1733
   76SLPC  H17X 6923   1.792   1.696   8.335 -0.0247 -0.4376 -0.6140
   76SLPC  H17Y 6924   1.812   1.591   8.480  1.2287  0.2744 -0.0352
   76SLPC  C318 6925   1.656   1.528   8.334  0.4021  0.1398  0.0148
   76SLPC  H18X 6926   1.626   1.554   8.230 -2.4112  2.0711  1.2180
   76SLPC  H18Y 6927   1.566   1.567   8.386  0.2250 -0.5371  0.2125
   76SLPC  H18Z 6928   1.668   1.419   8.348  0.3414  0.0336 -0.7303
   77SLPC     N 6929   4.703   1.030   6.100  0.2634 -0.2176 -0.1937
   77SLPC   C13 6930   4.674   0.883   6.124  0.3609  0.3724 -0.7797
   77SLPC  H13A 6931   4.698   0.819   6.040 -0.7929 -0.6118 -0.3699
   77SLPC  H13B 6932   4.734   0.844   6.205  1.3812  1.4517 -1.0100
   77SLPC  H13C 6933   4.570   0.862   6.146  0.8098 -3.7016 -2.0999
   77SLPC   C14 6934   4.607   1.072   5.999 -0.2454 -0.3788  0.7096
   77SLPC  H14A 6935   4.506   1.080   6.036 -0.6897  1.1074 -0.7214
   77SLPC  H14B 6936   4.633   1.166   5.950  0.2871 -0.5814  0.5972
   77SLPC  H14C 6937   4.600   0.994   5.925 -0.5808 -0.0027  0.3355
   77SLPC   C15 6938   4.832   1.039   6.032 -1.2627  0.7435 -0.2592
   77SLPC  H15A 6939   4.919   1.044   6.096 -0.4481  1.8729 -1.4142
   77SLPC  H15B 6940   4.839   0.952   5.968 -0.3331  2.7786 -3.0354
   77SLPC  H15C 6941   4.832   1.130   5.974 -0.9563  0.4564 -0.7144
   77SLPC   C12 6942   4.707   1.110   6.236 -0.1659  0.7528 -0.6217
   77SLPC  H12A 6943   4.756   1.205   6.218 -0.7244  0.9806 -0.9605
   77SLPC  H12B 6944   4.763   1.048   6.305  0.8877  0.5757 -1.6321
   77SLPC   C11 6945   4.573   1.152   6.305 -0.0024 -0.4125  0.8140
   77SLPC  H11A 6946   4.518   1.226   6.243  1.6347  0.2032  0.0555
   77SLPC  H11B 6947   4.601   1.208   6.398  1.0968 -0.3401  0.4534
   77SLPC     P 6948   4.473   0.963   6.450 -0.1164 -0.0225 -0.1796
   77SLPC   O13 6949   4.344   0.889   6.438  0.0636 -0.1444  0.2672
   77SLPC   O14 6950   4.595   0.884   6.471  0.3753  0.0630 -0.5548
   77SLPC   O12 6951   4.486   1.045   6.317  0.4846 -0.3196  0.3622
   77SLPC   O11 6952   4.450   1.067   6.565 -0.2356  0.1647  0.9551
   77SLPC    C1 6953   4.564   1.104   6.649 -0.5914 -0.3799  0.0775
   77SLPC    HA 6954   4.661   1.052   6.640  0.1640  1.2672 -1.4790
   77SLPC    HB 6955   4.589   1.211   6.636 -0.5304 -0.3874  0.1340
   77SLPC    C2 6956   4.518   1.085   6.804 -0.0767  0.3095  0.0989
   77SLPC    HS 6957   4.418   1.132   6.813 -1.7511 -2.9404 -0.6352
   77SLPC   O21 6958   4.622   1.137   6.882 -0.3825 -0.0350 -0.1231
   77SLPC   C21 6959   4.624   1.267   6.909  0.2320 -0.4307 -0.6344
   77SLPC   O22 6960   4.548   1.348   6.860  0.3570 -0.0990 -0.3044
   77SLPC   C22 6961   4.721   1.298   7.025  0.6704  0.0666  0.1867
   77SLPC   H2R 6962   4.749   1.200   7.069 -1.0693 -0.3041  0.5043
   77SLPC   H2S 6963   4.813   1.334   6.975  0.5234 -0.1546 -0.2480
   77SLPC    C3 6964   4.497   0.931   6.817  0.4441  0.2911 -0.6279
   77SLPC    HX 6965   4.569   0.868   6.761 -1.2831  1.0514 -3.8367
   77SLPC    HY 6966   4.400   0.909   6.766  0.2919  0.2144 -0.3091
   77SLPC   O31 6967   4.475   0.882   6.953 -0.3267  0.4048  0.5144
   77SLPC   C31 6968   4.592   0.875   7.015  0.2937 -0.4007 -0.1151
   77SLPC   O32 6969   4.704   0.888   6.966 -0.8176 -0.2644  0.5118
   77SLPC   C32 6970   4.561   0.810   7.152 -0.6529  0.2380 -0.2266
   77SLPC   H2X 6971   4.613   0.712   7.160 -0.1676  0.3788 -1.5657
   77SLPC   H2Y 6972   4.450   0.799   7.159 -0.6227 -0.6831 -1.1061
   77SLPC   C23 6973   4.658   1.405   7.112  0.2702 -0.8524 -0.1056
   77SLPC   H3R 6974   4.614   1.491   7.057  0.7184  0.6495  1.8605
   77SLPC   H3S 6975   4.749   1.444   7.161 -0.2990  0.0976  0.1946
   77SLPC   C24 6976   4.568   1.350   7.225 -0.2553 -0.4410  0.3275
   77SLPC   H4R 6977   4.600   1.249   7.260 -1.9424 -0.4590  1.8826
   77SLPC   H4S 6978   4.464   1.338   7.188 -0.9892  0.9405  1.8948
   77SLPC   C25 6979   4.577   1.436   7.352 -0.7755 -0.3185  0.1563
   77SLPC   H5R 6980   4.536   1.536   7.324  0.4650  0.3891  0.7958
   77SLPC   H5S 6981   4.684   1.445   7.381 -0.3792 -1.3751 -0.9483
   77SLPC   C26 6982   4.498   1.379   7.469  0.2780 -0.5557 -0.4517
   77SLPC   H6R 6983   4.488   1.269   7.461 -1.4688 -0.3175 -1.9490
   77SLPC   H6S 6984   4.393   1.415   7.468  1.1876  2.4685  2.4485
   77SLPC   C27 6985   4.558   1.426   7.605  0.3218  0.1763  0.0944
   77SLPC   H7R 6986   4.550   1.536   7.621 -0.0539  0.0591  0.7144
   77SLPC   H7S 6987   4.665   1.397   7.594 -0.0420 -0.1173 -3.1778
   77SLPC   C28 6988   4.490   1.352   7.722  0.6258  0.1118  0.5066
   77SLPC   H8R 6989   4.479   1.247   7.689 -1.6695 -0.3357  2.5770
   77SLPC   H8S 6990   4.387   1.390   7.741 -0.0746 -1.2114 -0.6361
   77SLPC   C29 6991   4.571   1.392   7.847  0.3208 -0.0311 -0.6058
   77SLPC   H9R 6992   4.615   1.493   7.847  1.2806 -0.4429  0.2892
   77SLPC  C210 6993   4.576   1.318   7.957 -0.5487  0.0775 -0.0688
   77SLPC  H10R 6994   4.638   1.362   8.036  0.9180 -2.1427  0.0628
   77SLPC  C211 6995   4.520   1.179   7.976  0.5269 -0.1834 -0.2895
   77SLPC  H11R 6996   4.601   1.117   8.020  0.1462 -1.0668 -0.8233
   77SLPC  H11S 6997   4.497   1.135   7.877  0.4424 -0.1458 -0.2865
   77SLPC  C212 6998   4.389   1.172   8.052  0.2269 -0.5758  0.6557
   77SLPC  H12R 6999   4.323   1.260   8.043  1.3388  0.1525 -0.6496
   77SLPC  C213 7000   4.349   1.083   8.144  0.5121 -0.4052  0.4713
   77SLPC  H13R 7001   4.247   1.098   8.181  0.4341  2.0706 -0.6438
   77SLPC  C214 7002   4.421   0.957   8.190  0.2995  0.7794 -0.0083
   77SLPC  H14R 7003   4.510   0.935   8.127 -0.0388 -1.8707  0.4018
   77SLPC  H14S 7004   4.352   0.870   8.193  1.7057 -0.3312  0.4175
   77SLPC  C215 7005   4.486   0.971   8.329  0.4123 -0.3037  0.4199
   77SLPC  H15R 7006   4.556   0.887   8.350 -2.9586 -2.4111  3.9495
   77SLPC  H15S 7007   4.396   0.958   8.394 -1.5547  1.5282 -1.8163
   77SLPC  C216 7008   4.549   1.110   8.379 -0.0746  0.0925 -0.1504
   77SLPC  H16R 7009   4.476   1.193   8.387  0.2734  0.5950 -1.9948
   77SLPC  H16S 7010   4.617   1.151   8.302  1.5760 -1.5537  0.3953
   77SLPC  C217 7011   4.620   1.096   8.516 -0.5588 -0.8164  0.0176
   77SLPC  H17R 7012   4.693   1.012   8.509 -1.8185 -2.1330  2.2032
   77SLPC  H17S 7013   4.550   1.070   8.598  1.0421  0.1678  1.7041
   77SLPC  C218 7014   4.680   1.228   8.561 -0.1851  0.4375 -0.3676
   77SLPC  H18R 7015   4.702   1.220   8.670 -0.7275 -0.9471 -0.3460
   77SLPC  H18S 7016   4.612   1.313   8.542 -0.2653  0.3183 -0.6193
   77SLPC  H18T 7017   4.775   1.253   8.508 -0.2950  4.4862  1.1847
   77SLPC   C33 7018   4.599   0.902   7.264 -0.6049 -0.5821 -0.2444
   77SLPC   H3X 7019   4.535   0.992   7.254 -1.5299 -1.3151 -1.0476
   77SLPC   H3Y 7020   4.709   0.913   7.255 -0.3331 -3.3512 -0.7857
   77SLPC   C34 7021   4.581   0.842   7.408  0.4799 -0.1899  0.2130
   77SLPC   H4X 7022   4.638   0.747   7.420  0.0883 -0.5544 -0.7765
   77SLPC   H4Y 7023   4.480   0.807   7.438  0.5630 -0.7404 -0.1466
   77SLPC   C35 7024   4.631   0.930   7.522  0.1424  0.4297  0.9584
   77SLPC   H5X 7025   4.565   1.018   7.536 -1.4405 -0.9360  2.3323
   77SLPC   H5Y 7026   4.735   0.966   7.503  0.8905 -1.4765  1.3356
   77SLPC   C36 7027   4.652   0.851   7.660 -0.3702 -0.0144  0.8831
   77SLPC   H6X 7028   4.716   0.919   7.721  1.2372 -1.0456  0.4040
   77SLPC   H6Y 7029   4.712   0.759   7.639 -1.3650 -0.1177 -1.6785
   77SLPC   C37 7030   4.526   0.811   7.733  0.5138 -0.5397  0.3300
   77SLPC   H7X 7031   4.464   0.735   7.681 -0.4258  1.6694 -1.8917
   77SLPC   H7Y 7032   4.465   0.904   7.726  1.3694 -0.0744 -1.2768
   77SLPC   C38 7033   4.540   0.786   7.881 -0.0358  0.3119 -0.7238
   77SLPC   H8X 7034   4.439   0.784   7.927  0.6469 -2.2986  0.7424
   77SLPC   H8Y 7035   4.604   0.862   7.930  1.8332 -0.4212 -1.9794
   77SLPC   C39 7036   4.601   0.651   7.910  0.1935  0.2436 -0.0514
   77SLPC   H9X 7037   4.706   0.636   7.879 -0.1441 -2.2070 -0.1056
   77SLPC   H9Y 7038   4.545   0.578   7.849  1.6814  0.0583 -1.2171
   77SLPC  C310 7039   4.587   0.600   8.057  0.0326  0.6870 -0.5870
   77SLPC  H10X 7040   4.608   0.491   8.055  4.0889  1.3750 -2.0498
   77SLPC  H10Y 7041   4.485   0.622   8.093  0.0216  1.3588 -1.0043
   77SLPC  C311 7042   4.690   0.664   8.147  0.1715 -1.0016 -1.4554
   77SLPC  H11X 7043   4.664   0.771   8.151  0.0161 -1.1011  0.5456
   77SLPC  H11Y 7044   4.795   0.642   8.120  0.2308 -2.7751  0.1046
   77SLPC  C312 7045   4.680   0.596   8.283 -0.6488 -0.1423 -0.5690
   77SLPC  H12X 7046   4.679   0.487   8.262  1.1842 -0.4349  0.7000
   77SLPC  H12Y 7047   4.591   0.616   8.347 -0.0461 -4.1908  1.7004
   77SLPC  C313 7048   4.793   0.620   8.378  1.3198 -0.1684  0.0633
   77SLPC  H13X 7049   4.788   0.727   8.409 -1.5073 -0.3323  0.3740
   77SLPC  H13Y 7050   4.892   0.605   8.331  1.0731  0.7319 -0.7639
   77SLPC  C314 7051   4.784   0.529   8.506  0.6612 -0.2052  0.3176
   77SLPC  H14X 7052   4.806   0.423   8.482 -1.6298 -0.5646 -0.2945
   77SLPC  H14Y 7053   4.675   0.515   8.526  0.7603 -0.4091  0.7343
   77SLPC  C315 7054   4.860   0.580   8.620  0.3563 -0.3657 -0.3138
   77SLPC  H15X 7055   4.830   0.684   8.645  0.8954 -0.7774  2.2381
   77SLPC  H15Y 7056   4.969   0.594   8.607  0.1625  1.1256 -0.3911
   77SLPC  C316 7057   4.851   0.495   8.749  1.0838  0.3300 -0.9878
   77SLPC  H16X 7058   4.916   0.538   8.828 -0.1436  0.7338 -0.1787
   77SLPC  H16Y 7059   4.894   0.394   8.731 -0.9437 -0.7284 -0.0684
   77SLPC  C317 7060   4.706   0.497   8.811 -0.8558 -0.4145  0.6621
   77SLPC  H17X 7061   4.690   0.422   8.892  0.9537 -0.7328  0.7449
   77SLPC  H17Y 7062   4.637   0.460   8.732  1.0596  0.3375 -1.4197
   77SLPC  C318 7063   4.653   0.637   8.851  0.0108  0.2871 -0.8747
   77SLPC  H18X 7064   4.719   0.691   8.923  0.3662  0.6237 -1.4490
   77SLPC  H18Y 7065   4.552   0.626   8.896 -0.4300 -0.1226 -1.9635
   77SLPC  H18Z 7066   4.642   0.705   8.764  2.2115  0.5855 -0.9561
   78SLPC     N 7067   0.552   1.745   5.747 -0.5556  0.0245 -0.5291
   78SLPC   C13 7068   0.639   1.657   5.653 -0.3478 -0.1544 -0.3903
   78SLPC  H13A 7069   0.657   1.700   5.555  0.5866 -1.0595 -0.6256
   78SLPC  H13B 7070   0.736   1.646   5.699  0.3107  0.9039 -1.4905
   78SLPC  H13C 7071   0.592   1.562   5.630  0.4539 -0.2030 -1.8855
   78SLPC   C14 7072   0.435   1.786   5.689  0.2309  0.4665 -0.0640
   78SLPC  H14A 7073   0.370   1.841   5.756  0.9399 -0.6601  1.5858
   78SLPC  H14B 7074   0.446   1.846   5.601 -0.3064  0.9083  0.1704
   78SLPC  H14C 7075   0.369   1.704   5.667 -0.6232  1.5104 -1.4315
   78SLPC   C15 7076   0.634   1.869   5.774 -0.1897 -0.1864 -0.0773
   78SLPC  H15A 7077   0.669   1.929   5.691  1.3694  2.8325  2.6325
   78SLPC  H15B 7078   0.603   1.941   5.848  1.5131  1.0870 -0.5455
   78SLPC  H15C 7079   0.724   1.827   5.818 -0.8551  0.6708  2.1638
   78SLPC   C12 7080   0.518   1.660   5.874  0.1501 -0.3085 -0.4045
   78SLPC  H12A 7081   0.611   1.615   5.907  0.3047  0.3116  0.0143
   78SLPC  H12B 7082   0.448   1.580   5.853 -2.3167  1.0980  2.1624
   78SLPC   C11 7083   0.477   1.739   6.007 -0.0429 -0.7849 -0.9949
   78SLPC  H11A 7084   0.456   1.660   6.082 -1.0006  1.2177  0.9052
   78SLPC  H11B 7085   0.383   1.795   5.986  0.5582  0.2856 -0.8492
   78SLPC     P 7086   0.574   1.936   6.140  0.1533 -0.5279 -0.0591
   78SLPC   O13 7087   0.710   1.966   6.198 -0.0962  0.1021 -0.4554
   78SLPC   O14 7088   0.503   2.036   6.062  0.1570  0.8312  0.0933
   78SLPC   O12 7089   0.595   1.813   6.047  0.9387  0.0200  0.2817
   78SLPC   O11 7090   0.469   1.886   6.251  0.1873  0.3367 -0.2931
   78SLPC    C1 7091   0.340   1.945   6.266  0.5897 -0.5092  0.2570
   78SLPC    HA 7092   0.352   2.055   6.257  0.3196 -0.3861  1.3667
   78SLPC    HB 7093   0.284   1.911   6.177  1.3083 -0.0283 -0.3831
   78SLPC    C2 7094   0.279   1.897   6.400  0.1549  0.3992 -0.4933
   78SLPC    HS 7095   0.181   1.947   6.417 -0.8553 -0.7925 -2.6531
   78SLPC   O21 7096   0.360   1.940   6.505 -0.0076  0.4050 -0.4930
   78SLPC   C21 7097   0.351   2.063   6.533 -0.5959 -0.3975 -0.1762
   78SLPC   O22 7098   0.262   2.140   6.500  0.1829 -0.3573  0.0946
   78SLPC   C22 7099   0.472   2.104   6.613 -0.4044  0.9800 -0.2164
   78SLPC   H2R 7100   0.529   2.014   6.646  0.6343  2.5638  2.4833
   78SLPC   H2S 7101   0.536   2.165   6.547  2.2292 -2.1696 -0.7261
   78SLPC    C3 7102   0.263   1.746   6.397  0.4256  0.5185 -0.4297
   78SLPC    HX 7103   0.358   1.688   6.393 -0.9780 -2.1721  2.5432
   78SLPC    HY 7104   0.206   1.713   6.307 -0.3321 -0.5840  0.4405
   78SLPC   O31 7105   0.187   1.717   6.516 -0.5157  0.3154  0.1629
   78SLPC   C31 7106   0.256   1.675   6.620  0.2465  0.8139 -0.1464
   78SLPC   O32 7107   0.378   1.651   6.623 -0.3565  0.0077  0.1048
   78SLPC   C32 7108   0.159   1.665   6.740 -0.5383 -0.0385  0.7225
   78SLPC   H2X 7109   0.208   1.599   6.814 -1.8713 -1.1027  0.6650
   78SLPC   H2Y 7110   0.073   1.612   6.694 -0.7097 -0.3485  1.4038
   78SLPC   C23 7111   0.439   2.187   6.737  0.3601  0.7742 -0.3308
   78SLPC   H3R 7112   0.371   2.127   6.802  1.0169  1.0215  0.5883
   78SLPC   H3S 7113   0.401   2.287   6.709  0.5387  0.6305 -1.0945
   78SLPC   C24 7114   0.561   2.226   6.831 -0.3368  0.4933 -0.0615
   78SLPC   H4R 7115   0.521   2.280   6.919 -1.0431  1.8889 -1.2130
   78SLPC   H4S 7116   0.623   2.297   6.772 -1.1097 -0.5538 -2.1822
   78SLPC   C25 7117   0.644   2.103   6.866 -0.7558  0.2415 -0.2968
   78SLPC   H5R 7118   0.727   2.097   6.793 -1.0737  2.2194 -0.8448
   78SLPC   H5S 7119   0.582   2.011   6.881  0.1321 -0.2355  0.5226
   78SLPC   C26 7120   0.706   2.119   7.011  0.8254  0.7114  0.2844
   78SLPC   H6R 7121   0.638   2.054   7.070  0.3527 -0.8372 -1.9147
   78SLPC   H6S 7122   0.711   2.225   7.043  0.2677  0.9436 -0.3909
   78SLPC   C27 7123   0.843   2.054   7.029 -0.3125  0.1669 -0.2954
   78SLPC   H7R 7124   0.865   2.046   7.138 -1.3816  1.3152  0.0215
   78SLPC   H7S 7125   0.928   2.114   6.991  1.3252 -0.3705  2.3933
   78SLPC   C28 7126   0.852   1.902   6.984 -0.0810  0.4409 -0.2805
   78SLPC   H8R 7127   0.838   1.892   6.874 -2.4192  1.2466 -0.0975
   78SLPC   H8S 7128   0.771   1.844   7.033  0.4502  0.1184  0.2287
   78SLPC   C29 7129   0.985   1.839   7.033  0.6233  0.2415  0.2410
   78SLPC   H9R 7130   1.059   1.837   6.951 -1.1145  0.4657 -1.3792
   78SLPC  C210 7131   1.014   1.764   7.144 -0.0756  0.4627 -0.0345
   78SLPC  H10R 7132   1.118   1.729   7.150  0.0281  1.0583  2.0433
   78SLPC  C211 7133   0.931   1.706   7.251  0.4489  0.5010 -0.6226
   78SLPC  H11R 7134   0.998   1.658   7.325 -0.4688  0.9157  0.4878
   78SLPC  H11S 7135   0.886   1.620   7.197  0.5273 -0.0524  0.1879
   78SLPC  C212 7136   0.812   1.780   7.297  0.4226 -0.8334 -0.2773
   78SLPC  H12R 7137   0.713   1.757   7.255  0.6179 -3.1910  0.4672
   78SLPC  C213 7138   0.819   1.888   7.379 -0.2462 -0.1942 -0.3060
   78SLPC  H13R 7139   0.730   1.946   7.408 -0.2612 -0.3133 -0.1100
   78SLPC  C214 7140   0.947   1.948   7.440 -0.8729 -1.1484  0.4345
   78SLPC  H14R 7141   0.966   2.050   7.401 -1.0764 -1.5581 -0.7476
   78SLPC  H14S 7142   1.037   1.885   7.420 -0.2673 -0.5209  1.1045
   78SLPC  C215 7143   0.937   1.967   7.591  0.7200 -0.8204  0.5391
   78SLPC  H15R 7144   0.835   2.012   7.594  0.4636 -1.3620 -0.0714
   78SLPC  H15S 7145   1.018   2.038   7.620  1.3840 -1.0520 -0.7358
   78SLPC  C216 7146   0.948   1.837   7.679  0.0118 -0.4588 -0.6162
   78SLPC  H16R 7147   1.049   1.801   7.653  0.9623  2.2830 -0.8747
   78SLPC  H16S 7148   0.896   1.744   7.646 -1.5531  0.3485 -0.4962
   78SLPC  C217 7149   0.940   1.863   7.828  0.4784  0.2995  0.1445
   78SLPC  H17R 7150   0.877   1.950   7.857  1.0463  0.1839  1.7933
   78SLPC  H17S 7151   1.047   1.881   7.852  0.8128 -0.4358 -0.7372
   78SLPC  C218 7152   0.896   1.738   7.899 -0.5039 -0.3676 -0.1761
   78SLPC  H18R 7153   0.958   1.650   7.870  0.9751  0.5694  0.0877
   78SLPC  H18S 7154   0.792   1.718   7.865 -0.8167 -1.1656  1.2030
   78SLPC  H18T 7155   0.901   1.761   8.007 -3.3512 -0.2388 -0.0420
   78SLPC   C33 7156   0.117   1.809   6.785 -0.1625 -0.2193 -0.4850
   78SLPC   H3X 7157   0.037   1.788   6.859  0.6234  2.2669  1.1465
   78SLPC   H3Y 7158   0.075   1.856   6.693 -2.1532  2.3713  1.6666
   78SLPC   C34 7159   0.230   1.889   6.853  0.1624  0.1636 -0.4604
   78SLPC   H4X 7160   0.209   1.997   6.840  1.5866  0.6759  1.3129
   78SLPC   H4Y 7161   0.323   1.868   6.797  0.9215 -1.1256  1.2609
   78SLPC   C35 7162   0.250   1.841   6.995 -0.0671  0.1745 -0.1808
   78SLPC   H5X 7163   0.266   1.732   6.988  2.5622  0.3787  2.0874
   78SLPC   H5Y 7164   0.158   1.848   7.056  0.3369  0.5288  0.3895
   78SLPC   C36 7165   0.370   1.909   7.057 -0.4789  0.2992  0.3877
   78SLPC   H6X 7166   0.374   2.017   7.031 -0.0882 -0.1485 -1.4481
   78SLPC   H6Y 7167   0.460   1.847   7.039  1.1647  2.8371 -0.4882
   78SLPC   C37 7168   0.353   1.923   7.208 -0.4134 -0.6432 -0.9249
   78SLPC   H7X 7169   0.253   1.970   7.224  0.1532  1.3906 -3.0326
   78SLPC   H7Y 7170   0.424   1.994   7.256  0.2750 -0.7445 -1.7661
   78SLPC   C38 7171   0.379   1.793   7.270 -0.3295 -0.6321  0.2080
   78SLPC   H8X 7172   0.486   1.771   7.248 -0.8861 -2.0067 -1.1870
   78SLPC   H8Y 7173   0.326   1.701   7.236  1.3495 -1.9032  0.9259
   78SLPC   C39 7174   0.367   1.795   7.422  0.8454  0.6929 -0.3399
   78SLPC   H9X 7175   0.260   1.802   7.453  1.4411 -0.6291  2.1317
   78SLPC   H9Y 7176   0.409   1.895   7.446  1.0616  0.6181 -0.4089
   78SLPC  C310 7177   0.449   1.684   7.497 -0.0081  0.1048 -0.0571
   78SLPC  H10X 7178   0.550   1.686   7.452 -0.2493 -1.9914 -0.7227
   78SLPC  H10Y 7179   0.405   1.591   7.457 -0.0520 -0.1392  0.5429
   78SLPC  C311 7180   0.453   1.707   7.649 -0.3667  0.5170 -0.4616
   78SLPC  H11X 7181   0.494   1.808   7.673 -2.0353  1.0385  0.3271
   78SLPC  H11Y 7182   0.538   1.641   7.675  0.9232  1.4283 -2.2741
   78SLPC  C312 7183   0.325   1.689   7.724 -0.0751 -0.3628 -0.1749
   78SLPC  H12X 7184   0.305   1.580   7.715 -0.9985 -0.0766 -1.7740
   78SLPC  H12Y 7185   0.241   1.753   7.690  2.0867  2.1192 -0.9401
   78SLPC  C313 7186   0.354   1.721   7.874 -0.1481  0.6248  0.1406
   78SLPC  H13X 7187   0.408   1.818   7.867  0.3836  0.2509 -1.3575
   78SLPC  H13Y 7188   0.422   1.640   7.908 -0.4307  0.8139  1.1436
   78SLPC  C314 7189   0.232   1.721   7.967  0.5287 -0.6541 -0.4033
   78SLPC  H14X 7190   0.194   1.617   7.965 -2.2325  0.2923  0.0035
   78SLPC  H14Y 7191   0.154   1.789   7.926  0.3739  1.2523  2.8902
   78SLPC  C315 7192   0.267   1.775   8.101  0.5677 -0.0566 -0.2441
   78SLPC  H15X 7193   0.341   1.855   8.077  1.8441 -1.4849 -1.2239
   78SLPC  H15Y 7194   0.322   1.697   8.157 -0.4215 -1.3317 -1.0424
   78SLPC  C316 7195   0.139   1.833   8.175 -0.2773 -0.1370  0.9668
   78SLPC  H16X 7196   0.100   1.927   8.129 -1.0954 -1.1304 -0.4337
   78SLPC  H16Y 7197   0.174   1.853   8.278  2.8896 -1.0628  0.1161
   78SLPC  C317 7198   0.029   1.725   8.185  0.8142  0.1984 -0.4643
   78SLPC  H17X 7199   0.058   1.620   8.206 -2.2891 -0.0924  2.9923
   78SLPC  H17Y 7200   0.000   1.723   8.078  0.3795  2.4947 -0.4177
   78SLPC  C318 7201  -0.098   1.764   8.266  0.4386  0.3242 -0.2205
   78SLPC  H18X 7202  -0.176   1.685   8.263  0.4186  0.0512  3.9983
   78SLPC  H18Y 7203  -0.125   1.861   8.220  0.9890  2.3696  3.5672
   78SLPC  H18Z 7204  -0.091   1.780   8.376 -1.0080 -0.1529 -0.0431
   79SLPC     N 7205   4.116   3.746   5.930 -0.0950 -0.2761 -0.2004
   79SLPC   C13 7206   4.146   3.659   5.813  0.3681 -0.0984 -0.3609
   79SLPC  H13A 7207   4.243   3.612   5.818  0.2807 -0.6820 -3.2689
   79SLPC  H13B 7208   4.079   3.575   5.811  0.4405 -0.2520  1.8880
   79SLPC  H13C 7209   4.143   3.720   5.724 -2.4588 -0.5490 -0.6232
   79SLPC   C14 7210   4.095   3.656   6.049  0.4185  0.2854 -0.0153
   79SLPC  H14A 7211   4.180   3.592   6.069 -0.8095 -0.8372  1.7504
   79SLPC  H14B 7212   4.079   3.717   6.137  1.3294  3.6131 -2.0986
   79SLPC  H14C 7213   4.012   3.591   6.024  0.7292 -1.1961  2.5832
   79SLPC   C15 7214   3.989   3.819   5.902  0.0298 -0.7690  0.0492
   79SLPC  H15A 7215   3.983   3.868   5.806  0.5848 -0.8478 -0.0290
   79SLPC  H15B 7216   3.909   3.749   5.917  1.4528 -2.6316 -0.7978
   79SLPC  H15C 7217   3.972   3.892   5.980 -2.0557 -1.1758  0.0019
   79SLPC   C12 7218   4.237   3.845   5.961  0.5651 -0.7718 -0.5111
   79SLPC  H12A 7219   4.255   3.909   5.876  2.5354 -2.1391 -1.1573
   79SLPC  H12B 7220   4.321   3.781   5.984  0.1687 -0.4787  1.8644
   79SLPC   C11 7221   4.224   3.928   6.090 -0.4310 -0.1523 -0.2274
   79SLPC  H11A 7222   4.320   3.978   6.115 -1.6472  1.6389  0.9791
   79SLPC  H11B 7223   4.206   3.849   6.166 -2.1684  0.1539 -0.2984
   79SLPC     P 7224   4.036   4.056   6.209 -0.1161 -0.1242  0.1952
   79SLPC   O13 7225   4.004   4.201   6.200 -0.0655  0.3240 -0.8957
   79SLPC   O14 7226   3.922   3.966   6.238  0.5200 -0.0517  0.4024
   79SLPC   O12 7227   4.114   4.010   6.074 -0.2070  0.5424  0.4082
   79SLPC   O11 7228   4.131   4.033   6.337  0.4362 -0.0456 -0.1360
   79SLPC    C1 7229   4.127   3.929   6.433 -0.5933 -0.0288  0.4047
   79SLPC    HA 7230   4.081   3.838   6.388 -0.0441 -0.6236  1.0373
   79SLPC    HB 7231   4.232   3.907   6.461 -1.4451 -4.3418  0.5085
   79SLPC    C2 7232   4.050   3.978   6.559 -0.6199 -0.7318 -0.6638
   79SLPC    HS 7233   3.950   4.002   6.518 -1.1525  0.8071  1.4278
   79SLPC   O21 7234   4.115   4.082   6.632  0.0404 -0.6028 -0.1514
   79SLPC   C21 7235   4.049   4.176   6.685 -0.6533 -0.0444 -0.2415
   79SLPC   O22 7236   3.927   4.200   6.668 -0.3270  0.1147  0.3395
   79SLPC   C22 7237   4.140   4.245   6.783 -0.3122 -0.5359  0.0607
   79SLPC   H2R 7238   4.188   4.160   6.836 -0.2710 -0.7109 -0.2574
   79SLPC   H2S 7239   4.218   4.308   6.734  0.5291  0.2489  2.3545
   79SLPC    C3 7240   4.022   3.861   6.654  0.2501  0.0406  0.2991
   79SLPC    HX 7241   4.117   3.838   6.707 -0.4126 -0.2460  1.3838
   79SLPC    HY 7242   4.005   3.766   6.598 -1.6621 -0.5222  1.7953
   79SLPC   O31 7243   3.910   3.883   6.747 -0.5971 -0.1338 -0.7575
   79SLPC   C31 7244   3.786   3.850   6.698  0.2090 -0.4767  0.0409
   79SLPC   O32 7245   3.767   3.826   6.579 -0.2044 -0.4749 -0.1841
   79SLPC   C32 7246   3.682   3.852   6.800 -0.1604 -0.4368 -0.5597
   79SLPC   H2X 7247   3.622   3.760   6.784 -2.1190  0.9078 -1.0204
   79SLPC   H2Y 7248   3.621   3.945   6.802 -1.0761 -1.0423 -0.1124
   79SLPC   C23 7249   4.072   4.324   6.900  0.1888 -0.3886  0.5276
   79SLPC   H3R 7250   3.983   4.268   6.938  1.0601 -1.5425  0.9285
   79SLPC   H3S 7251   4.024   4.415   6.859 -0.7983 -1.5111 -0.8264
   79SLPC   C24 7252   4.161   4.350   7.026  0.0615  0.2703 -0.0874
   79SLPC   H4R 7253   4.157   4.458   7.051  1.9562  0.2868  0.1605
   79SLPC   H4S 7254   4.268   4.347   6.999  0.5752  0.8989  1.8785
   79SLPC   C25 7255   4.112   4.268   7.142 -0.9241 -0.0363  0.8280
   79SLPC   H5R 7256   4.107   4.164   7.103 -0.6645  0.2317  0.0655
   79SLPC   H5S 7257   4.015   4.305   7.181 -0.4441  0.2967  1.7214
   79SLPC   C26 7258   4.215   4.261   7.252  0.1749  0.3185 -0.0236
   79SLPC   H6R 7259   4.231   4.363   7.293 -1.2190  0.5396 -0.0125
   79SLPC   H6S 7260   4.306   4.211   7.212  0.4413  1.3358 -0.7065
   79SLPC   C27 7261   4.162   4.176   7.368  0.5039 -0.2859 -0.1503
   79SLPC   H7R 7262   4.132   4.077   7.327  0.0163 -1.1862  2.2664
   79SLPC   H7S 7263   4.064   4.221   7.396  0.4056  0.6682 -1.9867
   79SLPC   C28 7264   4.259   4.145   7.484  0.1963  0.0939  0.4240
   79SLPC   H8R 7265   4.305   4.236   7.528  1.8767  0.5513 -2.1490
   79SLPC   H8S 7266   4.342   4.089   7.436 -0.9339 -0.5155 -0.8672
   79SLPC   C29 7267   4.208   4.059   7.594 -0.0091  0.0943  0.9171
   79SLPC   H9R 7268   4.128   4.100   7.657 -2.0611 -3.1751  0.5731
   79SLPC  C210 7269   4.234   3.922   7.612  0.7336 -0.2000 -0.5388
   79SLPC  H10R 7270   4.194   3.874   7.702 -0.0306 -1.6094 -1.6103
   79SLPC  C211 7271   4.319   3.839   7.519  0.2118 -0.0280  0.1636
   79SLPC  H11R 7272   4.426   3.850   7.548  0.0122  2.5124  0.0437
   79SLPC  H11S 7273   4.300   3.874   7.415  0.6637 -0.7178 -0.1630
   79SLPC  C212 7274   4.280   3.696   7.528  0.5594  0.0134 -0.3685
   79SLPC  H12R 7275   4.188   3.678   7.585  0.0978  1.5125 -0.6026
   79SLPC  C213 7276   4.331   3.601   7.444 -0.7063  0.1758  0.5098
   79SLPC  H13R 7277   4.293   3.499   7.462  0.1304 -0.4544 -1.2315
   79SLPC  C214 7278   4.442   3.612   7.345 -0.7572 -0.1287 -0.0392
   79SLPC  H14R 7279   4.477   3.511   7.315  0.2663  0.8095 -2.0906
   79SLPC  H14S 7280   4.521   3.663   7.403 -1.4730  0.3973  0.4855
   79SLPC  C215 7281   4.393   3.688   7.222  0.2464 -1.4508  0.6877
   79SLPC  H15R 7282   4.476   3.704   7.149 -0.2760 -1.2307  0.1355
   79SLPC  H15S 7283   4.355   3.791   7.239  3.1751  0.1575 -2.0465
   79SLPC  C216 7284   4.281   3.619   7.143  0.8458 -0.2556  0.3665
   79SLPC  H16R 7285   4.185   3.602   7.196  0.7574 -0.4429  0.1509
   79SLPC  H16S 7286   4.305   3.511   7.132  1.9851  0.0286 -0.0374
   79SLPC  C217 7287   4.272   3.681   6.999  0.8444  0.0981  0.1562
   79SLPC  H17R 7288   4.176   3.643   6.959  0.9031  0.3833 -0.2628
   79SLPC  H17S 7289   4.356   3.647   6.934  0.8880 -2.3763  1.4476
   79SLPC  C218 7290   4.277   3.833   6.996 -0.2793 -0.1954 -0.3671
   79SLPC  H18R 7291   4.262   3.867   6.891 -1.4128 -0.0019 -0.1531
   79SLPC  H18S 7292   4.373   3.871   7.036 -0.6840 -0.1616  0.5804
   79SLPC  H18T 7293   4.193   3.877   7.055  0.5712  0.8148  0.0926
   79SLPC   C33 7294   3.746   3.837   6.938 -0.0853  0.4664  0.7284
   79SLPC   H3X 7295   3.813   3.749   6.937  0.9380  1.2474 -0.3456
   79SLPC   H3Y 7296   3.657   3.820   7.003 -1.0255  0.2069 -0.5876
   79SLPC   C34 7297   3.806   3.959   7.002 -0.0356  0.1849  0.7975
   79SLPC   H4X 7298   3.748   4.047   6.967  0.9147  0.7378  0.5892
   79SLPC   H4Y 7299   3.911   3.975   6.968 -0.5615 -0.6822 -1.3678
   79SLPC   C35 7300   3.818   3.965   7.152  0.4006 -0.8079 -0.4484
   79SLPC   H5X 7301   3.715   3.984   7.190  0.0856  1.3690 -2.2810
   79SLPC   H5Y 7302   3.874   4.054   7.188  0.6042 -0.7383 -0.9408
   79SLPC   C36 7303   3.885   3.835   7.211 -0.7622  0.9890  0.4475
   79SLPC   H6X 7304   3.966   3.825   7.137  0.8095  0.6462  2.1914
   79SLPC   H6Y 7305   3.818   3.747   7.204 -0.5260  0.7490  1.1833
   79SLPC   C37 7306   3.930   3.845   7.362 -0.5130  0.4005 -0.0804
   79SLPC   H7X 7307   4.000   3.932   7.361 -0.6687  0.5260  0.0426
   79SLPC   H7Y 7308   3.985   3.753   7.393 -1.4346 -0.1522 -0.0738
   79SLPC   C38 7309   3.821   3.865   7.458 -0.0662  0.3042 -0.4237
   79SLPC   H8X 7310   3.733   3.802   7.431 -0.1525 -0.1323  0.8705
   79SLPC   H8Y 7311   3.785   3.966   7.427 -1.2465 -0.5208 -1.8500
   79SLPC   C39 7312   3.873   3.845   7.600  0.2822  0.0276  0.3724
   79SLPC   H9X 7313   3.966   3.905   7.603 -0.2889  0.8994  0.7357
   79SLPC   H9Y 7314   3.891   3.736   7.608 -0.3838 -0.2725 -1.9316
   79SLPC  C310 7315   3.785   3.889   7.715  0.9451 -0.0974 -0.1272
   79SLPC  H10X 7316   3.680   3.869   7.684  1.1251 -0.2521 -0.6346
   79SLPC  H10Y 7317   3.789   4.000   7.717  0.9460 -0.0735  5.1532
   79SLPC  C311 7318   3.817   3.823   7.855 -0.1656 -0.9705 -0.1284
   79SLPC  H11X 7319   3.787   3.716   7.861  1.8355 -1.8202 -3.8378
   79SLPC  H11Y 7320   3.752   3.874   7.930 -1.9731 -0.8235 -1.7525
   79SLPC  C312 7321   3.966   3.838   7.891 -0.4427  0.2600 -0.1855
   79SLPC  H12X 7322   4.000   3.940   7.863 -0.4835 -0.2926 -2.2903
   79SLPC  H12Y 7323   4.029   3.770   7.830  0.0224  0.9930 -0.5260
   79SLPC  C313 7324   3.986   3.820   8.042 -0.0124 -0.3471 -0.5167
   79SLPC  H13X 7325   3.947   3.725   8.083  2.6820 -0.5789  1.6682
   79SLPC  H13Y 7326   3.942   3.903   8.101  0.9090  0.7558 -1.3520
   79SLPC  C314 7327   4.139   3.819   8.066 -0.0523 -0.7094 -0.5409
   79SLPC  H14X 7328   4.182   3.913   8.023  0.0913 -1.3064 -1.7202
   79SLPC  H14Y 7329   4.179   3.724   8.026 -1.9446 -1.6306 -0.2579
   79SLPC  C315 7330   4.167   3.831   8.216  0.1773  0.1045 -0.0588
   79SLPC  H15X 7331   4.138   3.733   8.259 -2.8976  0.0974 -1.9963
   79SLPC  H15Y 7332   4.110   3.915   8.261 -0.8864 -1.0893  0.8485
   79SLPC  C316 7333   4.316   3.858   8.240 -0.5598 -0.1895  0.1045
   79SLPC  H16X 7334   4.347   3.842   8.346  0.7638 -0.3455 -0.2957
   79SLPC  H16Y 7335   4.342   3.961   8.208 -1.6551  0.4124  1.1313
   79SLPC  C317 7336   4.413   3.767   8.151  0.5317  0.9453 -0.4823
   79SLPC  H17X 7337   4.397   3.784   8.043 -0.4495 -1.1192 -0.6929
   79SLPC  H17Y 7338   4.390   3.660   8.173  0.2151  1.5587  2.2650
   79SLPC  C318 7339   4.561   3.795   8.178  0.0820 -0.5946 -0.0038
   79SLPC  H18X 7340   4.589   3.765   8.281  1.3378 -0.8278 -0.4012
   79SLPC  H18Y 7341   4.584   3.904   8.179  1.9884 -0.9798  0.9909
   79SLPC  H18Z 7342   4.636   3.746   8.112  1.4467  0.3054  0.8429
   80SLPC     N 7343   4.971   1.967   6.561 -1.0851  0.4713  0.2536
   80SLPC   C13 7344   4.843   1.884   6.563 -0.1953 -0.2917  0.4031
   80SLPC  H13A 7345   4.756   1.940   6.531 -0.8944 -2.7694 -2.1972
   80SLPC  H13B 7346   4.855   1.807   6.489 -0.4999  0.9595 -0.9753
   80SLPC  H13C 7347   4.823   1.846   6.662 -0.7629 -0.8647  0.0660
   80SLPC   C14 7348   5.067   1.901   6.647 -0.3189  0.1948 -0.7546
   80SLPC  H14A 7349   5.033   1.880   6.747 -1.6177 -0.1789 -1.2553
   80SLPC  H14B 7350   5.110   1.809   6.609  1.4013  1.0298 -0.8451
   80SLPC  H14C 7351   5.158   1.959   6.651  0.9743 -1.9067  1.4892
   80SLPC   C15 7352   4.943   2.094   6.636  0.0613 -0.4251  0.2965
   80SLPC  H15A 7353   4.879   2.156   6.575  0.4966 -0.1645  0.0944
   80SLPC  H15B 7354   4.889   2.065   6.725  0.3156 -1.5891  0.0847
   80SLPC  H15C 7355   5.029   2.145   6.677 -0.5895  1.5863 -0.7570
   80SLPC   C12 7356   5.026   1.992   6.422  0.4505 -0.2548 -0.0667
   80SLPC  H12A 7357   5.113   2.053   6.438 -1.8904  2.8810  1.2823
   80SLPC  H12B 7358   4.957   2.045   6.358  0.9083 -0.6457 -0.8904
   80SLPC   C11 7359   5.073   1.858   6.349 -0.2095 -0.3436 -0.1135
   80SLPC  H11A 7360   5.164   1.822   6.402  0.3560  1.3340  0.0997
   80SLPC  H11B 7361   5.114   1.877   6.248 -0.6589  1.1850 -0.0276
   80SLPC     P 7362   5.004   1.611   6.359 -0.1730 -0.6484 -0.2744
   80SLPC   O13 7363   4.886   1.535   6.394 -0.1047  0.1864 -0.3100
   80SLPC   O14 7364   5.095   1.562   6.252  0.4527 -0.6321 -0.2806
   80SLPC   O12 7365   4.968   1.758   6.330  0.0813  0.1258 -0.2031
   80SLPC   O11 7366   5.091   1.620   6.490  0.3516  0.5132 -0.7686
   80SLPC    C1 7367   5.157   1.502   6.546 -0.0032 -0.0869 -0.1256
   80SLPC    HA 7368   5.069   1.448   6.588  0.2924  1.2206  2.2819
   80SLPC    HB 7369   5.222   1.451   6.472  1.4181  0.3168  0.8145
   80SLPC    C2 7370   5.250   1.544   6.657 -0.1789  0.6270 -0.0789
   80SLPC    HS 7371   5.290   1.453   6.708 -1.7404  1.5347  2.8911
   80SLPC   O21 7372   5.183   1.620   6.764 -0.2203 -0.0417  0.3743
   80SLPC   C21 7373   5.098   1.549   6.839 -0.9280  0.6091 -0.1195
   80SLPC   O22 7374   5.085   1.427   6.837  0.0720  0.4283  0.4632
   80SLPC   C22 7375   5.017   1.636   6.930  1.0892 -0.8924 -0.2070
   80SLPC   H2R 7376   4.951   1.695   6.863 -0.5330 -2.4345  0.0048
   80SLPC   H2S 7377   4.958   1.578   7.004 -1.1141  2.7149  0.9870
   80SLPC    C3 7378   5.370   1.629   6.601  0.2215 -0.1550  0.3404
   80SLPC    HX 7379   5.341   1.729   6.562  0.2227 -0.0728  0.5468
   80SLPC    HY 7380   5.405   1.564   6.518 -1.3422  0.4022 -0.7698
   80SLPC   O31 7381   5.477   1.634   6.705  0.3488 -0.5575 -0.5975
   80SLPC   C31 7382   5.473   1.736   6.794 -0.3110 -0.2786 -0.5833
   80SLPC   O32 7383   5.390   1.825   6.800 -0.5109  0.3707  0.2449
   80SLPC   C32 7384   5.588   1.715   6.894 -0.3525 -0.3859 -0.1460
   80SLPC   H2X 7385   5.625   1.811   6.936 -1.1854 -1.3025  2.7998
   80SLPC   H2Y 7386   5.677   1.667   6.847  1.0870  1.0336  1.0824
   80SLPC   C23 7387   5.094   1.740   7.015  0.0381 -0.6308  0.1008
   80SLPC   H3R 7388   5.037   1.825   7.057  1.2823  0.1706  0.2058
   80SLPC   H3S 7389   5.160   1.787   6.938  0.5887 -0.6703  0.5427
   80SLPC   C24 7390   5.185   1.680   7.125  0.6914  0.1656  0.1138
   80SLPC   H4R 7391   5.262   1.617   7.077  0.8506  1.0813 -0.8535
   80SLPC   H4S 7392   5.125   1.621   7.198  2.1257 -0.6140  0.6656
   80SLPC   C25 7393   5.253   1.793   7.211 -0.1974  0.1596  0.0283
   80SLPC   H5R 7394   5.317   1.860   7.150  3.6108 -0.6290  2.9788
   80SLPC   H5S 7395   5.326   1.734   7.271 -0.7501 -1.0461 -0.4554
   80SLPC   C26 7396   5.161   1.879   7.301  0.9183  0.3351  0.4751
   80SLPC   H6R 7397   5.106   1.800   7.358  1.7189  0.2633  1.1642
   80SLPC   H6S 7398   5.089   1.936   7.239 -0.4544 -1.1103  0.7041
   80SLPC   C27 7399   5.235   1.970   7.392  0.1633  0.2910  0.0411
   80SLPC   H7R 7400   5.295   2.041   7.331 -1.6356  0.3096 -1.7635
   80SLPC   H7S 7401   5.307   1.906   7.448  0.8010  0.7218 -0.2844
   80SLPC   C28 7402   5.144   2.034   7.503  0.0674  0.7750  0.3369
   80SLPC   H8R 7403   5.090   1.948   7.550  0.1556  1.5137  1.8039
   80SLPC   H8S 7404   5.063   2.092   7.454 -0.0412 -0.6921 -1.2922
   80SLPC   C29 7405   5.237   2.113   7.592  0.1546 -0.0440 -0.1130
   80SLPC   H9R 7406   5.289   2.194   7.537  2.3324 -0.5292  1.1879
   80SLPC  C210 7407   5.230   2.120   7.725 -0.5205  0.4684  0.3881
   80SLPC  H10R 7408   5.292   2.191   7.781 -0.2365  1.0341 -0.6252
   80SLPC  C211 7409   5.146   2.040   7.821  0.2903 -1.2493  0.3527
   80SLPC  H11R 7410   5.082   1.967   7.767 -1.1501  0.1406  0.1152
   80SLPC  H11S 7411   5.073   2.108   7.870  3.2782  3.3056 -1.1805
   80SLPC  C212 7412   5.240   1.965   7.909  0.0638  0.5544 -0.3200
   80SLPC  H12R 7413   5.331   1.922   7.863 -0.8078 -1.2631 -0.3961
   80SLPC  C213 7414   5.229   1.959   8.045 -0.6439  0.2269 -1.2465
   80SLPC  H13R 7415   5.302   1.895   8.097 -1.4858 -1.2315 -1.8522
   80SLPC  C214 7416   5.124   2.018   8.140  0.1855  0.4624  1.1031
   80SLPC  H14R 7417   5.035   2.047   8.080  0.5548 -0.5010  0.0756
   80SLPC  H14S 7418   5.160   2.109   8.192  1.5332 -0.3088  1.5494
   80SLPC  C215 7419   5.093   1.903   8.250  0.0907  0.3654  0.5422
   80SLPC  H15R 7420   5.016   1.949   8.316 -1.4227  1.3666 -1.8191
   80SLPC  H15S 7421   5.188   1.892   8.307  0.4031  0.8855  0.1208
   80SLPC  C216 7422   5.040   1.771   8.192 -0.2632  0.4265 -0.0161
   80SLPC  H16R 7423   5.118   1.712   8.140 -0.8469  0.0294 -0.4509
   80SLPC  H16S 7424   4.961   1.804   8.121  1.4875  1.0619 -1.7097
   80SLPC  C217 7425   4.969   1.692   8.299  0.1643 -0.2512  0.0179
   80SLPC  H17R 7426   4.896   1.750   8.359 -0.0927  1.0203 -1.4849
   80SLPC  H17S 7427   5.044   1.641   8.363  1.3459  1.8016  0.3281
   80SLPC  C218 7428   4.884   1.572   8.240  1.0048  1.0115 -0.1756
   80SLPC  H18R 7429   4.789   1.608   8.196 -0.6992 -2.5997  0.3935
   80SLPC  H18S 7430   4.864   1.499   8.321  0.3430 -0.3785 -1.5660
   80SLPC  H18T 7431   4.944   1.518   8.163  2.2216 -0.0008  1.4316
   80SLPC   C33 7432   5.559   1.617   7.010 -0.1920 -0.0985 -0.8744
   80SLPC   H3X 7433   5.505   1.526   6.976 -1.2694  1.0049 -2.1316
   80SLPC   H3Y 7434   5.488   1.675   7.073 -1.9101 -3.3294  0.3018
   80SLPC   C34 7435   5.679   1.576   7.093 -0.2301 -0.0750 -0.4500
   80SLPC   H4X 7436   5.721   1.672   7.131 -0.5132 -0.5213  0.9905
   80SLPC   H4Y 7437   5.752   1.532   7.022 -0.5587 -1.1462 -0.1205
   80SLPC   C35 7438   5.653   1.486   7.214  0.0408 -0.2406  1.0674
   80SLPC   H5X 7439   5.611   1.389   7.181  2.1752 -0.2922 -1.7578
   80SLPC   H5Y 7440   5.569   1.528   7.273 -1.9554 -3.3624  0.5806
   80SLPC   C36 7441   5.780   1.463   7.301 -0.4572  0.6538  0.6304
   80SLPC   H6X 7442   5.815   1.555   7.353 -1.3435  1.6496 -0.4811
   80SLPC   H6Y 7443   5.866   1.425   7.243 -1.1946  0.6101 -0.4552
   80SLPC   C37 7444   5.763   1.359   7.413  0.1759  0.9879  0.0040
   80SLPC   H7X 7445   5.861   1.335   7.460  0.3821  0.7920 -0.5304
   80SLPC   H7Y 7446   5.730   1.268   7.358  1.9959 -1.5350  2.9103
   80SLPC   C38 7447   5.648   1.383   7.512 -0.3469 -0.0473  0.5224
   80SLPC   H8X 7448   5.564   1.434   7.461 -1.8224 -2.1421  0.8108
   80SLPC   H8Y 7449   5.692   1.451   7.588  0.6983 -0.3185  0.1756
   80SLPC   C39 7450   5.598   1.246   7.557  0.7355  0.1554  0.2634
   80SLPC   H9X 7451   5.671   1.179   7.608  0.5167 -0.8385 -0.7109
   80SLPC   H9Y 7452   5.566   1.192   7.465  0.7796 -0.5843  0.6805
   80SLPC  C310 7453   5.461   1.256   7.641 -0.5269 -0.0905  0.0467
   80SLPC  H10X 7454   5.405   1.343   7.599  0.5290  0.8840  0.6480
   80SLPC  H10Y 7455   5.483   1.292   7.744 -0.6256 -0.2719  0.1299
   80SLPC  C311 7456   5.380   1.125   7.647 -0.4811 -0.4691  0.6618
   80SLPC  H11X 7457   5.347   1.110   7.542  2.1646 -0.1921 -0.2636
   80SLPC  H11Y 7458   5.290   1.142   7.709  0.1508  2.9282  0.7127
   80SLPC  C312 7459   5.455   1.007   7.709 -0.4616 -0.0087 -0.2658
   80SLPC  H12X 7460   5.561   1.014   7.679 -0.3623 -0.2198  0.0356
   80SLPC  H12Y 7461   5.409   0.916   7.664 -0.9103  0.1208 -0.0704
   80SLPC  C313 7462   5.447   0.998   7.861 -0.2864  0.0562 -0.0977
   80SLPC  H13X 7463   5.342   1.008   7.895  0.4044  0.8939  1.8783
   80SLPC  H13Y 7464   5.507   1.082   7.903  1.5310 -1.2458 -0.0087
   80SLPC  C314 7465   5.508   0.862   7.920 -0.0815  0.6303  0.2873
   80SLPC  H14X 7466   5.615   0.839   7.905 -0.0107 -0.6951  2.5457
   80SLPC  H14Y 7467   5.461   0.777   7.866  0.0486 -0.2194  1.4805
   80SLPC  C315 7468   5.489   0.847   8.075 -0.2922 -0.0252  0.1171
   80SLPC  H15X 7469   5.539   0.932   8.126  0.1640 -2.0125  3.1301
   80SLPC  H15Y 7470   5.557   0.763   8.100  2.2699  2.2582  1.1547
   80SLPC  C316 7471   5.352   0.810   8.129  0.2542  0.2219 -0.1114
   80SLPC  H16X 7472   5.317   0.714   8.084 -1.1522  1.1098 -0.9298
   80SLPC  H16Y 7473   5.276   0.884   8.096  0.9004 -0.4273 -3.2728
   80SLPC  C317 7474   5.344   0.794   8.286 -0.2223  0.9142 -0.1090
   80SLPC  H17X 7475   5.369   0.891   8.334  0.0508  0.0019  1.6452
   80SLPC  H17Y 7476   5.415   0.719   8.329 -1.8855  0.2034  1.5031
   80SLPC  C318 7477   5.208   0.742   8.326  0.2979  0.3776 -0.9747
   80SLPC  H18X 7478   5.132   0.816   8.290 -0.8944 -0.7300 -0.7559
   80SLPC  H18Y 7479   5.201   0.740   8.436  2.2127 -2.7247 -0.8669
   80SLPC  H18Z 7480   5.178   0.649   8.273 -2.6243 -0.3372  1.7541
   81SAPS     N 7481   5.908   3.439  11.165 -0.3422 -0.0285  0.1329
   81SAPS   HN1 7482   5.811   3.433  11.202  1.6429  1.2013  5.9945
   81SAPS   HN2 7483   5.974   3.368  11.204  0.0900  0.4006  0.1827
   81SAPS   HN3 7484   5.937   3.533  11.197  0.7719 -0.2688 -0.1194
   81SAPS   C12 7485   5.917   3.442  11.016  0.1582 -0.7377  0.8283
   81SAPS  H12A 7486   5.882   3.540  10.990  0.1328 -0.7276  0.9004
   81SAPS   C13 7487   6.063   3.428  10.955  0.4296  1.0568  0.4668
   81SAPS  O13A 7488   6.159   3.433  11.034  0.0303 -0.3199 -0.1095
   81SAPS  O13B 7489   6.084   3.454  10.834 -0.6312 -0.1108 -0.0940
   81SAPS   C11 7490   5.821   3.334  10.959 -0.7518  0.1091  0.7178
   81SAPS  H11A 7491   5.861   3.237  10.995  1.0575  0.6229  0.1678
   81SAPS  H11B 7492   5.831   3.322  10.848  0.8916 -2.0694  1.0501
   81SAPS     P 7493   5.584   3.433  10.902 -0.5488 -0.4829 -0.1070
   81SAPS   O13 7494   5.445   3.406  10.950 -0.0911  0.3647  0.0232
   81SAPS   O14 7495   5.632   3.574  10.902 -0.0107  0.0992  0.0389
   81SAPS   O12 7496   5.682   3.346  10.989 -0.8975  0.4287  0.2929
   81SAPS   O11 7497   5.601   3.391  10.750  0.1291 -0.4381 -0.1237
   81SAPS    C1 7498   5.586   3.250  10.721 -0.4431  0.0624  0.1195
   81SAPS    HA 7499   5.680   3.202  10.755 -0.7440  0.0112  0.8838
   81SAPS    HB 7500   5.505   3.208  10.784  1.1948  0.5571  2.6245
   81SAPS    C2 7501   5.565   3.199  10.577  0.1119 -0.2272  0.0328
   81SAPS    HS 7502   5.611   3.099  10.564 -1.1689 -0.6732 -1.1281
   81SAPS   O21 7503   5.629   3.287  10.484 -0.5636  0.1709  0.0601
   81SAPS   C21 7504   5.760   3.296  10.481  0.6640  0.1027 -0.1011
   81SAPS   O22 7505   5.845   3.241  10.550  0.1779  0.5571  0.3255
   81SAPS   C22 7506   5.782   3.422  10.399 -0.2366  0.0989  0.4523
   81SAPS   H2R 7507   5.705   3.433  10.319  1.1218  1.7856 -0.6624
   81SAPS   H2S 7508   5.763   3.510  10.465 -2.7760 -0.2366  0.2357
   81SAPS    C3 7509   5.417   3.196  10.547 -0.5867 -0.0675 -0.4138
   81SAPS    HX 7510   5.380   3.300  10.561  1.5678  0.6358  0.3307
   81SAPS    HY 7511   5.375   3.121  10.617 -0.2849  1.5294  1.5305
   81SAPS   O31 7512   5.398   3.131  10.421  0.5767 -0.5545  0.2793
   81SAPS   C31 7513   5.362   3.202  10.317 -0.0656  0.1040  0.1840
   81SAPS   O32 7514   5.311   3.313  10.316  0.3017  0.3792  0.1918
   81SAPS   C32 7515   5.370   3.116  10.184 -0.3395 -0.2866 -0.3389
   81SAPS   H2X 7516   5.309   3.024  10.197 -0.5867 -0.1292 -0.3797
   81SAPS   H2Y 7517   5.479   3.095  10.176  0.0008  1.3202  0.0260
   81SAPS   C23 7518   5.920   3.437  10.331 -0.1495  0.5093 -0.1129
   81SAPS   H3R 7519   5.905   3.353  10.259 -2.8403  0.7921  0.0916
   81SAPS   H3S 7520   5.998   3.404  10.403  1.7864 -1.8956 -3.1067
   81SAPS   C24 7521   5.943   3.569  10.264  0.4894  0.6463  0.7874
   81SAPS   H4R 7522   6.051   3.588  10.245  0.2048  1.0839 -0.5221
   81SAPS   H4S 7523   5.928   3.650  10.338  3.1215  0.6972  1.3263
   81SAPS   C25 7524   5.873   3.587  10.137  0.2585  0.3251 -0.1743
   81SAPS   H5R 7525   5.764   3.578  10.149  0.1919 -0.0414 -1.0101
   81SAPS   C26 7526   5.921   3.573  10.013 -0.0960  0.4126  0.0195
   81SAPS   H6R 7527   5.853   3.585   9.927 -1.1556 -1.3193  0.5709
   81SAPS   C27 7528   6.060   3.550   9.969 -0.1827  0.4285 -0.1039
   81SAPS   H7R 7529   6.131   3.561  10.054  1.5177  0.6531 -1.5110
   81SAPS   H7S 7530   6.096   3.633   9.903  1.1980 -0.5131 -0.5607
   81SAPS   C28 7531   6.086   3.413   9.899  0.6280 -0.5098  0.5365
   81SAPS   H8R 7532   6.090   3.331   9.973  2.6136 -1.2078 -0.3275
   81SAPS   C29 7533   6.094   3.391   9.769 -0.1264 -0.3372 -0.8400
   81SAPS   H9R 7534   6.106   3.287   9.734  0.9430 -0.5805  0.2309
   81SAPS  C210 7535   6.080   3.491   9.659  0.6285  0.8976 -0.3835
   81SAPS  H10R 7536   6.165   3.475   9.590 -1.1535 -0.2201 -2.3738
   81SAPS  H10S 7537   6.090   3.596   9.696  4.0032 -0.2560  2.2638
   81SAPS  C211 7538   5.948   3.475   9.583  0.4548  0.0413  0.4388
   81SAPS  H11R 7539   5.926   3.369   9.563  1.7801 -0.0034 -0.7786
   81SAPS  C212 7540   5.860   3.568   9.539 -0.5108 -0.4421 -0.1780
   81SAPS  H12R 7541   5.778   3.531   9.475 -1.1413  0.5929  0.0278
   81SAPS  C213 7542   5.880   3.713   9.553 -0.1132 -0.2472 -0.1013
   81SAPS  H13R 7543   5.871   3.773   9.460 -1.7148 -0.5308 -0.1529
   81SAPS  H13S 7544   5.986   3.732   9.580  0.7844 -0.8464 -3.0862
   81SAPS  C214 7545   5.797   3.777   9.663 -0.7995  0.6429 -0.6309
   81SAPS  H14R 7546   5.758   3.705   9.736 -0.5898  0.1350 -1.0190
   81SAPS  C215 7547   5.790   3.905   9.694 -0.4059  0.1583  0.6939
   81SAPS  H15R 7548   5.729   3.922   9.784 -0.7394  0.9988  0.3129
   81SAPS  C216 7549   5.844   4.030   9.631  0.2084  0.2392  0.1923
   81SAPS  H16R 7550   5.760   4.079   9.576  0.9136 -0.6735 -1.7587
   81SAPS  H16S 7551   5.925   4.008   9.559 -1.2565 -4.6920 -0.1285
   81SAPS  C217 7552   5.910   4.123   9.737  0.8923  0.0872 -0.4204
   81SAPS  H17R 7553   5.821   4.153   9.797  0.2947 -0.6994 -0.9038
   81SAPS  H17S 7554   5.938   4.217   9.684  2.0602  0.8176  1.4374
   81SAPS  C218 7555   6.025   4.064   9.808 -0.0240  0.0587  0.1096
   81SAPS  H18R 7556   6.092   4.009   9.738 -2.6342 -2.2460 -0.6538
   81SAPS  H18S 7557   5.994   3.990   9.885 -1.2492  0.6268  0.1607
   81SAPS  C219 7558   6.109   4.178   9.866 -0.0757 -0.6288  0.4381
   81SAPS  H19R 7559   6.038   4.252   9.910 -0.4421 -1.3970  1.1399
   81SAPS  H19S 7560   6.153   4.225   9.775  0.2042 -0.4367  0.6719
   81SAPS  C220 7561   6.234   4.143   9.958 -0.5834  0.8467  0.0451
   81SAPS  H20R 7562   6.306   4.082   9.900 -1.2568  0.1802 -0.1051
   81SAPS  H20S 7563   6.219   4.091  10.055 -0.4268  1.4559  0.3965
   81SAPS  H20T 7564   6.300   4.231   9.969 -1.3581  1.4164  0.2108
   81SAPS   C33 7565   5.320   3.195  10.063 -0.4448 -0.5223  0.3795
   81SAPS   H3X 7566   5.401   3.266  10.036 -0.0170 -1.7271 -1.6793
   81SAPS   H3Y 7567   5.223   3.235  10.099 -0.0785 -0.8282  1.7002
   81SAPS   C34 7568   5.287   3.124   9.928 -0.6640  0.1249  0.6434
   81SAPS   H4X 7569   5.387   3.107   9.883 -1.0041  2.3604 -1.0746
   81SAPS   H4Y 7570   5.240   3.191   9.853  0.9615 -1.3579 -1.7870
   81SAPS   C35 7571   5.227   2.988   9.943  0.6108 -0.1746 -0.5745
   81SAPS   H5X 7572   5.146   2.980  10.019  1.1475  2.2872  0.2868
   81SAPS   H5Y 7573   5.311   2.921   9.972 -0.3708 -0.7469  1.0524
   81SAPS   C36 7574   5.176   2.932   9.814  0.0655 -0.1635 -0.2461
   81SAPS   H6X 7575   5.121   3.012   9.760 -1.0724  0.0668  1.2192
   81SAPS   H6Y 7576   5.111   2.844   9.835  2.4341 -2.2503 -1.5413
   81SAPS   C37 7577   5.282   2.892   9.711  0.5339 -0.3626 -0.1901
   81SAPS   H7X 7578   5.358   2.818   9.746 -0.4967 -2.3257 -2.0836
   81SAPS   H7Y 7579   5.343   2.982   9.687  0.9930 -0.1229  1.7508
   81SAPS   C38 7580   5.220   2.842   9.574  0.0202 -0.2090  0.1113
   81SAPS   H8X 7581   5.131   2.897   9.538  0.6888  0.5359 -0.4144
   81SAPS   H8Y 7582   5.193   2.735   9.579  1.2761 -0.5305  0.4141
   81SAPS   C39 7583   5.329   2.849   9.465 -0.7933 -0.3938  0.1584
   81SAPS   H9X 7584   5.424   2.799   9.493 -1.1665 -0.2283  1.7838
   81SAPS   H9Y 7585   5.350   2.955   9.441  0.3261 -0.7639 -0.5533
   81SAPS  C310 7586   5.274   2.788   9.330  0.2045 -0.1056 -0.0113
   81SAPS  H10X 7587   5.184   2.845   9.300  1.0526  0.9265 -0.6515
   81SAPS  H10Y 7588   5.261   2.679   9.345 -3.2566  0.6089  2.9575
   81SAPS  C311 7589   5.372   2.807   9.208 -0.0741  0.3016 -0.0295
   81SAPS  H11X 7590   5.462   2.753   9.246 -0.8303 -1.2891 -0.4646
   81SAPS  H11Y 7591   5.391   2.916   9.194  0.3013  0.2089 -0.2307
   81SAPS  C312 7592   5.332   2.740   9.082  0.1938 -0.0617 -0.4974
   81SAPS  H12X 7593   5.312   2.637   9.119 -1.1545  0.2572 -0.2882
   81SAPS  H12Y 7594   5.412   2.753   9.006  0.2715  2.7104  0.0072
   81SAPS  C313 7595   5.199   2.786   9.031 -0.0957  0.1871 -0.2418
   81SAPS  H13X 7596   5.189   2.897   9.033 -1.8644  0.0441  2.8564
   81SAPS  H13Y 7597   5.116   2.765   9.102 -0.5668  1.1456 -0.4880
   81SAPS  C314 7598   5.155   2.728   8.898 -0.0242  0.2240 -0.1786
   81SAPS  H14X 7599   5.174   2.619   8.893 -0.7360  0.1025 -0.2855
   81SAPS  H14Y 7600   5.219   2.778   8.822 -1.0576 -0.9010 -1.8104
   81SAPS  C315 7601   5.012   2.761   8.863  0.3183 -0.2121 -0.1030
   81SAPS  H15X 7602   4.984   2.868   8.859 -0.8541 -0.4382  1.4142
   81SAPS  H15Y 7603   4.960   2.729   8.957 -2.0304 -0.9697 -1.5954
   81SAPS  C316 7604   4.946   2.683   8.746 -0.4790 -0.3922 -0.1513
   81SAPS  H16X 7605   4.971   2.576   8.760 -0.6873 -0.2512  1.3717
   81SAPS  H16Y 7606   4.993   2.716   8.651  1.0540 -0.4254  0.5839
   81SAPS  C317 7607   4.796   2.687   8.747 -0.0477 -0.1146 -0.4999
   81SAPS  H17X 7608   4.765   2.658   8.850  0.8808 -0.6286 -0.3540
   81SAPS  H17Y 7609   4.761   2.603   8.683  1.9762 -0.9011 -0.6062
   81SAPS  C318 7610   4.724   2.810   8.694 -0.3188  0.5782 -0.3459
   81SAPS  H18X 7611   4.740   2.896   8.763 -0.1708 -0.3073  0.7399
   81SAPS  H18Y 7612   4.614   2.791   8.700  0.0456 -1.3719  0.2253
   81SAPS  H18Z 7613   4.749   2.831   8.588  1.0282  2.3245  0.2988
   82SAPS     N 7614   4.751   2.285  11.141  0.0959  0.1944 -0.2796
   82SAPS   HN1 7615   4.680   2.253  11.072  0.4630 -0.2708 -0.4485
   82SAPS   HN2 7616   4.840   2.237  11.117  2.0672  3.1371  0.8830
   82SAPS   HN3 7617   4.725   2.248  11.234  0.6214 -0.0219 -0.2144
   82SAPS   C12 7618   4.744   2.432  11.128 -0.0608  0.6824  0.4405
   82SAPS  H12A 7619   4.665   2.459  11.196 -0.6680  0.4725 -0.1692
   82SAPS   C13 7620   4.874   2.506  11.169  0.2247  0.8309 -0.3877
   82SAPS  O13A 7621   4.950   2.446  11.244 -0.0975 -0.2001  0.4573
   82SAPS  O13B 7622   4.885   2.633  11.148 -0.6263 -0.6135  0.6216
   82SAPS   C11 7623   4.722   2.463  10.976  0.0862 -0.1576  0.6169
   82SAPS  H11A 7624   4.814   2.457  10.915 -0.9738 -1.8569 -0.8758
   82SAPS  H11B 7625   4.694   2.568  10.956 -0.5312  0.1862  3.0505
   82SAPS     P 7626   4.479   2.401  10.934 -0.5233  0.1743  0.2715
   82SAPS   O13 7627   4.396   2.279  10.924  0.6435  0.0987  0.1111
   82SAPS   O14 7628   4.458   2.487  11.055 -0.0277  0.6907 -0.1831
   82SAPS   O12 7629   4.627   2.371  10.925  0.1519  0.6417 -1.0130
   82SAPS   O11 7630   4.450   2.483  10.800  0.6315 -0.4308  0.1964
   82SAPS    C1 7631   4.467   2.623  10.780  0.4805 -0.6767  0.2321
   82SAPS    HA 7632   4.460   2.682  10.874  1.4485  0.0013 -0.1095
   82SAPS    HB 7633   4.564   2.646  10.729 -0.3584  1.3452 -0.5253
   82SAPS    C2 7634   4.340   2.677  10.695 -0.5211  0.3481  0.0050
   82SAPS    HS 7635   4.257   2.681  10.769 -2.2918 -0.9990 -1.8469
   82SAPS   O21 7636   4.316   2.578  10.589  0.4127 -0.8295  0.3688
   82SAPS   C21 7637   4.201   2.600  10.522 -0.3224 -0.8110 -1.4594
   82SAPS   O22 7638   4.121   2.682  10.554  0.0928 -0.4268 -0.4650
   82SAPS   C22 7639   4.202   2.516  10.401 -0.6332  0.5611  0.3902
   82SAPS   H2R 7640   4.231   2.415  10.437  1.0912  1.3711  1.3339
   82SAPS   H2S 7641   4.099   2.504  10.361 -0.4950  1.0181 -0.1144
   82SAPS    C3 7642   4.363   2.825  10.639  0.2644 -0.4456  0.3405
   82SAPS    HX 7643   4.384   2.884  10.730 -0.1826  2.0699 -1.1531
   82SAPS    HY 7644   4.271   2.876  10.601 -0.3610 -1.7321  0.0786
   82SAPS   O31 7645   4.477   2.835  10.545  0.0093 -0.3474  0.2048
   82SAPS   C31 7646   4.501   2.958  10.515 -1.1185 -0.2518  0.3217
   82SAPS   O32 7647   4.462   3.053  10.577 -0.3675 -0.5277 -0.1573
   82SAPS   C32 7648   4.600   2.966  10.398  0.8395  0.4021 -0.0629
   82SAPS   H2X 7649   4.698   2.922  10.427  0.0017 -1.8958 -0.6087
   82SAPS   H2Y 7650   4.609   3.072  10.367  0.7431  0.7637  1.1154
   82SAPS   C23 7651   4.299   2.568  10.293 -0.3561 -0.0947 -0.4011
   82SAPS   H3R 7652   4.404   2.584  10.326 -0.2543 -1.4386 -0.0308
   82SAPS   H3S 7653   4.268   2.671  10.266 -1.7427 -0.7086 -1.2562
   82SAPS   C24 7654   4.293   2.476  10.164  0.1179 -0.0844  0.0967
   82SAPS   H4R 7655   4.330   2.376  10.197  0.2839  0.1397  0.5987
   82SAPS   H4S 7656   4.363   2.521  10.091 -0.1252 -0.3384 -0.2997
   82SAPS   C25 7657   4.155   2.467  10.104 -0.3016  0.4838 -0.1582
   82SAPS   H5R 7658   4.097   2.383  10.147 -0.3557  2.1566  3.1626
   82SAPS   C26 7659   4.105   2.572  10.034  0.2906  0.4066 -0.1749
   82SAPS   H6R 7660   3.999   2.567  10.006  0.0434 -0.0753  0.8034
   82SAPS   C27 7661   4.165   2.704   9.997  0.1516 -0.2188 -0.6353
   82SAPS   H7R 7662   4.274   2.717  10.012 -0.2902 -0.2413  3.1297
   82SAPS   H7S 7663   4.128   2.783  10.066  2.0834  1.3215 -1.3106
   82SAPS   C28 7664   4.131   2.754   9.858 -0.1734  0.7897  0.2548
   82SAPS   H8R 7665   4.225   2.791   9.815  0.7849 -0.8127  0.9046
   82SAPS   C29 7666   4.014   2.773   9.797 -0.3918 -0.8862 -0.0479
   82SAPS   H9R 7667   4.011   2.811   9.694  2.2026 -1.8953 -0.5501
   82SAPS  C210 7668   3.878   2.747   9.852 -0.4677  0.3112 -0.5873
   82SAPS  H10R 7669   3.864   2.813   9.941 -1.1788 -0.8870  0.2063
   82SAPS  H10S 7670   3.871   2.645   9.895  1.0128  1.6217  2.9626
   82SAPS  C211 7671   3.767   2.782   9.754 -0.5047 -0.0956 -0.1474
   82SAPS  H11R 7672   3.785   2.732   9.658  0.8742  0.6955 -0.3095
   82SAPS  C212 7673   3.650   2.832   9.782 -0.7037 -0.5973 -0.1461
   82SAPS  H12R 7674   3.576   2.851   9.702 -1.4587 -0.9560  0.4668
   82SAPS  C213 7675   3.606   2.877   9.923 -0.1851 -0.5072 -0.3785
   82SAPS  H13R 7676   3.673   2.957   9.961 -0.0055 -0.7397 -0.2025
   82SAPS  H13S 7677   3.620   2.786   9.985 -0.3602 -0.4553 -0.2618
   82SAPS  C214 7678   3.460   2.920   9.937 -0.3067  0.0063  0.0083
   82SAPS  H14R 7679   3.423   2.980   9.852 -1.1915 -0.4012  0.1075
   82SAPS  C215 7680   3.374   2.926  10.041 -1.1917  0.2501  0.5704
   82SAPS  H15R 7681   3.270   2.952  10.016 -0.6939 -0.3061 -2.3739
   82SAPS  C216 7682   3.404   2.878  10.184  0.0686  0.1347 -0.0015
   82SAPS  H16R 7683   3.406   2.962  10.256  0.3537 -1.2669  1.6798
   82SAPS  H16S 7684   3.507   2.837  10.192 -0.2081 -0.6882 -0.5430
   82SAPS  C217 7685   3.298   2.778  10.230 -0.1439  0.3692  0.3958
   82SAPS  H17R 7686   3.303   2.694  10.158 -1.2402  1.2242 -0.7117
   82SAPS  H17S 7687   3.195   2.817  10.218  0.2071  1.0096 -0.6002
   82SAPS  C218 7688   3.326   2.728  10.372  0.5181 -0.0333 -0.6816
   82SAPS  H18R 7689   3.303   2.815  10.437 -2.8802  2.5777 -5.1063
   82SAPS  H18S 7690   3.429   2.693  10.393 -0.6213 -1.2339  3.3979
   82SAPS  C219 7691   3.234   2.609  10.417  0.4494  0.0072  0.4603
   82SAPS  H19R 7692   3.131   2.639  10.387  0.8176 -0.9597 -1.8374
   82SAPS  H19S 7693   3.223   2.603  10.527 -1.3015  0.6520  0.3271
   82SAPS  C220 7694   3.255   2.470  10.355 -0.3221 -0.2358 -0.0636
   82SAPS  H20R 7695   3.335   2.419  10.412  0.0308 -0.1569 -0.4888
   82SAPS  H20S 7696   3.286   2.471  10.249 -1.5472  1.2209 -0.4272
   82SAPS  H20T 7697   3.159   2.413  10.354 -0.6297  0.2879 -1.0589
   82SAPS   C33 7698   4.562   2.891  10.266  0.8049 -0.1481 -0.1949
   82SAPS   H3X 7699   4.478   2.935  10.209 -0.4377 -1.1855  0.7887
   82SAPS   H3Y 7700   4.535   2.789  10.301 -0.9374  1.1195  2.2561
   82SAPS   C34 7701   4.689   2.885  10.178 -0.2439  0.4570  0.2229
   82SAPS   H4X 7702   4.777   2.846  10.232 -1.1116  0.3213  1.5886
   82SAPS   H4Y 7703   4.718   2.991  10.163  0.7373  0.1526 -0.0359
   82SAPS   C35 7704   4.674   2.802  10.048  0.6005 -0.3910 -0.4960
   82SAPS   H5X 7705   4.631   2.705  10.080  2.1223 -1.0673 -0.4780
   82SAPS   H5Y 7706   4.768   2.790   9.990 -0.4689 -0.5858 -2.2342
   82SAPS   C36 7707   4.569   2.861   9.951  0.7427  0.1968 -0.4520
   82SAPS   H6X 7708   4.605   2.956   9.905  0.2057 -0.7264 -2.8909
   82SAPS   H6Y 7709   4.477   2.876  10.011  0.3539 -2.2787 -0.3768
   82SAPS   C37 7710   4.546   2.774   9.827 -0.8533  0.9667 -0.1083
   82SAPS   H7X 7711   4.496   2.828   9.744 -1.4230 -1.0797 -1.1340
   82SAPS   H7Y 7712   4.470   2.699   9.858 -0.2865 -0.2546 -1.5554
   82SAPS   C38 7713   4.669   2.716   9.752  0.1826 -0.5248 -0.5730
   82SAPS   H8X 7714   4.725   2.635   9.803  2.3599 -0.2972 -2.4969
   82SAPS   H8Y 7715   4.750   2.792   9.747  0.2208 -0.5191  0.1532
   82SAPS   C39 7716   4.654   2.662   9.615  0.5758  0.0866  0.3191
   82SAPS   H9X 7717   4.581   2.717   9.552 -1.1752  1.4810  3.4856
   82SAPS   H9Y 7718   4.613   2.560   9.629 -1.4080  0.9301  0.8099
   82SAPS  C310 7719   4.789   2.639   9.543  0.2573  0.7373 -0.1843
   82SAPS  H10X 7720   4.828   2.547   9.592  1.5244  1.0874 -0.5007
   82SAPS  H10Y 7721   4.853   2.726   9.571  0.6071  0.0880  1.1064
   82SAPS  C311 7722   4.776   2.629   9.396  0.1634  0.2517  0.3554
   82SAPS  H11X 7723   4.747   2.726   9.352  1.1470  0.9092  1.1551
   82SAPS  H11Y 7724   4.705   2.547   9.371 -0.8722  1.1493  0.3581
   82SAPS  C312 7725   4.913   2.593   9.327  0.0869  0.2439 -0.2889
   82SAPS  H12X 7726   4.950   2.503   9.380  0.6763 -0.2767 -1.5585
   82SAPS  H12Y 7727   4.978   2.683   9.337  1.5574 -0.7768 -0.4888
   82SAPS  C313 7728   4.912   2.572   9.177  0.1622 -0.2990 -0.6326
   82SAPS  H13X 7729   5.016   2.569   9.138  0.9889  2.1188  1.2869
   82SAPS  H13Y 7730   4.866   2.659   9.125 -0.1598 -1.3230 -2.0772
   82SAPS  C314 7731   4.844   2.451   9.123 -0.4794  1.3187 -0.0480
   82SAPS  H14X 7732   4.762   2.482   9.055 -1.1967  2.1108  1.1576
   82SAPS  H14Y 7733   4.794   2.402   9.209  2.2633 -1.9754 -0.2398
   82SAPS  C315 7734   4.933   2.359   9.046  0.1148  0.0837 -0.4914
   82SAPS  H15X 7735   5.015   2.332   9.117 -1.4604 -1.4370  0.7911
   82SAPS  H15Y 7736   4.983   2.400   8.956  0.4570 -2.7951 -1.6460
   82SAPS  C316 7737   4.859   2.236   9.005  0.1349  0.8059  0.0894
   82SAPS  H16X 7738   4.834   2.187   9.102 -1.2870  0.7426 -0.2946
   82SAPS  H16Y 7739   4.919   2.167   8.942  0.6373  2.1599 -0.9583
   82SAPS  C317 7740   4.729   2.263   8.930  0.8231 -0.0097  0.1061
   82SAPS  H17X 7741   4.739   2.316   8.833  1.1472 -0.2215  0.0228
   82SAPS  H17Y 7742   4.657   2.323   8.989  0.5869  1.2890 -1.4863
   82SAPS  C318 7743   4.654   2.142   8.878 -0.3385 -0.7182  0.3866
   82SAPS  H18X 7744   4.661   2.063   8.957  2.6570 -0.6766  0.2442
   82SAPS  H18Y 7745   4.703   2.096   8.789  1.0128  1.0920  0.1779
   82SAPS  H18Z 7746   4.546   2.157   8.861 -0.3563 -1.7039 -0.4489
   83SAPS     N 7747   6.398   4.390  11.378  0.3143  0.7652 -0.3275
   83SAPS   HN1 7748   6.476   4.367  11.442 -1.0735 -0.4261  0.9643
   83SAPS   HN2 7749   6.329   4.312  11.385  0.9564  0.0086 -2.0565
   83SAPS   HN3 7750   6.436   4.398  11.281  0.6816  1.5532 -0.1252
   83SAPS   C12 7751   6.319   4.516  11.415  0.3653 -0.3720  0.9962
   83SAPS  H12A 7752   6.222   4.474  11.438 -1.5109  2.0865 -2.1520
   83SAPS   C13 7753   6.355   4.599  11.541 -0.0716  0.3769  0.8687
   83SAPS  O13A 7754   6.454   4.558  11.608 -0.1023 -0.2847 -0.0599
   83SAPS  O13B 7755   6.264   4.682  11.582  0.5126 -0.0313 -0.1246
   83SAPS   C11 7756   6.316   4.611  11.289 -1.1962  0.8865 -0.5613
   83SAPS  H11A 7757   6.251   4.695  11.322 -0.6603  1.2100 -0.3253
   83SAPS  H11B 7758   6.269   4.557  11.204 -0.2982 -1.2882  0.3028
   83SAPS     P 7759   6.518   4.590  11.116  0.4853 -0.2016 -0.0372
   83SAPS   O13 7760   6.663   4.618  11.122  0.1173 -0.4554 -0.4897
   83SAPS   O14 7761   6.480   4.449  11.123 -0.1319  0.0760  0.3042
   83SAPS   O12 7762   6.446   4.661  11.243 -0.2161  0.0618  0.4995
   83SAPS   O11 7763   6.457   4.655  10.986  0.5800 -0.4964  0.0347
   83SAPS    C1 7764   6.320   4.701  10.977 -0.0628 -0.4277 -0.1856
   83SAPS    HA 7765   6.247   4.621  11.004 -1.6625  0.7062 -1.0411
   83SAPS    HB 7766   6.306   4.779  11.055  0.2339  0.4280 -0.9758
   83SAPS    C2 7767   6.288   4.766  10.835 -0.2944 -0.2561 -0.0577
   83SAPS    HS 7768   6.202   4.833  10.857  0.2440  0.6379 -0.6543
   83SAPS   O21 7769   6.260   4.666  10.734  0.0963  0.4623 -0.0133
   83SAPS   C21 7770   6.167   4.704  10.644  0.3929 -0.0362  0.0939
   83SAPS   O22 7771   6.089   4.797  10.659 -0.8386 -0.4813 -0.3294
   83SAPS   C22 7772   6.165   4.598  10.530  0.8083 -0.0791  0.6089
   83SAPS   H2R 7773   6.266   4.595  10.485  0.3100  0.0552 -0.5317
   83SAPS   H2S 7774   6.128   4.502  10.571  0.9283  0.1782  1.3310
   83SAPS    C3 7775   6.409   4.847  10.782 -0.8001  0.0265  0.9675
   83SAPS    HX 7776   6.511   4.810  10.807 -0.9794 -0.6202  0.7410
   83SAPS    HY 7777   6.404   4.941  10.840 -0.3311  0.4584  0.3155
   83SAPS   O31 7778   6.405   4.889  10.645 -0.6109  0.4589 -0.1533
   83SAPS   C31 7779   6.473   4.827  10.549 -0.4492  0.4688  0.2094
   83SAPS   O32 7780   6.530   4.721  10.560  0.0447  0.8011 -0.4699
   83SAPS   C32 7781   6.478   4.912  10.424  0.0303  0.1367 -0.8162
   83SAPS   H2X 7782   6.582   4.950  10.418 -0.8479  2.3231 -3.0383
   83SAPS   H2Y 7783   6.424   5.008  10.437  0.0407 -0.0885  1.0874
   83SAPS   C23 7784   6.065   4.635  10.415  0.2368  0.2289  0.0126
   83SAPS   H3R 7785   6.085   4.739  10.383  1.3497  0.5675  1.7180
   83SAPS   H3S 7786   5.960   4.641  10.448  1.0865 -2.5295  3.6709
   83SAPS   C24 7787   6.073   4.543  10.289 -0.2788  0.1350  0.7787
   83SAPS   H4R 7788   6.181   4.526  10.269 -0.1664  0.6009  0.9698
   83SAPS   H4S 7789   6.034   4.602  10.204  1.0979 -0.4124 -0.2502
   83SAPS   C25 7790   6.019   4.402  10.302  0.4300 -0.1399  0.3175
   83SAPS   H5R 7791   6.065   4.347  10.386  0.3213  0.4713  0.7791
   83SAPS   C26 7792   5.915   4.345  10.235 -0.8078 -0.0859  0.0926
   83SAPS   H6R 7793   5.884   4.241  10.254 -1.9727 -0.2129 -2.3552
   83SAPS   C27 7794   5.820   4.392  10.122  0.2550  0.2746 -0.4817
   83SAPS   H7R 7795   5.740   4.315  10.117 -1.0179  1.4139  1.3767
   83SAPS   H7S 7796   5.887   4.392  10.033  0.9542 -1.8019  0.0097
   83SAPS   C28 7797   5.754   4.525  10.140  0.4137 -0.0307  0.3087
   83SAPS   H8R 7798   5.729   4.546  10.245  1.9862 -1.4789  0.9948
   83SAPS   C29 7799   5.704   4.604  10.035  0.6938  0.2526  0.4846
   83SAPS   H9R 7800   5.664   4.705  10.048  2.6960  1.0307  0.8713
   83SAPS  C210 7801   5.715   4.566   9.896 -0.2858 -0.1876  0.6950
   83SAPS  H10R 7802   5.822   4.560   9.865  0.1970 -1.6675  2.5190
   83SAPS  H10S 7803   5.684   4.653   9.835  3.4632 -0.9060 -2.4675
   83SAPS  C211 7804   5.655   4.436   9.841  0.3572 -0.9479  0.2720
   83SAPS  H11R 7805   5.616   4.363   9.913 -0.2124  1.1248  2.1232
   83SAPS  C212 7806   5.636   4.408   9.712  0.2693  0.4657  0.2106
   83SAPS  H12R 7807   5.590   4.313   9.680 -0.5326  1.4418 -1.5994
   83SAPS  C213 7808   5.693   4.498   9.598 -0.0276  0.6328 -0.8532
   83SAPS  H13R 7809   5.778   4.563   9.626 -0.5998  1.1262 -0.2339
   83SAPS  H13S 7810   5.616   4.571   9.567  2.1149  2.6407 -1.5355
   83SAPS  C214 7811   5.727   4.426   9.469 -0.2312  0.5363  0.1490
   83SAPS  H14R 7812   5.805   4.350   9.479  0.5536  1.0791 -1.6094
   83SAPS  C215 7813   5.673   4.436   9.347 -0.1250 -0.0049 -0.6846
   83SAPS  H15R 7814   5.712   4.368   9.270  0.4350 -0.5069  0.0302
   83SAPS  C216 7815   5.570   4.538   9.298 -0.4774 -0.0970  0.3059
   83SAPS  H16R 7816   5.614   4.639   9.316 -0.4672 -0.0249 -0.1121
   83SAPS  H16S 7817   5.470   4.537   9.347 -0.3630  0.4824  0.5535
   83SAPS  C217 7818   5.542   4.525   9.148 -0.0281  0.2987 -0.3708
   83SAPS  H17R 7819   5.641   4.529   9.098  0.3950  1.4692  0.5304
   83SAPS  H17S 7820   5.481   4.612   9.116 -1.6147 -1.1266 -1.2922
   83SAPS  C218 7821   5.456   4.394   9.110  0.4664 -0.3392  0.4906
   83SAPS  H18R 7822   5.369   4.411   9.177 -0.1541 -0.4477 -0.2735
   83SAPS  H18S 7823   5.517   4.316   9.158  0.5504  0.1581  1.1993
   83SAPS  C219 7824   5.439   4.373   8.963  0.4328  0.1544  1.5998
   83SAPS  H19R 7825   5.425   4.266   8.939 -0.4098  0.6435 -0.1812
   83SAPS  H19S 7826   5.534   4.410   8.920 -1.1896 -1.3260 -3.5919
   83SAPS  C220 7827   5.338   4.457   8.889 -0.1272  0.0999  0.3707
   83SAPS  H20R 7828   5.340   4.566   8.912 -0.8408 -0.0090  0.9481
   83SAPS  H20S 7829   5.235   4.420   8.909 -0.3165 -0.0249 -0.7845
   83SAPS  H20T 7830   5.354   4.448   8.779 -0.0378 -0.2899  0.4154
   83SAPS   C33 7831   6.452   4.834  10.290  0.0216 -0.1665 -0.5946
   83SAPS   H3X 7832   6.358   4.776  10.305 -0.9917  1.2888 -1.2078
   83SAPS   H3Y 7833   6.537   4.764  10.281  0.9125  0.6883  1.0501
   83SAPS   C34 7834   6.446   4.937  10.169 -1.0364 -0.3650  0.3340
   83SAPS   H4X 7835   6.370   5.014  10.195 -0.1480  0.3688  0.7999
   83SAPS   H4Y 7836   6.402   4.886  10.081 -0.5648 -2.1129  1.0984
   83SAPS   C35 7837   6.582   5.004  10.145  0.1990  0.1231  0.4222
   83SAPS   H5X 7838   6.653   4.925  10.114  0.4104  0.7437 -0.6973
   83SAPS   H5Y 7839   6.628   5.056  10.232  1.0869 -0.3225  0.2294
   83SAPS   C36 7840   6.591   5.106  10.029  0.4917 -0.2247  0.5249
   83SAPS   H6X 7841   6.695   5.130  10.000  0.0371  1.1029 -0.0651
   83SAPS   H6Y 7842   6.548   5.204  10.059  0.3476 -0.4071  0.9250
   83SAPS   C37 7843   6.519   5.061   9.893  0.6806 -0.0200  0.4590
   83SAPS   H7X 7844   6.411   5.078   9.913  0.5761 -0.7297  0.5148
   83SAPS   H7Y 7845   6.531   4.954   9.864 -0.4758 -0.1195  0.3376
   83SAPS   C38 7846   6.556   5.139   9.762 -0.2440 -0.2246  0.3328
   83SAPS   H8X 7847   6.658   5.109   9.730 -0.7190 -1.6372  0.1188
   83SAPS   H8Y 7848   6.553   5.250   9.763 -1.8859 -0.2588  1.6902
   83SAPS   C39 7849   6.469   5.091   9.653 -0.3201 -0.1709 -0.1510
   83SAPS   H9X 7850   6.375   5.151   9.648  0.5901  1.3258  0.4363
   83SAPS   H9Y 7851   6.447   4.982   9.654  0.2902 -0.3057  1.8089
   83SAPS  C310 7852   6.524   5.120   9.515 -0.8539  0.1498  0.0974
   83SAPS  H10X 7853   6.604   5.044   9.505  0.1154  1.0481  0.9523
   83SAPS  H10Y 7854   6.573   5.219   9.510  0.0383 -0.3702 -2.5894
   83SAPS  C311 7855   6.414   5.110   9.409 -0.3137  0.0796 -0.7972
   83SAPS  H11X 7856   6.371   5.212   9.396  0.2023  0.1172 -2.2913
   83SAPS  H11Y 7857   6.333   5.043   9.443 -0.5105  0.9984  0.5989
   83SAPS  C312 7858   6.463   5.077   9.274  0.4422 -0.8728  0.0820
   83SAPS  H12X 7859   6.572   5.096   9.261  0.4539 -1.0712 -0.1246
   83SAPS  H12Y 7860   6.403   5.116   9.189  0.5451  1.3266  1.0149
   83SAPS  C313 7861   6.459   4.923   9.255  0.7052  0.3168  0.2227
   83SAPS  H13X 7862   6.489   4.885   9.355  0.4394 -2.2446 -0.6227
   83SAPS  H13Y 7863   6.543   4.890   9.189  0.8381 -0.2976  0.6895
   83SAPS  C314 7864   6.322   4.860   9.215  0.4287 -0.3869  1.0971
   83SAPS  H14X 7865   6.306   4.867   9.106  0.7808  1.8297  1.1687
   83SAPS  H14Y 7866   6.245   4.921   9.267  0.3543  2.5615 -2.2877
   83SAPS  C315 7867   6.290   4.711   9.253  0.1877 -0.2018 -0.0109
   83SAPS  H15X 7868   6.187   4.686   9.219  0.6125  1.0389 -2.3498
   83SAPS  H15Y 7869   6.292   4.698   9.363  0.2834  2.2605  0.3110
   83SAPS  C316 7870   6.385   4.605   9.176 -0.0967  0.8501  0.0294
   83SAPS  H16X 7871   6.374   4.501   9.214  1.6841  0.3366 -0.8005
   83SAPS  H16Y 7872   6.493   4.628   9.186  0.0191  0.3941 -0.1583
   83SAPS  C317 7873   6.352   4.596   9.031 -0.9244  0.2430 -0.4778
   83SAPS  H17X 7874   6.260   4.656   9.011 -1.1039 -0.2071 -1.0337
   83SAPS  H17Y 7875   6.340   4.495   8.987  1.2585  0.2716 -1.2310
   83SAPS  C318 7876   6.453   4.664   8.941  0.2325  0.3701  0.6358
   83SAPS  H18X 7877   6.551   4.616   8.960 -0.1556  0.0737  1.9217
   83SAPS  H18Y 7878   6.477   4.770   8.961  0.9646  0.1099  1.1650
   83SAPS  H18Z 7879   6.419   4.664   8.835 -0.1879  1.0679  0.7654
   84SAPS     N 7880   1.256   4.335  11.084  0.0252  0.1052 -0.6087
   84SAPS   HN1 7881   1.237   4.416  11.022  0.1334 -0.8133 -1.8616
   84SAPS   HN2 7882   1.341   4.350  11.142 -0.9843  0.4751  0.7868
   84SAPS   HN3 7883   1.274   4.250  11.028 -0.6121  1.0373 -2.2744
   84SAPS   C12 7884   1.143   4.289  11.172  0.5914  0.2908  0.8059
   84SAPS  H12A 7885   1.179   4.210  11.236 -0.2430 -0.2381  0.6295
   84SAPS   C13 7886   1.068   4.385  11.271 -0.2205 -0.6749  0.2122
   84SAPS  O13A 7887   1.103   4.505  11.273  0.2885  0.0292  0.4353
   84SAPS  O13B 7888   0.970   4.345  11.341  0.4636  0.1433 -0.0051
   84SAPS   C11 7889   1.040   4.220  11.074  0.3545  0.9158  0.2660
   84SAPS  H11A 7890   0.963   4.164  11.130  0.6981 -0.7167 -0.8538
   84SAPS  H11B 7891   1.097   4.139  11.023 -1.9384 -0.5823 -0.0292
   84SAPS     P 7892   0.840   4.321  10.936 -0.0372 -0.1728  0.3712
   84SAPS   O13 7893   0.752   4.240  11.023  0.4644  0.1035  0.7262
   84SAPS   O14 7894   0.793   4.454  10.907  0.0469 -0.0908  0.3745
   84SAPS   O12 7895   0.988   4.319  10.987  0.6758 -0.8380 -0.2523
   84SAPS   O11 7896   0.858   4.239  10.797  0.2710  0.3087 -0.4695
   84SAPS    C1 7897   0.972   4.237  10.715 -0.2364 -0.3403 -0.2053
   84SAPS    HA 7898   0.985   4.340  10.675 -0.9463 -0.1891 -0.0438
   84SAPS    HB 7899   1.065   4.212  10.771  3.2337  2.9340 -4.1058
   84SAPS    C2 7900   0.941   4.131  10.610  0.4905 -0.2015  0.4458
   84SAPS    HS 7901   0.953   4.030  10.655 -1.2930 -0.4365  0.4585
   84SAPS   O21 7902   1.017   4.160  10.493 -0.1095 -0.1679  0.1893
   84SAPS   C21 7903   1.137   4.125  10.498  0.1210 -0.1575  0.5561
   84SAPS   O22 7904   1.193   4.065  10.588  0.1707 -0.1378  0.1361
   84SAPS   C22 7905   1.213   4.141  10.363 -0.9212 -0.1036 -0.2841
   84SAPS   H2R 7906   1.258   4.242  10.349  1.0268 -0.7403  1.2099
   84SAPS   H2S 7907   1.295   4.069  10.378 -0.5084  0.0284 -1.7936
   84SAPS    C3 7908   0.786   4.124  10.577 -0.2533  0.3409 -0.0740
   84SAPS    HX 7909   0.738   4.223  10.568 -1.0540  0.0324  0.7226
   84SAPS    HY 7910   0.733   4.088  10.668 -1.0476 -1.4011 -1.2014
   84SAPS   O31 7911   0.739   4.047  10.465 -0.6321  0.6773 -0.3170
   84SAPS   C31 7912   0.781   3.920  10.456 -0.5941  0.1626  0.3135
   84SAPS   O32 7913   0.843   3.856  10.545  0.0009 -0.3186 -0.0146
   84SAPS   C32 7914   0.745   3.870  10.315 -0.2855  0.4726  0.6590
   84SAPS   H2X 7915   0.786   3.766  10.317 -2.9431 -0.6391  0.2936
   84SAPS   H2Y 7916   0.798   3.928  10.237  0.0525 -2.6773 -1.5702
   84SAPS   C23 7917   1.135   4.100  10.237  0.1349  0.2808  0.3574
   84SAPS   H3R 7918   1.050   4.169  10.217 -0.0220 -0.0924 -0.2887
   84SAPS   H3S 7919   1.090   4.002  10.260  0.1975 -0.2293 -1.5637
   84SAPS   C24 7920   1.205   4.069  10.113  0.2111  0.0427  0.3437
   84SAPS   H4R 7921   1.285   3.995  10.138  0.0298 -0.1100  0.4711
   84SAPS   H4S 7922   1.249   4.163  10.074 -0.5015  0.6028  0.8755
   84SAPS   C25 7923   1.114   4.002  10.004  0.4627 -0.4128  0.1557
   84SAPS   H5R 7924   1.116   3.893  10.017 -2.6195 -0.7671 -1.7233
   84SAPS   C26 7925   1.032   4.061   9.910 -0.0223  0.0597  0.5879
   84SAPS   H6R 7926   0.962   3.997   9.854  1.3699 -0.6733 -0.3215
   84SAPS   C27 7927   1.012   4.214   9.901 -0.3526  1.6700  0.4059
   84SAPS   H7R 7928   1.083   4.271   9.839  0.1875  0.4629 -0.0997
   84SAPS   H7S 7929   1.041   4.258   9.998 -0.4029  2.0947  0.2271
   84SAPS   C28 7930   0.866   4.255   9.894 -0.6165  0.0227 -0.2272
   84SAPS   H8R 7931   0.815   4.277   9.989  1.2079  2.8245  0.1573
   84SAPS   C29 7932   0.801   4.263   9.778 -0.0500 -0.2652  0.5677
   84SAPS   H9R 7933   0.692   4.276   9.781 -0.0655 -0.6816  2.4197
   84SAPS  C210 7934   0.853   4.228   9.640 -0.2633  0.6452  0.5924
   84SAPS  H10R 7935   0.810   4.129   9.615 -0.9434  0.8330  1.0385
   84SAPS  H10S 7936   0.964   4.230   9.632 -0.2700  3.0813  0.5308
   84SAPS  C211 7937   0.811   4.327   9.543  0.5425  0.9765 -0.6672
   84SAPS  H11R 7938   0.769   4.420   9.585  1.4147 -0.7367  4.2133
   84SAPS  C212 7939   0.815   4.316   9.405  0.3727 -0.4410  0.2428
   84SAPS  H12R 7940   0.797   4.399   9.335 -2.6957 -2.0205 -0.9504
   84SAPS  C213 7941   0.872   4.197   9.343 -0.2661 -0.1973  0.0752
   84SAPS  H13R 7942   0.924   4.127   9.412  0.1495 -0.7109 -0.7498
   84SAPS  H13S 7943   0.954   4.220   9.271 -1.0068  2.8271  0.1013
   84SAPS  C214 7944   0.767   4.120   9.266 -0.3027  0.6579 -0.1992
   84SAPS  H14R 7945   0.700   4.067   9.335 -0.8582  1.3572 -0.1981
   84SAPS  C215 7946   0.736   4.124   9.134  0.5763 -0.1982 -0.4892
   84SAPS  H15R 7947   0.660   4.054   9.097 -1.1526  2.1293 -1.4457
   84SAPS  C216 7948   0.815   4.197   9.031  0.3256 -0.3487 -0.2213
   84SAPS  H16R 7949   0.830   4.140   8.938 -0.4983  2.6134 -2.2406
   84SAPS  H16S 7950   0.920   4.206   9.066 -0.0523  1.5118  0.5255
   84SAPS  C217 7951   0.754   4.337   8.999 -0.3757  0.0625  0.4422
   84SAPS  H17R 7952   0.735   4.379   9.100  1.4754 -2.8395  2.0692
   84SAPS  H17S 7953   0.662   4.329   8.937 -2.0813  1.1253  2.7835
   84SAPS  C218 7954   0.848   4.430   8.925 -0.4860 -0.0304 -0.2754
   84SAPS  H18R 7955   0.900   4.371   8.847 -1.5397  1.6579 -2.3051
   84SAPS  H18S 7956   0.924   4.440   9.006 -1.1864  0.4587  0.3301
   84SAPS  C219 7957   0.790   4.561   8.876 -0.1219 -0.2206 -0.2288
   84SAPS  H19R 7958   0.835   4.640   8.939  0.3701 -1.6642  1.2665
   84SAPS  H19S 7959   0.681   4.576   8.890 -0.6048 -3.0272 -0.6133
   84SAPS  C220 7960   0.813   4.573   8.730 -0.2155 -0.5339 -0.2729
   84SAPS  H20R 7961   0.911   4.537   8.692 -0.7929 -1.7401 -0.6305
   84SAPS  H20S 7962   0.797   4.679   8.699 -1.0277 -1.0347 -1.6116
   84SAPS  H20T 7963   0.736   4.518   8.672  0.2180 -1.1237 -0.2983
   84SAPS   C33 7964   0.594   3.871  10.286  0.0860 -0.0903 -0.7442
   84SAPS   H3X 7965   0.546   3.971  10.286  1.3111  0.5345  0.7363
   84SAPS   H3Y 7966   0.565   3.796  10.363 -1.5955 -0.9641 -2.2131
   84SAPS   C34 7967   0.556   3.810  10.149  0.5411  0.1712  0.0182
   84SAPS   H4X 7968   0.445   3.816  10.146  0.5472  0.0539 -0.4832
   84SAPS   H4Y 7969   0.588   3.704  10.161  2.2806  0.5361 -1.3236
   84SAPS   C35 7970   0.619   3.871  10.028  0.0891 -0.6318  0.3100
   84SAPS   H5X 7971   0.728   3.887  10.021 -0.1183 -0.0025 -1.7344
   84SAPS   H5Y 7972   0.585   3.977  10.022  1.5165 -0.1236  1.0595
   84SAPS   C36 7973   0.579   3.799   9.896  0.4095  0.0292 -0.6868
   84SAPS   H6X 7974   0.471   3.780   9.910  0.4285 -0.5350 -1.3098
   84SAPS   H6Y 7975   0.629   3.701   9.886  1.7148  0.7046 -0.9504
   84SAPS   C37 7976   0.591   3.886   9.768  0.1733 -0.4290 -0.2672
   84SAPS   H7X 7977   0.598   3.815   9.682  0.0576 -0.2070 -0.4600
   84SAPS   H7Y 7978   0.681   3.951   9.771  0.4219 -0.7631 -0.4324
   84SAPS   C38 7979   0.470   3.979   9.743  0.0312  0.2271  0.1226
   84SAPS   H8X 7980   0.507   4.082   9.725  0.8066 -0.5394 -2.8377
   84SAPS   H8Y 7981   0.410   3.988   9.837  0.5682  0.2934  0.4604
   84SAPS   C39 7982   0.379   3.942   9.620  0.3056  0.6393  0.1539
   84SAPS   H9X 7983   0.300   4.019   9.607 -3.6717 -2.9077  1.8993
   84SAPS   H9Y 7984   0.333   3.841   9.620 -1.8857  1.6045 -1.6601
   84SAPS  C310 7985   0.452   3.956   9.481  0.6410 -1.2118 -0.8955
   84SAPS  H10X 7986   0.543   3.893   9.470  0.4159 -1.6229 -0.4805
   84SAPS  H10Y 7987   0.496   4.058   9.484  0.3957 -1.1405  1.4025
   84SAPS  C311 7988   0.365   3.930   9.364 -0.1591 -0.1075  1.0035
   84SAPS  H11X 7989   0.284   4.006   9.358  1.6958  1.7948 -1.1807
   84SAPS  H11Y 7990   0.312   3.832   9.362 -1.6411  0.6775 -1.7106
   84SAPS  C312 7991   0.446   3.955   9.229 -0.5360 -0.0455 -0.0186
   84SAPS  H12X 7992   0.540   3.896   9.231 -0.3525  0.2596  0.4054
   84SAPS  H12Y 7993   0.483   4.059   9.219  0.4579 -0.4293 -0.4082
   84SAPS  C313 7994   0.380   3.931   9.093  0.0028  0.0005 -0.3355
   84SAPS  H13X 7995   0.456   3.942   9.014  0.5476 -2.2973 -0.1540
   84SAPS  H13Y 7996   0.306   4.014   9.087 -0.4039 -0.4052 -0.9614
   84SAPS  C314 7997   0.298   3.802   9.098  0.4517 -0.5520 -0.0211
   84SAPS  H14X 7998   0.201   3.828   9.146  0.1437  0.3395 -1.1024
   84SAPS  H14Y 7999   0.352   3.726   9.159  1.0261 -1.1586 -1.2789
   84SAPS  C315 8000   0.276   3.765   8.956  0.4359 -0.4762  0.2373
   84SAPS  H15X 8001   0.367   3.713   8.917  2.8719  3.7562 -0.0828
   84SAPS  H15Y 8002   0.265   3.860   8.898  0.7795 -0.3340  0.4023
   84SAPS  C316 8003   0.153   3.674   8.939 -0.8474 -0.2053  0.0416
   84SAPS  H16X 8004   0.062   3.724   8.979  0.7708  2.0754  0.9629
   84SAPS  H16Y 8005   0.176   3.584   9.000  0.8495 -0.3123 -0.7238
   84SAPS  C317 8006   0.132   3.638   8.793  0.1375 -0.0338 -0.3238
   84SAPS  H17X 8007   0.040   3.577   8.786  1.5810 -2.2333 -0.6825
   84SAPS  H17Y 8008   0.213   3.570   8.758  0.5157  0.5912 -0.6789
   84SAPS  C318 8009   0.127   3.759   8.692 -0.0533  0.3947 -0.6974
   84SAPS  H18X 8010   0.224   3.812   8.683  0.3708 -0.2654 -0.1074
   84SAPS  H18Y 8011   0.044   3.830   8.709  1.0450  1.5167  0.1126
   84SAPS  H18Z 8012   0.111   3.711   8.593  1.5260 -0.8312 -0.3924
   85SAPS     N 8013   4.053   5.987  10.760 -0.1507  0.2721 -0.6616
   85SAPS   HN1 8014   4.015   5.892  10.778  1.3359  0.0896  1.7385
   85SAPS   HN2 8015   3.983   6.034  10.699 -1.4187 -0.5688  0.1224
   85SAPS   HN3 8016   4.148   5.980  10.717 -0.0314  0.6347 -0.4542
   85SAPS   C12 8017   4.059   6.075  10.877 -1.0909  0.3211  0.0156
   85SAPS  H12A 8018   4.089   6.174  10.849 -0.5316  0.1274 -0.0604
   85SAPS   C13 8019   3.921   6.082  10.946  0.0303 -0.3480  0.6684
   85SAPS  O13A 8020   3.823   6.010  10.905  0.2441  0.2691 -0.5905
   85SAPS  O13B 8021   3.911   6.168  11.037  0.2565 -0.6319 -0.4280
   85SAPS   C11 8022   4.159   6.025  10.978  0.3322  0.1237  0.0601
   85SAPS  H11A 8023   4.125   5.930  11.022 -1.4816  0.9594  0.5058
   85SAPS  H11B 8024   4.165   6.091  11.067  0.6526 -0.4187  0.4440
   85SAPS     P 8025   4.421   6.007  10.991  0.0369  0.2686  0.3811
   85SAPS   O13 8026   4.413   6.084  11.119  0.0239  0.0883 -0.0054
   85SAPS   O14 8027   4.460   5.864  11.005  0.2954 -0.1865  0.0121
   85SAPS   O12 8028   4.284   6.020  10.912 -0.1595 -0.2942  0.5947
   85SAPS   O11 8029   4.534   6.079  10.902  0.2542 -0.6684 -0.0171
   85SAPS    C1 8030   4.492   6.129  10.772 -0.3976 -0.3192 -0.1110
   85SAPS    HA 8031   4.386   6.162  10.760 -0.3272  1.1213  2.9810
   85SAPS    HB 8032   4.536   6.230  10.760 -0.4966 -0.2144  0.3918
   85SAPS    C2 8033   4.537   6.045  10.648 -0.5627 -0.1481 -0.1104
   85SAPS    HS 8034   4.495   6.085  10.553  0.5419 -1.4058 -1.1416
   85SAPS   O21 8035   4.497   5.909  10.668  0.9633  0.2843  0.3935
   85SAPS   C21 8036   4.366   5.880  10.647 -0.9672 -0.0796 -0.2733
   85SAPS   O22 8037   4.288   5.964  10.612 -0.5483 -0.0036  0.0115
   85SAPS   C22 8038   4.340   5.731  10.663 -0.4725 -0.6519 -0.1334
   85SAPS   H2R 8039   4.430   5.684  10.707  1.3636  3.3273  0.5496
   85SAPS   H2S 8040   4.256   5.717  10.735  0.2498 -1.0492  0.6332
   85SAPS    C3 8041   4.693   6.051  10.632  0.4557  0.5949  0.5023
   85SAPS    HX 8042   4.745   6.009  10.720 -0.8760 -0.3834  0.8383
   85SAPS    HY 8043   4.720   6.159  10.623 -1.1493  0.8551 -1.6832
   85SAPS   O31 8044   4.743   5.994  10.511 -0.2270  0.4199 -0.3265
   85SAPS   C31 8045   4.823   5.885  10.511  0.3941 -0.5087 -1.1903
   85SAPS   O32 8046   4.844   5.821  10.612  0.0434 -0.6988 -0.6219
   85SAPS   C32 8047   4.861   5.849  10.372 -0.3475 -0.8967 -0.6267
   85SAPS   H2X 8048   4.960   5.895  10.350 -0.4956  1.2176  2.7532
   85SAPS   H2Y 8049   4.788   5.880  10.294 -0.1758 -1.4403 -1.0068
   85SAPS   C23 8050   4.305   5.660  10.532  0.5598 -0.2779 -0.4285
   85SAPS   H3R 8051   4.221   5.708  10.477 -0.9245 -0.8815  1.2192
   85SAPS   H3S 8052   4.265   5.558  10.552 -1.7879  1.2191  3.0024
   85SAPS   C24 8053   4.427   5.654  10.432 -0.5308  0.3823 -0.3634
   85SAPS   H4R 8054   4.400   5.583  10.351  2.2746  1.6625 -2.5140
   85SAPS   H4S 8055   4.519   5.619  10.484 -0.9003 -0.8873 -0.5461
   85SAPS   C25 8056   4.460   5.783  10.362  0.2411 -0.1465 -0.2182
   85SAPS   H5R 8057   4.544   5.840  10.405 -0.7304  2.3068 -1.4684
   85SAPS   C26 8058   4.416   5.819  10.240 -0.3938 -0.2330 -0.0658
   85SAPS   H6R 8059   4.453   5.919  10.212  2.5508 -1.3468 -0.3075
   85SAPS   C27 8060   4.316   5.751  10.148 -1.0154  0.1791 -0.1551
   85SAPS   H7R 8061   4.239   5.705  10.213  0.0694 -0.7510  0.4937
   85SAPS   H7S 8062   4.379   5.671  10.103  1.1213  1.6813  0.0650
   85SAPS   C28 8063   4.248   5.828  10.045  0.6779 -0.1485  0.1944
   85SAPS   H8R 8064   4.177   5.901  10.087 -3.1988 -2.4592 -2.0241
   85SAPS   C29 8065   4.263   5.818   9.907 -0.2930 -0.1747  0.7322
   85SAPS   H9R 8066   4.195   5.877   9.844  0.8901  1.3554  0.8473
   85SAPS  C210 8067   4.360   5.729   9.833  0.5641  0.4375 -0.1600
   85SAPS  H10R 8068   4.383   5.635   9.888  1.2121 -0.5134 -2.0053
   85SAPS  H10S 8069   4.448   5.795   9.823  0.4732  0.2702 -2.5253
   85SAPS  C211 8070   4.313   5.688   9.695  0.0394 -0.3924 -0.1024
   85SAPS  H11R 8071   4.248   5.599   9.701 -1.8757  0.9976  0.0963
   85SAPS  C212 8072   4.344   5.738   9.578  0.5572 -0.4645  0.5436
   85SAPS  H12R 8073   4.303   5.690   9.488  2.1149  0.5885 -0.7602
   85SAPS  C213 8074   4.427   5.858   9.543 -0.3195  0.5457 -0.6956
   85SAPS  H13R 8075   4.516   5.809   9.497  1.8130 -0.8803  4.6089
   85SAPS  H13S 8076   4.469   5.901   9.636  0.2259 -2.2995  0.4137
   85SAPS  C214 8077   4.376   5.964   9.454  0.0324  0.3268  0.4148
   85SAPS  H14R 8078   4.350   6.053   9.513  1.7033  1.5601 -0.6546
   85SAPS  C215 8079   4.335   5.953   9.328  0.3198 -0.0923  0.7032
   85SAPS  H15R 8080   4.304   6.048   9.282 -0.5379 -1.2461 -1.1295
   85SAPS  C216 8081   4.346   5.830   9.239 -0.2386  0.8236 -0.7447
   85SAPS  H16R 8082   4.249   5.776   9.241  0.4884 -0.4716  0.8055
   85SAPS  H16S 8083   4.423   5.762   9.281 -0.7183  0.8452  0.1978
   85SAPS  C217 8084   4.390   5.867   9.097 -0.3733  0.6188 -0.1320
   85SAPS  H17R 8085   4.419   5.776   9.040  1.0651  0.2575  1.1667
   85SAPS  H17S 8086   4.484   5.925   9.096 -1.3191  2.1740  0.0672
   85SAPS  C218 8087   4.280   5.937   9.010  0.4434 -0.0691  0.4945
   85SAPS  H18R 8088   4.232   6.019   9.068  1.5461  1.7000 -1.0434
   85SAPS  H18S 8089   4.194   5.868   8.997 -1.3657  2.1147  0.4875
   85SAPS  C219 8090   4.333   5.979   8.875 -0.3202 -0.3128 -0.0540
   85SAPS  H19R 8091   4.412   6.055   8.893 -1.2019  0.5349  0.2669
   85SAPS  H19S 8092   4.257   6.030   8.811 -0.7622  2.0072  2.2405
   85SAPS  C220 8093   4.399   5.869   8.794 -0.4745  0.4057  0.2162
   85SAPS  H20R 8094   4.422   5.925   8.701 -0.7559  0.6976  0.3177
   85SAPS  H20S 8095   4.319   5.792   8.792 -1.0978  1.0085  1.1509
   85SAPS  H20T 8096   4.489   5.824   8.842 -1.0144  0.1581  1.0116
   85SAPS   C33 8097   4.890   5.698  10.355  0.1793  0.5820 -0.3923
   85SAPS   H3X 8098   4.818   5.620  10.389  0.1152 -0.4769 -2.8555
   85SAPS   H3Y 8099   4.977   5.671  10.418 -0.2755 -2.8279 -1.1066
   85SAPS   C34 8100   4.917   5.647  10.208 -0.7027 -0.0738  0.0775
   85SAPS   H4X 8101   4.965   5.546  10.205 -0.4119  0.0434  0.6169
   85SAPS   H4Y 8102   4.987   5.716  10.157 -0.7023 -0.4685 -0.4661
   85SAPS   C35 8103   4.779   5.642  10.141  0.8653  0.2789 -1.0307
   85SAPS   H5X 8104   4.715   5.723  10.183  1.3975 -0.9727  2.3398
   85SAPS   H5Y 8105   4.732   5.542  10.148  0.8904  0.3143 -0.3633
   85SAPS   C36 8106   4.790   5.669   9.990  0.0856  0.8458 -0.0734
   85SAPS   H6X 8107   4.834   5.771   9.978  2.6577 -0.0007  1.6985
   85SAPS   H6Y 8108   4.686   5.680   9.955  0.2520 -0.1812 -0.9096
   85SAPS   C37 8109   4.873   5.557   9.922  0.2001  0.5241  0.7530
   85SAPS   H7X 8110   4.819   5.463   9.948  0.2025  0.3664  0.1916
   85SAPS   H7Y 8111   4.977   5.561   9.960  0.3149  0.4784  0.4424
   85SAPS   C38 8112   4.866   5.573   9.775 -0.1395 -0.4554 -0.0412
   85SAPS   H8X 8113   4.933   5.492   9.737 -0.8076 -0.4899 -1.1547
   85SAPS   H8Y 8114   4.904   5.668   9.732 -0.6004  0.0236  0.6272
   85SAPS   C39 8115   4.723   5.549   9.723  0.3693  0.1354 -0.6319
   85SAPS   H9X 8116   4.656   5.638   9.726  0.5183  0.2143  0.3042
   85SAPS   H9Y 8117   4.681   5.471   9.790 -0.5588  0.9119 -0.3010
   85SAPS  C310 8118   4.719   5.486   9.588 -0.6904 -0.5573  0.2650
   85SAPS  H10X 8119   4.616   5.460   9.557 -0.7013  0.6278 -0.7202
   85SAPS  H10Y 8120   4.779   5.393   9.583  0.7267  0.2859  1.2525
   85SAPS  C311 8121   4.780   5.577   9.471 -0.4728  0.3006 -1.1297
   85SAPS  H11X 8122   4.890   5.596   9.475 -0.5896  1.6022 -3.1847
   85SAPS  H11Y 8123   4.720   5.670   9.482 -0.2638  0.4265 -1.0549
   85SAPS  C312 8124   4.740   5.514   9.334  0.1124 -0.2902 -0.6235
   85SAPS  H12X 8125   4.631   5.497   9.347 -0.0438  1.4745  0.5277
   85SAPS  H12Y 8126   4.795   5.417   9.329 -0.0137 -0.3245 -1.3538
   85SAPS  C313 8127   4.762   5.600   9.209 -0.1912  0.1464  0.3011
   85SAPS  H13X 8128   4.868   5.632   9.203 -0.2994  0.8856  1.9347
   85SAPS  H13Y 8129   4.710   5.698   9.218  2.6560  1.9971 -2.4647
   85SAPS  C314 8130   4.730   5.539   9.068  0.1483 -0.2280  0.9758
   85SAPS  H14X 8131   4.738   5.627   9.001 -3.8261 -1.2555 -0.9628
   85SAPS  H14Y 8132   4.622   5.515   9.078  0.1147  0.1161  1.4718
   85SAPS  C315 8133   4.798   5.418   9.015  0.4655  0.5711 -0.0926
   85SAPS  H15X 8134   4.785   5.336   9.089  0.1170  0.9859  0.3147
   85SAPS  H15Y 8135   4.907   5.437   9.015  0.6201 -0.1796  2.1417
   85SAPS  C316 8136   4.741   5.389   8.877  0.2929  0.1168 -0.2850
   85SAPS  H16X 8137   4.690   5.477   8.831 -2.1890 -2.1523 -2.0316
   85SAPS  H16Y 8138   4.665   5.308   8.877 -2.5093  2.6592  1.3243
   85SAPS  C317 8139   4.856   5.342   8.782 -0.1973  1.1200  0.3312
   85SAPS  H17X 8140   4.902   5.249   8.823  2.0214  2.3580  0.7472
   85SAPS  H17Y 8141   4.930   5.425   8.775  2.4027 -1.1552 -0.1468
   85SAPS  C318 8142   4.822   5.317   8.632  0.0345  0.6014 -0.1927
   85SAPS  H18X 8143   4.793   5.416   8.593  0.0615  1.2171  1.3123
   85SAPS  H18Y 8144   4.740   5.244   8.617 -0.6143  1.3688 -0.3576
   85SAPS  H18Z 8145   4.915   5.285   8.579  0.3029 -1.2787  1.3727
   86SAPS     N 8146   0.897   6.337  10.946  0.1652  0.3141 -0.5718
   86SAPS   HN1 8147   0.949   6.329  10.857  0.9299 -2.0863  0.0426
   86SAPS   HN2 8148   0.798   6.359  10.924  0.0887 -1.6679 -2.3233
   86SAPS   HN3 8149   0.937   6.412  11.007  1.5860 -0.5633 -0.3877
   86SAPS   C12 8150   0.915   6.210  11.027 -0.4495  0.3029 -0.9122
   86SAPS  H12A 8151   1.015   6.175  11.007 -0.1442  0.1665  0.7770
   86SAPS   C13 8152   0.921   6.232  11.181 -0.7381  0.4784 -0.3118
   86SAPS  O13A 8153   0.930   6.356  11.212  0.0535 -0.3118 -0.0213
   86SAPS  O13B 8154   0.972   6.141  11.259 -0.2813  0.5907 -0.6485
   86SAPS   C11 8155   0.809   6.097  10.992 -0.2925 -0.2015 -0.3784
   86SAPS  H11A 8156   0.840   6.005  11.046 -3.1767 -0.7959  0.3650
   86SAPS  H11B 8157   0.827   6.069  10.886  0.2011  0.4609 -0.4723
   86SAPS     P 8158   0.563   6.197  10.932  0.0807 -0.1488 -0.1556
   86SAPS   O13 8159   0.450   6.228  11.020 -0.1986  0.2858  0.4499
   86SAPS   O14 8160   0.625   6.309  10.852 -0.3027  0.1153  0.6444
   86SAPS   O12 8161   0.675   6.140  11.021  0.2920  0.0560 -0.3415
   86SAPS   O11 8162   0.525   6.072  10.850 -0.7894 -0.4854 -0.6359
   86SAPS    C1 8163   0.571   6.032  10.725  0.5645  0.7318 -0.0160
   86SAPS    HA 8164   0.677   6.066  10.722  0.4834  0.9975  0.1360
   86SAPS    HB 8165   0.556   5.922  10.722  0.9964  0.6785 -0.2697
   86SAPS    C2 8166   0.487   6.089  10.603 -0.0135 -0.5449 -1.2131
   86SAPS    HS 8167   0.511   6.197  10.602  1.7131 -0.9064 -0.6120
   86SAPS   O21 8168   0.352   6.054  10.620  0.3687 -0.2640 -0.0438
   86SAPS   C21 8169   0.271   6.156  10.639 -0.1195 -0.2964  0.4559
   86SAPS   O22 8170   0.305   6.272  10.626 -0.3449 -0.0766 -0.5549
   86SAPS   C22 8171   0.127   6.106  10.680 -0.3999 -0.6778  0.7237
   86SAPS   H2R 8172   0.129   6.072  10.786 -2.0611 -0.2450  0.9206
   86SAPS   H2S 8173   0.060   6.195  10.671  1.4737  0.7734  0.8380
   86SAPS    C3 8174   0.536   6.024  10.468 -1.0735  0.3450 -0.9511
   86SAPS    HX 8175   0.531   5.916  10.491 -2.2960  1.2163  3.1983
   86SAPS    HY 8176   0.643   6.048  10.447 -1.3755  1.5905 -1.0915
   86SAPS   O31 8177   0.466   6.074  10.356  0.0744  0.3075  0.6499
   86SAPS   C31 8178   0.370   6.000  10.307  0.4587  0.3106 -0.7901
   86SAPS   O32 8179   0.342   5.884  10.348 -0.0260 -0.3275  0.2570
   86SAPS   C32 8180   0.280   6.069  10.199 -0.0321 -0.7377  0.0796
   86SAPS   H2X 8181   0.327   6.037  10.104 -1.4741 -1.2828 -0.4676
   86SAPS   H2Y 8182   0.275   6.180  10.207  1.4612 -0.5168 -1.8218
   86SAPS   C23 8183   0.072   5.994  10.588  0.1142  0.5073 -0.4138
   86SAPS   H3R 8184   0.103   5.896  10.631 -0.0562  1.6539  2.4206
   86SAPS   H3S 8185   0.105   6.011  10.484 -0.3894 -0.1713 -0.6900
   86SAPS   C24 8186  -0.081   5.986  10.589  0.1965  0.2179 -0.0169
   86SAPS   H4R 8187  -0.121   6.088  10.569 -0.0618 -0.0931 -1.1343
   86SAPS   H4S 8188  -0.118   5.969  10.692  0.1797 -1.3886 -0.2829
   86SAPS   C25 8189  -0.138   5.880  10.493  0.0716 -0.1577  0.5032
   86SAPS   H5R 8190  -0.107   5.776  10.510 -1.1059 -0.6006  0.0033
   86SAPS   C26 8191  -0.216   5.901  10.378  0.1543 -0.3399  0.4137
   86SAPS   H6R 8192  -0.239   5.810  10.322  1.2476  0.5178 -1.5007
   86SAPS   C27 8193  -0.281   6.028  10.334  0.1578  0.5313  0.0237
   86SAPS   H7R 8194  -0.218   6.089  10.265 -0.1108 -0.9065 -1.5282
   86SAPS   H7S 8195  -0.302   6.092  10.422 -1.6623  2.0291 -1.4693
   86SAPS   C28 8196  -0.408   5.997  10.274  0.4486 -0.2516  0.1370
   86SAPS   H8R 8197  -0.484   5.968  10.348 -0.4317 -0.9257 -1.0071
   86SAPS   C29 8198  -0.447   6.000  10.144  0.8093 -0.1596 -0.2155
   86SAPS   H9R 8199  -0.550   5.974  10.114  0.3337  0.8603  0.5157
   86SAPS  C210 8200  -0.370   6.032  10.018 -0.0181  0.1620 -0.1992
   86SAPS  H10R 8201  -0.280   6.091  10.046  0.3718  0.0352 -1.1422
   86SAPS  H10S 8202  -0.422   6.102   9.949 -0.1628  0.5063  0.2536
   86SAPS  C211 8203  -0.324   5.909   9.946 -0.3082  0.3183 -0.2047
   86SAPS  H11R 8204  -0.244   5.852   9.996 -0.6117 -0.0907 -0.1764
   86SAPS  C212 8205  -0.361   5.863   9.825  0.2852 -0.3038  0.6534
   86SAPS  H12R 8206  -0.325   5.765   9.792  0.1781  0.1379 -0.8409
   86SAPS  C213 8207  -0.467   5.939   9.741  0.4250  0.3823  0.4009
   86SAPS  H13R 8208  -0.440   6.046   9.730 -0.1947  0.2006 -3.8771
   86SAPS  H13S 8209  -0.565   5.911   9.785 -0.4740 -0.7310 -2.1721
   86SAPS  C214 8210  -0.455   5.880   9.607  0.2499 -0.2054 -0.3682
   86SAPS  H14R 8211  -0.461   5.770   9.612 -2.0010 -0.0815  0.1747
   86SAPS  C215 8212  -0.471   5.943   9.491 -0.6308  0.1516 -0.3895
   86SAPS  H15R 8213  -0.444   5.884   9.401  0.5059 -1.4239  0.9562
   86SAPS  C216 8214  -0.487   6.091   9.477  0.1665 -0.3674 -0.1450
   86SAPS  H16R 8215  -0.419   6.141   9.549 -0.2715 -0.9431  0.6788
   86SAPS  H16S 8216  -0.586   6.131   9.510 -1.0157 -0.8149 -2.9299
   86SAPS  C217 8217  -0.454   6.160   9.345  0.5556 -0.5237 -0.5270
   86SAPS  H17R 8218  -0.345   6.179   9.334  0.9296 -0.9054  2.2248
   86SAPS  H17S 8219  -0.501   6.261   9.349 -1.6775 -1.5880  0.8065
   86SAPS  C218 8220  -0.500   6.096   9.217  0.1624 -0.1323 -0.3698
   86SAPS  H18R 8221  -0.610   6.082   9.216  0.0804  0.4678 -1.9236
   86SAPS  H18S 8222  -0.449   5.999   9.203 -0.4963 -0.4601 -0.5134
   86SAPS  C219 8223  -0.466   6.189   9.099 -0.2402  0.4589  0.7042
   86SAPS  H19R 8224  -0.365   6.228   9.122  0.4402 -0.3686 -0.8827
   86SAPS  H19S 8225  -0.532   6.278   9.106 -0.1719  0.4536  1.4691
   86SAPS  C220 8226  -0.471   6.128   8.956 -0.2311  0.3655  0.0364
   86SAPS  H20R 8227  -0.580   6.105   8.947 -0.6736  0.8217  3.5440
   86SAPS  H20S 8228  -0.405   6.039   8.951  0.4132  0.7362  1.5927
   86SAPS  H20T 8229  -0.429   6.206   8.889  0.3756 -0.0245 -0.0424
   86SAPS   C33 8230   0.143   6.007  10.190  0.4608  0.3926 -0.2289
   86SAPS   H3X 8231   0.083   6.025  10.282  0.6311 -0.6278  0.0834
   86SAPS   H3Y 8232   0.162   5.899  10.170 -0.5772  0.0258  0.7335
   86SAPS   C34 8233   0.058   6.069  10.076 -0.7948  0.4590  0.2404
   86SAPS   H4X 8234   0.060   6.178  10.058 -1.2198  0.3419 -0.5233
   86SAPS   H4Y 8235  -0.050   6.047  10.090  0.1701 -3.3132  2.8474
   86SAPS   C35 8236   0.094   5.995   9.946 -0.5638 -0.8978  0.4038
   86SAPS   H5X 8237   0.043   5.897   9.954  2.4522 -2.5117  0.4595
   86SAPS   H5Y 8238   0.203   5.981   9.937 -0.3560  1.0413 -0.5348
   86SAPS   C36 8239   0.037   6.080   9.824 -0.2325  0.3367  0.8135
   86SAPS   H6X 8240   0.105   6.165   9.800 -2.0349  1.5604 -0.0687
   86SAPS   H6Y 8241  -0.070   6.108   9.830 -1.2989 -3.0829 -1.2519
   86SAPS   C37 8242   0.048   5.996   9.694  0.3662 -0.2685  0.6306
   86SAPS   H7X 8243   0.000   5.896   9.706  0.2096 -0.4430 -1.2342
   86SAPS   H7Y 8244   0.154   5.983   9.666  0.2880 -0.6426  0.4957
   86SAPS   C38 8245  -0.023   6.053   9.574  0.1415 -0.4580 -0.0946
   86SAPS   H8X 8246   0.028   6.147   9.542  2.7147 -0.9994  2.2048
   86SAPS   H8Y 8247  -0.128   6.084   9.593  1.1384  4.0357 -1.2808
   86SAPS   C39 8248  -0.013   5.960   9.455  0.3280 -0.7973 -0.3495
   86SAPS   H9X 8249  -0.086   5.876   9.468 -2.4221  1.5004 -0.5019
   86SAPS   H9Y 8250   0.088   5.914   9.453  0.0943 -1.3256 -0.1461
   86SAPS  C310 8251  -0.056   6.015   9.316  0.2022  0.3035  0.4064
   86SAPS  H10X 8252  -0.016   6.117   9.295  2.0178 -0.1349  1.5830
   86SAPS  H10Y 8253  -0.166   6.030   9.311 -0.3139 -3.5598 -1.0021
   86SAPS  C311 8254  -0.054   5.918   9.192  0.1559 -0.0314  0.2901
   86SAPS  H11X 8255  -0.106   5.822   9.215  0.3337 -0.0814  0.4783
   86SAPS  H11Y 8256   0.048   5.880   9.174  0.6840  1.5190 -0.0589
   86SAPS  C312 8257  -0.106   5.979   9.062 -0.5606  0.5146 -0.2903
   86SAPS  H12X 8258  -0.038   6.057   9.021 -0.9685  0.3877 -1.2218
   86SAPS  H12Y 8259  -0.200   6.029   9.091  0.7513  1.4149  2.6020
   86SAPS  C313 8260  -0.140   5.878   8.950 -0.0707  0.3001 -0.1915
   86SAPS  H13X 8261  -0.232   5.826   8.984 -0.0329  1.2004  1.3326
   86SAPS  H13Y 8262  -0.058   5.807   8.927  0.5315  1.0830 -0.4436
   86SAPS  C314 8263  -0.152   5.942   8.807 -0.3539 -0.5255 -0.0773
   86SAPS  H14X 8264  -0.056   5.992   8.780 -1.8988  0.9996 -2.8915
   86SAPS  H14Y 8265  -0.238   6.010   8.817  1.1618  0.9593  3.9677
   86SAPS  C315 8266  -0.185   5.836   8.698 -0.2943 -0.0166 -0.6286
   86SAPS  H15X 8267  -0.285   5.786   8.701 -1.6399  2.4973 -2.3147
   86SAPS  H15Y 8268  -0.103   5.762   8.709  0.0322  0.5068  0.5221
   86SAPS  C316 8269  -0.177   5.888   8.557 -0.3299  0.4241  0.1995
   86SAPS  H16X 8270  -0.257   5.843   8.494 -1.8831  2.9121  0.3333
   86SAPS  H16Y 8271  -0.081   5.846   8.521 -0.5965 -0.3465  0.3740
   86SAPS  C317 8272  -0.187   6.039   8.530 -0.1063 -0.3320 -0.6214
   86SAPS  H17X 8273  -0.145   6.042   8.427 -1.4992  1.7072 -1.1567
   86SAPS  H17Y 8274  -0.111   6.094   8.589 -1.5021  2.4477 -1.3244
   86SAPS  C318 8275  -0.314   6.099   8.543  0.2041  0.0552 -0.7397
   86SAPS  H18X 8276  -0.305   6.206   8.513 -0.2957  0.2786 -0.1138
   86SAPS  H18Y 8277  -0.357   6.100   8.646 -0.0774  0.4994 -0.8614
   86SAPS  H18Z 8278  -0.387   6.055   8.473 -1.5949 -0.1649  1.2492
   87SAPS     N 8279   0.336   0.395  11.029 -1.0841 -0.0725 -0.7221
   87SAPS   HN1 8280   0.315   0.294  11.017  0.8843 -0.3120 -2.5066
   87SAPS   HN2 8281   0.317   0.422  11.127  2.7533 -1.2808  0.4361
   87SAPS   HN3 8282   0.289   0.455  10.958  0.6243  0.9929 -0.9901
   87SAPS   C12 8283   0.481   0.394  10.997 -0.4345  0.4056 -0.3081
   87SAPS  H12A 8284   0.509   0.499  10.993 -0.8430  0.5560  0.5581
   87SAPS   C13 8285   0.574   0.343  11.109 -0.0303  0.5505 -0.3811
   87SAPS  O13A 8286   0.522   0.296  11.217 -0.0637 -0.0677 -0.2638
   87SAPS  O13B 8287   0.701   0.349  11.093 -0.1336  0.7453  0.6358
   87SAPS   C11 8288   0.517   0.319  10.864  0.1316 -0.2390 -0.7984
   87SAPS  H11A 8289   0.627   0.326  10.849  0.3166  0.1530  0.6258
   87SAPS  H11B 8290   0.464   0.369  10.780 -2.0742  0.5830  1.0510
   87SAPS     P 8291   0.474   0.099  10.744  0.2209 -0.1386  0.1872
   87SAPS   O13 8292   0.591   0.144  10.669 -0.3205 -0.4986  0.1463
   87SAPS   O14 8293   0.460  -0.044  10.782 -0.0333 -0.3112  0.6818
   87SAPS   O12 8294   0.476   0.184  10.877  0.0415 -0.5582  0.0905
   87SAPS   O11 8295   0.336   0.156  10.677 -0.2674 -0.5027 -0.3061
   87SAPS    C1 8296   0.331   0.252  10.576 -0.2656 -0.0445  0.4749
   87SAPS    HA 8297   0.276   0.340  10.616 -1.0770 -0.6370  0.6704
   87SAPS    HB 8298   0.431   0.294  10.553 -1.7610  2.8123 -0.9967
   87SAPS    C2 8299   0.264   0.195  10.448  0.4462  0.2202  0.3562
   87SAPS    HS 8300   0.167   0.151  10.478  0.8257  1.2586  3.2850
   87SAPS   O21 8301   0.354   0.102  10.386  0.1044  0.2442 -0.0840
   87SAPS   C21 8302   0.297   0.002  10.314  0.4775 -0.3360  0.1127
   87SAPS   O22 8303   0.178  -0.024  10.314 -0.1708 -0.9584  0.4175
   87SAPS   C22 8304   0.407  -0.070  10.239 -0.0669  0.7668  0.5026
   87SAPS   H2R 8305   0.479  -0.112  10.312  0.5275 -2.2399 -1.7298
   87SAPS   H2S 8306   0.354  -0.163  10.209 -0.0569  1.1366 -0.6913
   87SAPS    C3 8307   0.223   0.298  10.335 -0.0364 -0.2934 -0.2940
   87SAPS    HX 8308   0.308   0.370  10.335  0.6006 -1.0265 -1.4521
   87SAPS    HY 8309   0.140   0.362  10.373 -0.3022 -0.5981 -0.3574
   87SAPS   O31 8310   0.205   0.253  10.204 -0.4142 -0.7046 -0.5202
   87SAPS   C31 8311   0.075   0.228  10.167 -0.5532 -0.3366 -0.5470
   87SAPS   O32 8312  -0.017   0.249  10.246  0.2764 -0.0054  0.3882
   87SAPS   C32 8313   0.060   0.147  10.041  0.9330 -0.7602  0.3715
   87SAPS   H2X 8314   0.025   0.048  10.079  0.9615 -0.4791  1.1341
   87SAPS   H2Y 8315   0.162   0.122  10.005  0.2351 -2.6364 -0.4167
   87SAPS   C23 8316   0.465   0.006  10.112  0.3982  0.2228 -0.3920
   87SAPS   H3R 8317   0.497   0.111  10.129 -2.5136  1.1631 -0.4759
   87SAPS   H3S 8318   0.378   0.014  10.043  0.1793 -0.8520 -0.2484
   87SAPS   C24 8319   0.580  -0.068  10.044  0.4312  0.4505 -1.0478
   87SAPS   H4R 8320   0.599  -0.021   9.945  1.3452  0.3326 -0.9262
   87SAPS   H4S 8321   0.543  -0.170  10.018  1.6634 -0.4516  0.6842
   87SAPS   C25 8322   0.712  -0.082  10.119 -0.7722  0.3185  0.0694
   87SAPS   H5R 8323   0.699  -0.074  10.228  1.2341 -1.1504  0.4313
   87SAPS   C26 8324   0.834  -0.080  10.057  0.8577  0.2170  0.2318
   87SAPS   H6R 8325   0.920  -0.110  10.119  0.1692 -2.2665  0.0192
   87SAPS   C27 8326   0.861  -0.075   9.908  0.9236 -0.1937  0.3120
   87SAPS   H7R 8327   0.793  -0.151   9.863 -0.1781  0.9233  0.0531
   87SAPS   H7S 8328   0.954  -0.128   9.880  1.0583  2.1525 -4.0188
   87SAPS   C28 8329   0.849   0.055   9.833 -0.1639 -0.4536  0.4236
   87SAPS   H8R 8330   0.817   0.142   9.892  0.5397 -0.4348  0.7869
   87SAPS   C29 8331   0.859   0.076   9.697 -0.2522 -0.2016 -0.8189
   87SAPS   H9R 8332   0.841   0.178   9.658  1.3153  0.3546 -0.1324
   87SAPS  C210 8333   0.898  -0.028   9.599 -0.0970  0.3598 -0.1202
   87SAPS  H10R 8334   0.841  -0.008   9.506  0.9779  0.2137 -0.8083
   87SAPS  H10S 8335   0.864  -0.130   9.630  0.0259 -0.1067 -1.4955
   87SAPS  C211 8336   1.048  -0.031   9.573 -0.3962 -0.0802 -0.2626
   87SAPS  H11R 8337   1.110  -0.036   9.664  0.1858 -0.8029 -0.6930
   87SAPS  C212 8338   1.106  -0.046   9.450 -0.1066  0.6687  0.9956
   87SAPS  H12R 8339   1.216  -0.039   9.454  0.1451 -0.7573 -2.0001
   87SAPS  C213 8340   1.036  -0.068   9.316 -0.1064  0.9096 -0.8908
   87SAPS  H13R 8341   0.925  -0.073   9.324 -0.1209  1.1580 -0.9465
   87SAPS  H13S 8342   1.069  -0.163   9.270  1.0757  1.5964 -1.4715
   87SAPS  C214 8343   1.080   0.036   9.212  0.5252 -0.6522  0.4367
   87SAPS  H14R 8344   1.188   0.029   9.193  0.3394 -2.6464 -0.0947
   87SAPS  C215 8345   1.008   0.119   9.137  0.5895 -0.9076  0.2996
   87SAPS  H15R 8346   1.054   0.181   9.059 -1.5830  0.9796  0.4849
   87SAPS  C216 8347   0.865   0.129   9.143 -0.2950  0.9834 -0.1811
   87SAPS  H16R 8348   0.815   0.035   9.177  1.3156 -0.0747 -0.6556
   87SAPS  H16S 8349   0.816   0.153   9.046 -0.6058  0.3164 -0.1955
   87SAPS  C217 8350   0.821   0.237   9.240 -0.0594 -0.1509 -0.2829
   87SAPS  H17R 8351   0.854   0.336   9.203 -0.4678 -0.7161 -2.1997
   87SAPS  H17S 8352   0.857   0.230   9.345 -0.9081 -2.4047 -0.1111
   87SAPS  C218 8353   0.673   0.239   9.257 -0.0742  0.1798 -0.2400
   87SAPS  H18R 8354   0.636   0.150   9.313  2.8962 -1.5648 -0.9070
   87SAPS  H18S 8355   0.623   0.216   9.161 -0.4667  1.3328 -0.3129
   87SAPS  C219 8356   0.625   0.372   9.318  0.2651 -1.4385 -0.2896
   87SAPS  H19R 8357   0.667   0.456   9.258 -0.6216 -3.8696 -4.5007
   87SAPS  H19S 8358   0.670   0.369   9.419  1.5872 -1.3194 -0.8628
   87SAPS  C220 8359   0.478   0.395   9.347  0.4404 -0.5964  0.1345
   87SAPS  H20R 8360   0.413   0.397   9.257  0.5396 -1.0586  0.0479
   87SAPS  H20S 8361   0.470   0.486   9.409  2.3726 -0.8640  0.8081
   87SAPS  H20T 8362   0.435   0.308   9.402 -2.4960  0.5462 -0.3058
   87SAPS   C33 8363  -0.022   0.218   9.938  0.5826  0.6465 -0.3207
   87SAPS   H3X 8364   0.030   0.310   9.903  1.8433 -0.2620 -0.8444
   87SAPS   H3Y 8365  -0.122   0.256   9.970  0.3670  0.1882 -0.4377
   87SAPS   C34 8366  -0.055   0.138   9.807  0.7144 -0.1914 -0.2975
   87SAPS   H4X 8367  -0.093   0.044   9.852 -0.6158  0.0475 -0.8650
   87SAPS   H4Y 8368   0.043   0.120   9.758  1.5112  3.3126 -0.1542
   87SAPS   C35 8369  -0.150   0.211   9.709  0.8762  0.1462 -0.7487
   87SAPS   H5X 8370  -0.119   0.317   9.701 -0.3985  0.5670 -0.3426
   87SAPS   H5Y 8371  -0.247   0.221   9.763  0.7122 -0.2795 -0.9604
   87SAPS   C36 8372  -0.147   0.156   9.565 -0.4692  0.4729 -0.0127
   87SAPS   H6X 8373  -0.246   0.180   9.523 -0.3877  1.3878  0.2964
   87SAPS   H6Y 8374  -0.139   0.046   9.582 -1.5973  0.2420 -0.9683
   87SAPS   C37 8375  -0.023   0.192   9.484  0.2904 -0.4086 -0.3219
   87SAPS   H7X 8376   0.067   0.161   9.541  0.9904  0.6088 -0.8499
   87SAPS   H7Y 8377  -0.019   0.303   9.477  1.1640 -0.2973  1.7385
   87SAPS   C38 8378  -0.035   0.135   9.342  0.3843  0.5719 -0.1791
   87SAPS   H8X 8379  -0.137   0.139   9.298  0.2751 -0.6286 -0.0488
   87SAPS   H8Y 8380  -0.005   0.028   9.340 -1.1922  0.1251 -0.5979
   87SAPS   C39 8381   0.066   0.211   9.253 -0.0594 -0.6131  0.3291
   87SAPS   H9X 8382   0.171   0.182   9.277 -0.4448 -2.4045 -0.0259
   87SAPS   H9Y 8383   0.049   0.320   9.255  1.3431 -0.3987  2.0346
   87SAPS  C310 8384   0.060   0.159   9.114 -1.1581  0.2688 -0.1535
   87SAPS  H10X 8385  -0.039   0.191   9.073 -1.4676  0.6334  0.8765
   87SAPS  H10Y 8386   0.047   0.048   9.107 -2.0177  0.2297  1.8395
   87SAPS  C311 8387   0.176   0.201   9.023 -0.5726  0.2255  0.6479
   87SAPS  H11X 8388   0.264   0.142   9.058  1.1098  2.3314  0.0683
   87SAPS  H11Y 8389   0.189   0.309   9.046 -0.9186  0.9156 -2.2569
   87SAPS  C312 8390   0.144   0.183   8.883 -0.2540  0.6662 -0.2612
   87SAPS  H12X 8391   0.048   0.231   8.852  0.6528  1.1955 -2.3140
   87SAPS  H12Y 8392   0.114   0.080   8.854 -0.1479  0.3908  0.5938
   87SAPS  C313 8393   0.258   0.232   8.783  0.1259  0.1663 -0.3483
   87SAPS  H13X 8394   0.319   0.141   8.775 -1.6114 -1.0592  0.0380
   87SAPS  H13Y 8395   0.316   0.316   8.828 -3.0444  2.1744  0.1788
   87SAPS  C314 8396   0.220   0.269   8.638 -0.5783  0.4107 -0.1883
   87SAPS  H14X 8397   0.315   0.284   8.584  0.5012 -0.1087  1.5010
   87SAPS  H14Y 8398   0.153   0.357   8.630 -0.0732  0.6217 -2.1849
   87SAPS  C315 8399   0.151   0.146   8.571  0.0432  0.1355 -1.2202
   87SAPS  H15X 8400   0.114   0.192   8.477  0.0747  1.5240 -0.5630
   87SAPS  H15Y 8401   0.060   0.127   8.632  0.6333 -0.4938 -0.5276
   87SAPS  C316 8402   0.241   0.018   8.549 -0.2971 -0.5567 -0.4180
   87SAPS  H16X 8403   0.174  -0.069   8.535 -0.1728 -0.7896  0.4544
   87SAPS  H16Y 8404   0.310   0.002   8.634  0.4513  3.6016 -0.1230
   87SAPS  C317 8405   0.331   0.029   8.429  0.8068 -0.4700  0.2673
   87SAPS  H17X 8406   0.396   0.119   8.417  1.7754 -1.0090  1.3546
   87SAPS  H17Y 8407   0.266   0.034   8.340  1.6184 -0.5619 -0.3391
   87SAPS  C318 8408   0.433  -0.085   8.435  0.3533 -0.6453 -0.9356
   87SAPS  H18X 8409   0.492  -0.104   8.343  1.6389 -1.4908  0.0471
   87SAPS  H18Y 8410   0.377  -0.179   8.451 -1.7062  0.3354 -2.1187
   87SAPS  H18Z 8411   0.504  -0.092   8.520 -0.7604 -2.6735 -0.1613
   88SAPS     N 8412   3.082   5.149  10.865 -0.4894  0.2804 -0.1139
   88SAPS   HN1 8413   3.044   5.186  10.955 -0.5958 -1.5741  0.6372
   88SAPS   HN2 8414   3.139   5.220  10.815  3.2773 -0.8813  2.3265
   88SAPS   HN3 8415   3.000   5.119  10.808 -0.5916  1.7261 -0.7395
   88SAPS   C12 8416   3.176   5.036  10.898 -0.4949  0.1709  0.2564
   88SAPS  H12A 8417   3.206   4.991  10.805 -0.6667  0.4470  0.0668
   88SAPS   C13 8418   3.304   5.075  10.967  0.6272  1.3712  0.1316
   88SAPS  O13A 8419   3.334   5.191  10.996 -0.3640 -0.3181 -0.1004
   88SAPS  O13B 8420   3.374   4.972  11.011 -0.0779 -0.5091 -0.7517
   88SAPS   C11 8421   3.100   4.928  10.978 -0.6384  0.1426 -0.2653
   88SAPS  H11A 8422   3.071   4.967  11.078 -2.8270 -1.8425 -0.0838
   88SAPS  H11B 8423   3.165   4.840  10.996  1.1520  1.3038 -0.9619
   88SAPS     P 8424   2.909   4.762  10.925 -0.5606  0.2840 -0.4920
   88SAPS   O13 8425   2.990   4.688  11.031 -0.5792  0.0892 -0.1543
   88SAPS   O14 8426   2.763   4.778  10.956 -0.2152  0.1540  0.4619
   88SAPS   O12 8427   2.978   4.895  10.903 -0.1585 -0.1061  0.4122
   88SAPS   O11 8428   2.919   4.690  10.782 -0.6675  0.5689 -0.0137
   88SAPS    C1 8429   2.965   4.753  10.661 -0.3651 -0.1124  1.1285
   88SAPS    HA 8430   2.903   4.844  10.646  0.2957  0.3275  1.0199
   88SAPS    HB 8431   3.070   4.788  10.669  0.2898 -1.6444 -0.4318
   88SAPS    C2 8432   2.943   4.655  10.550 -0.7209 -0.9866 -0.1814
   88SAPS    HS 8433   2.986   4.705  10.461  0.2715  1.2931  1.5121
   88SAPS   O21 8434   2.804   4.623  10.539  0.1420  0.5218  0.1521
   88SAPS   C21 8435   2.769   4.614  10.413 -0.8128  1.1379  0.3073
   88SAPS   O22 8436   2.833   4.657  10.320 -0.1089 -0.6857 -0.0068
   88SAPS   C22 8437   2.643   4.525  10.411 -0.8122 -0.4175 -0.7346
   88SAPS   H2R 8438   2.678   4.421  10.431  0.2755  0.4299  1.8914
   88SAPS   H2S 8439   2.567   4.547  10.488 -0.1995 -1.3041  0.1337
   88SAPS    C3 8440   3.018   4.525  10.571  0.2057  0.2920  0.1967
   88SAPS    HX 8441   2.971   4.472  10.656  0.2466  0.4665  0.3292
   88SAPS    HY 8442   3.127   4.532  10.589 -0.2342  0.3950  3.0822
   88SAPS   O31 8443   2.998   4.437  10.465  0.1857  0.4461 -1.0378
   88SAPS   C31 8444   3.090   4.449  10.369  0.3408 -0.1886  0.1481
   88SAPS   O32 8445   3.189   4.524  10.362  0.0207  0.5258  0.0895
   88SAPS   C32 8446   3.059   4.338  10.273  1.2295  0.4765  1.0114
   88SAPS   H2X 8447   2.955   4.303  10.284  1.1942 -0.0109 -0.7234
   88SAPS   H2Y 8448   3.113   4.249  10.312 -1.0016 -0.8119  1.2255
   88SAPS   C23 8449   2.582   4.494  10.275 -0.4479  0.5359  0.4911
   88SAPS   H3R 8450   2.520   4.405  10.299  0.8344 -0.1556  1.3515
   88SAPS   H3S 8451   2.660   4.462  10.203 -0.3226  2.5609 -0.3102
   88SAPS   C24 8452   2.499   4.611  10.220  0.2924 -0.3435 -0.0736
   88SAPS   H4R 8453   2.573   4.687  10.187 -1.8545  0.9982 -1.9125
   88SAPS   H4S 8454   2.431   4.660  10.293 -0.2186 -0.3632 -0.5278
   88SAPS   C25 8455   2.421   4.548  10.101  0.3919 -0.6383 -0.2342
   88SAPS   H5R 8456   2.374   4.455  10.136  0.8936 -0.4600  0.9405
   88SAPS   C26 8457   2.415   4.587   9.979 -0.4222  0.2932  0.1872
   88SAPS   H6R 8458   2.341   4.542   9.911 -0.2551  1.1787 -0.5906
   88SAPS   C27 8459   2.501   4.699   9.925 -0.3472 -0.0143 -0.2727
   88SAPS   H7R 8460   2.522   4.676   9.818  1.9972 -2.7853  0.7642
   88SAPS   H7S 8461   2.603   4.705   9.968  0.6589  1.4276 -2.7136
   88SAPS   C28 8462   2.455   4.842   9.957  0.5609  0.3141 -0.6902
   88SAPS   H8R 8463   2.443   4.861  10.065  1.4352 -0.2961 -0.4754
   88SAPS   C29 8464   2.432   4.940   9.864  0.0275 -0.2115 -0.1433
   88SAPS   H9R 8465   2.398   5.038   9.900 -1.5038 -0.5445 -0.6297
   88SAPS  C210 8466   2.448   4.922   9.716 -0.2759 -0.2255  0.2184
   88SAPS  H10R 8467   2.536   4.856   9.701  0.1398  0.4087 -0.1364
   88SAPS  H10S 8468   2.488   5.017   9.675 -0.4950  0.1202  0.7913
   88SAPS  C211 8469   2.322   4.870   9.642  0.2213 -0.4301  0.4177
   88SAPS  H11R 8470   2.232   4.859   9.703  1.2691  0.0775  2.0822
   88SAPS  C212 8471   2.318   4.822   9.514  0.7497 -0.3983 -0.2534
   88SAPS  H12R 8472   2.229   4.776   9.469 -0.9250  2.1575  0.3562
   88SAPS  C213 8473   2.432   4.811   9.419  0.2054  0.3769 -0.4224
   88SAPS  H13R 8474   2.469   4.707   9.402 -1.8424 -0.0919 -2.1560
   88SAPS  H13S 8475   2.518   4.864   9.466  0.5475 -0.4342 -0.1137
   88SAPS  C214 8476   2.407   4.865   9.280  0.1473 -0.1829 -0.3678
   88SAPS  H14R 8477   2.470   4.955   9.264 -0.4861  0.6493  1.6677
   88SAPS  C215 8478   2.344   4.820   9.173 -0.7724 -0.3513  0.1535
   88SAPS  H15R 8479   2.330   4.890   9.090 -0.8942  1.0629  1.3515
   88SAPS  C216 8480   2.278   4.690   9.177  0.4925  0.2975  0.0281
   88SAPS  H16R 8481   2.306   4.626   9.263  0.6345  0.9504  0.4763
   88SAPS  H16S 8482   2.308   4.621   9.095 -0.8556  0.7792 -0.8853
   88SAPS  C217 8483   2.120   4.692   9.165 -0.6207 -0.9534  0.2225
   88SAPS  H17R 8484   2.067   4.758   9.236 -0.6159  1.5344 -2.0145
   88SAPS  H17S 8485   2.076   4.590   9.172  0.9002 -1.6919 -0.5477
   88SAPS  C218 8486   2.070   4.737   9.023  0.2758  0.2967  0.1345
   88SAPS  H18R 8487   2.136   4.683   8.952  0.2634 -1.3089  1.3207
   88SAPS  H18S 8488   2.083   4.846   9.005 -3.4744  0.7380 -0.2796
   88SAPS  C219 8489   1.927   4.694   8.989  0.3624 -0.0174  0.0966
   88SAPS  H19R 8490   1.866   4.704   9.082  0.8517  2.6659  0.1643
   88SAPS  H19S 8491   1.936   4.586   8.965 -0.6108 -0.9795  3.6585
   88SAPS  C220 8492   1.870   4.758   8.854  1.0133 -0.1813  0.2688
   88SAPS  H20R 8493   1.832   4.862   8.861  2.7452  0.6055 -1.4789
   88SAPS  H20S 8494   1.790   4.700   8.803  0.7574  1.3753 -1.1253
   88SAPS  H20T 8495   1.957   4.752   8.785  0.3390  0.5339 -0.6554
   88SAPS   C33 8496   3.092   4.363  10.128  0.0802 -0.5666 -0.3217
   88SAPS   H3X 8497   3.195   4.402  10.140 -0.3113 -0.2698  2.6288
   88SAPS   H3Y 8498   3.031   4.441  10.077 -1.3248 -0.9061  0.7831
   88SAPS   C34 8499   3.079   4.227  10.045  0.2423  0.0231 -0.5499
   88SAPS   H4X 8500   2.976   4.186  10.050 -0.0242  0.3063 -2.9533
   88SAPS   H4Y 8501   3.143   4.149  10.092 -1.9715 -2.3137 -1.2683
   88SAPS   C35 8502   3.122   4.251   9.899  0.2041  0.0590  0.0695
   88SAPS   H5X 8503   3.138   4.149   9.858 -3.6046 -1.1773  1.3892
   88SAPS   H5Y 8504   3.217   4.308   9.902  2.5345 -3.7751  2.4756
   88SAPS   C36 8505   3.025   4.331   9.810 -0.3034  0.0747 -0.7181
   88SAPS   H6X 8506   3.034   4.433   9.855 -1.1454 -0.0968 -0.1505
   88SAPS   H6Y 8507   2.919   4.299   9.811 -0.9555  2.1961 -0.4838
   88SAPS   C37 8508   3.054   4.336   9.660  0.0664  0.0948 -0.4901
   88SAPS   H7X 8509   3.111   4.245   9.633  1.0979  0.2318  1.1979
   88SAPS   H7Y 8510   3.133   4.413   9.641  0.5691 -0.6003 -1.2709
   88SAPS   C38 8511   2.937   4.359   9.571 -0.4079 -0.0825  0.2932
   88SAPS   H8X 8512   2.884   4.448   9.611  0.6033  1.0618 -0.8910
   88SAPS   H8Y 8513   2.860   4.279   9.579 -0.7556  0.4181  2.4705
   88SAPS   C39 8514   2.971   4.373   9.428  0.9780  1.2358 -0.2018
   88SAPS   H9X 8515   3.027   4.288   9.386 -0.2116  1.2365 -1.8292
   88SAPS   H9Y 8516   3.037   4.460   9.406 -0.9140  2.2696 -2.0262
   88SAPS  C310 8517   2.845   4.385   9.340 -0.0896 -0.2253  0.0578
   88SAPS  H10X 8518   2.780   4.463   9.385 -1.5551 -1.2318 -0.3063
   88SAPS  H10Y 8519   2.778   4.297   9.345 -0.4830  0.0169 -0.9703
   88SAPS  C311 8520   2.874   4.417   9.194 -0.0390  0.2405  0.1448
   88SAPS  H11X 8521   2.936   4.338   9.146  0.6021  0.3077  0.8457
   88SAPS  H11Y 8522   2.944   4.503   9.197  3.3518 -2.3614 -1.6976
   88SAPS  C312 8523   2.747   4.448   9.119 -0.4697  0.3818 -0.0148
   88SAPS  H12X 8524   2.760   4.511   9.029 -0.5358  0.4093 -0.0039
   88SAPS  H12Y 8525   2.697   4.506   9.200  0.0982 -0.7857  1.2052
   88SAPS  C313 8526   2.657   4.327   9.090 -0.2650 -0.3513  0.5039
   88SAPS  H13X 8527   2.557   4.371   9.067  0.2792  0.7004  0.1172
   88SAPS  H13Y 8528   2.645   4.268   9.184  1.0372  2.5509  2.5499
   88SAPS  C314 8529   2.713   4.246   8.971 -0.4631  0.3275 -0.2971
   88SAPS  H14X 8530   2.810   4.195   8.990 -0.7619 -0.8237 -1.7898
   88SAPS  H14Y 8531   2.738   4.309   8.883  0.4547 -1.1343 -1.0941
   88SAPS  C315 8532   2.626   4.123   8.934  0.4531 -0.1496 -0.0929
   88SAPS  H15X 8533   2.526   4.172   8.933  0.0548 -0.9502  0.1503
   88SAPS  H15Y 8534   2.628   4.039   9.008  1.0962  1.2564  1.5064
   88SAPS  C316 8535   2.654   4.070   8.795  0.0555  0.1814  0.2664
   88SAPS  H16X 8536   2.757   4.032   8.782 -0.3801 -0.5481 -1.2061
   88SAPS  H16Y 8537   2.615   4.139   8.716  1.5826  1.0598  0.2471
   88SAPS  C317 8538   2.567   3.940   8.778  0.0826 -0.1081 -0.0184
   88SAPS  H17X 8539   2.459   3.961   8.762  0.0546 -1.8472 -2.4098
   88SAPS  H17Y 8540   2.589   3.869   8.860 -3.8574 -2.0214 -0.4712
   88SAPS  C318 8541   2.601   3.863   8.642 -0.4046 -0.1820 -0.7702
   88SAPS  H18X 8542   2.552   3.764   8.630  0.2564 -0.6149  0.0688
   88SAPS  H18Y 8543   2.712   3.858   8.641 -0.1918  1.9233  2.3157
   88SAPS  H18Z 8544   2.585   3.932   8.557  3.1118  0.6921 -0.7669
   89SAPS     N 8545   2.625   0.698  11.027  0.4476  0.4854 -0.0741
   89SAPS   HN1 8546   2.622   0.771  10.953  1.7283 -0.0204 -0.6260
   89SAPS   HN2 8547   2.714   0.708  11.079  0.1251 -1.3381  0.8676
   89SAPS   HN3 8548   2.628   0.606  10.978 -1.3818  0.8898 -0.9931
   89SAPS   C12 8549   2.514   0.692  11.127 -0.0510  0.2010 -0.7766
   89SAPS  H12A 8550   2.547   0.623  11.203  2.7569  3.0251  0.6924
   89SAPS   C13 8551   2.476   0.828  11.188  0.4626  0.2436  0.0756
   89SAPS  O13A 8552   2.529   0.932  11.141 -1.0470  0.3929 -0.2813
   89SAPS  O13B 8553   2.395   0.829  11.289  0.4139  0.0335  0.0515
   89SAPS   C11 8554   2.392   0.635  11.043 -0.3179 -0.4312  0.4138
   89SAPS  H11A 8555   2.379   0.703  10.956  0.5047  0.1775  0.7587
   89SAPS  H11B 8556   2.305   0.646  11.111  0.1515  1.7502  0.6903
   89SAPS     P 8557   2.461   0.460  10.853  0.3299  0.4997  0.1521
   89SAPS   O13 8558   2.606   0.489  10.851  0.2709  0.1623  0.3061
   89SAPS   O14 8559   2.418   0.318  10.825 -0.4616  0.3374 -0.4114
   89SAPS   O12 8560   2.405   0.492  10.998  0.3098 -0.3870  0.8227
   89SAPS   O11 8561   2.396   0.556  10.746  0.2066  0.2192 -0.0111
   89SAPS    C1 8562   2.251   0.583  10.756 -0.3815 -0.0401 -0.3743
   89SAPS    HA 8563   2.205   0.483  10.740  0.2075 -0.3637 -0.0896
   89SAPS    HB 8564   2.227   0.611  10.861 -1.3112 -0.4984 -0.4575
   89SAPS    C2 8565   2.195   0.693  10.667  0.1047  0.4377 -0.2563
   89SAPS    HS 8566   2.090   0.706  10.700  0.2771  0.5034  0.2742
   89SAPS   O21 8567   2.197   0.640  10.533 -0.2724 -0.1989  0.1366
   89SAPS   C21 8568   2.114   0.689  10.454  0.3767  0.4614  0.5076
   89SAPS   O22 8569   2.028   0.765  10.486  0.1673 -0.2437  0.0120
   89SAPS   C22 8570   2.123   0.634  10.312 -0.2069 -0.5686  0.1278
   89SAPS   H2R 8571   2.217   0.674  10.269 -1.1200 -0.7438 -2.0718
   89SAPS   H2S 8572   2.128   0.523  10.318  1.9964 -0.3874  3.2636
   89SAPS    C3 8573   2.286   0.817  10.684  0.1978  0.3641 -0.4938
   89SAPS    HX 8574   2.388   0.779  10.663 -0.6762 -1.6653 -1.1262
   89SAPS    HY 8575   2.288   0.865  10.784 -1.6492 -0.8830  0.1458
   89SAPS   O31 8576   2.238   0.919  10.593 -0.5297 -0.3620 -0.7823
   89SAPS   C31 8577   2.332   0.984  10.523 -0.6591  0.2551 -0.7166
   89SAPS   O32 8578   2.448   0.955  10.509 -0.6324  0.5006  0.1538
   89SAPS   C32 8579   2.275   1.110  10.467  0.9066 -0.3439  0.1629
   89SAPS   H2X 8580   2.314   1.207  10.505  0.1629  0.5093 -1.2153
   89SAPS   H2Y 8581   2.169   1.125  10.495  1.7128 -0.2723  3.3648
   89SAPS   C23 8582   2.009   0.673  10.220  0.4160  0.3891  0.6911
   89SAPS   H3R 8583   1.979   0.780  10.223  1.9205  0.8152  1.0890
   89SAPS   H3S 8584   1.915   0.617  10.237  1.2691 -1.4425 -0.5174
   89SAPS   C24 8585   2.051   0.671  10.068 -0.2998 -0.6217 -0.5871
   89SAPS   H4R 8586   2.143   0.730  10.047 -0.3265 -0.1469  0.5998
   89SAPS   H4S 8587   1.971   0.723  10.009 -0.4198 -1.2423 -0.9712
   89SAPS   C25 8588   2.077   0.526  10.026  1.2654 -0.2437  0.0800
   89SAPS   H5R 8589   2.056   0.447  10.099  1.4357  0.5849  1.0374
   89SAPS   C26 8590   2.137   0.497   9.911 -0.4446  0.4367  0.9353
   89SAPS   H6R 8591   2.136   0.394   9.870  1.5667  1.0995 -0.9174
   89SAPS   C27 8592   2.179   0.602   9.805 -0.2540 -0.2084 -0.8795
   89SAPS   H7R 8593   2.283   0.639   9.814 -1.5110  2.9094  2.0064
   89SAPS   H7S 8594   2.115   0.692   9.818  0.5060  0.1189  0.7087
   89SAPS   C28 8595   2.181   0.559   9.660  1.0173 -0.8498 -0.0807
   89SAPS   H8R 8596   2.232   0.463   9.643 -3.9449 -3.2846 -2.1287
   89SAPS   C29 8597   2.138   0.631   9.555  0.4230  0.5813 -0.3352
   89SAPS   H9R 8598   2.134   0.596   9.451 -3.2360  0.0350 -0.0857
   89SAPS  C210 8599   2.081   0.773   9.557 -0.3948  0.4243 -1.0102
   89SAPS  H10R 8600   2.144   0.839   9.494  1.7543  2.7542  3.3409
   89SAPS  H10S 8601   2.083   0.830   9.653  1.0115 -0.5521 -0.4452
   89SAPS  C211 8602   1.947   0.780   9.492 -0.4334  0.7301 -0.0165
   89SAPS  H11R 8603   1.870   0.743   9.561 -1.1456 -0.0118 -1.1903
   89SAPS  C212 8604   1.917   0.804   9.361 -0.4012  0.0531 -0.2249
   89SAPS  H12R 8605   1.810   0.823   9.343 -1.0871 -2.8194  0.6457
   89SAPS  C213 8606   2.022   0.850   9.264 -0.3158 -0.7128  0.9496
   89SAPS  H13R 8607   2.127   0.816   9.279  0.5661  1.5339  0.2170
   89SAPS  H13S 8608   2.026   0.961   9.260  2.4146 -0.7748  1.2143
   89SAPS  C214 8609   1.973   0.800   9.122 -0.7329 -0.0405  0.2677
   89SAPS  H14R 8610   1.929   0.699   9.126  1.5888 -1.0691  0.4625
   89SAPS  C215 8611   1.954   0.874   9.010  0.3304  0.1451 -0.2920
   89SAPS  H15R 8612   1.878   0.831   8.944  0.3319  0.0865 -0.2546
   89SAPS  C216 8613   1.981   1.021   9.012 -0.0461 -0.3675  0.6110
   89SAPS  H16R 8614   2.056   1.060   9.084 -0.9715 -0.8357  1.8348
   89SAPS  H16S 8615   1.894   1.087   9.033 -1.1646 -1.1090 -1.5194
   89SAPS  C217 8616   2.039   1.045   8.866  0.9041 -0.2006  0.6538
   89SAPS  H17R 8617   2.112   0.965   8.842  1.3272 -0.5303  2.8812
   89SAPS  H17S 8618   2.094   1.141   8.861 -0.1113  0.2604 -1.9713
   89SAPS  C218 8619   1.933   1.039   8.746 -0.7551 -0.2250 -0.1350
   89SAPS  H18R 8620   1.854   1.114   8.769  0.9758  1.2550  1.1376
   89SAPS  H18S 8621   1.882   0.941   8.735 -0.0577 -0.3984 -1.9285
   89SAPS  C219 8622   1.999   1.076   8.616  0.3143  0.7325 -0.5222
   89SAPS  H19R 8623   2.061   0.989   8.587 -0.6333 -0.6105  1.3619
   89SAPS  H19S 8624   2.070   1.161   8.624  0.7927  0.3769 -0.9945
   89SAPS  C220 8625   1.878   1.101   8.522 -0.2545  0.1585  0.1312
   89SAPS  H20R 8626   1.909   1.128   8.419 -1.1354 -3.1830 -1.0788
   89SAPS  H20S 8627   1.807   1.175   8.565 -1.9905  0.7149 -3.4549
   89SAPS  H20T 8628   1.805   1.017   8.519 -0.0612 -0.2505  4.3686
   89SAPS   C33 8629   2.271   1.122  10.316 -0.0648 -0.5239  0.7233
   89SAPS   H3X 8630   2.376   1.110  10.282 -0.3283 -1.7406  0.3031
   89SAPS   H3Y 8631   2.236   1.225  10.293 -1.2216 -0.8109  1.1558
   89SAPS   C34 8632   2.176   1.029  10.234  0.1810 -0.1486  0.0418
   89SAPS   H4X 8633   2.072   1.020  10.272  0.5727  0.3378  1.2621
   89SAPS   H4Y 8634   2.225   0.930  10.246  1.3906  0.3605 -0.5206
   89SAPS   C35 8635   2.167   1.069  10.088 -0.2681 -0.2102 -0.4609
   89SAPS   H5X 8636   2.150   0.981  10.022 -0.0309  0.5242 -1.5198
   89SAPS   H5Y 8637   2.264   1.120  10.070 -0.2720 -0.3860 -0.9908
   89SAPS   C36 8638   2.062   1.183  10.066  0.0571 -0.7926 -0.4885
   89SAPS   H6X 8639   2.104   1.275  10.110 -0.0445 -0.3726 -1.2546
   89SAPS   H6Y 8640   1.963   1.152  10.106 -1.0390  1.2509 -1.5413
   89SAPS   C37 8641   2.033   1.197   9.917 -0.2367 -0.5588 -0.4667
   89SAPS   H7X 8642   1.966   1.284   9.901 -1.7278 -1.9974 -2.0838
   89SAPS   H7Y 8643   1.990   1.100   9.885 -1.3027  0.2162 -1.3998
   89SAPS   C38 8644   2.164   1.235   9.841  0.2276 -0.1545 -0.6476
   89SAPS   H8X 8645   2.251   1.177   9.878  1.6228  2.5433  0.3694
   89SAPS   H8Y 8646   2.189   1.340   9.867  0.0005  0.2348 -1.9459
   89SAPS   C39 8647   2.155   1.224   9.689 -0.4080  0.1676  0.2307
   89SAPS   H9X 8648   2.087   1.307   9.660  0.2467 -0.0396 -1.9882
   89SAPS   H9Y 8649   2.099   1.135   9.652  1.8041 -1.5653  0.9082
   89SAPS  C310 8650   2.279   1.247   9.611 -0.1737  0.0341  0.5432
   89SAPS  H10X 8651   2.351   1.165   9.634  0.1226  0.3076  0.5900
   89SAPS  H10Y 8652   2.325   1.340   9.649  0.4566 -0.7611  1.7901
   89SAPS  C311 8653   2.253   1.252   9.460  0.6192 -0.2360  0.9271
   89SAPS  H11X 8654   2.216   1.153   9.426  1.8350 -0.8555  1.3690
   89SAPS  H11Y 8655   2.350   1.282   9.415 -0.7744  1.1553 -1.2037
   89SAPS  C312 8656   2.150   1.362   9.419 -0.5141  0.2586  0.4571
   89SAPS  H12X 8657   2.165   1.445   9.491 -1.7286  0.1657  0.8411
   89SAPS  H12Y 8658   2.049   1.320   9.441 -0.0988 -0.5754  0.8061
   89SAPS  C313 8659   2.150   1.411   9.275  0.1988  0.0042  0.8747
   89SAPS  H13X 8660   2.112   1.320   9.224  1.6365 -0.5887  0.8338
   89SAPS  H13Y 8661   2.253   1.425   9.235 -0.0473  2.7797  1.1002
   89SAPS  C314 8662   2.057   1.529   9.241 -0.4048 -0.6999  1.0223
   89SAPS  H14X 8663   2.063   1.613   9.313 -1.0895 -0.2014  0.5091
   89SAPS  H14Y 8664   1.951   1.502   9.262 -0.7940  1.0090  1.3567
   89SAPS  C315 8665   2.051   1.564   9.090 -0.4452  0.0104  0.1219
   89SAPS  H15X 8666   2.148   1.595   9.047  0.4303 -2.0259  0.5754
   89SAPS  H15Y 8667   1.976   1.646   9.086  0.4631  0.7666 -1.7046
   89SAPS  C316 8668   1.994   1.474   8.986 -0.6981  1.0619  0.3434
   89SAPS  H16X 8669   1.894   1.444   9.022 -0.9516  2.2485  0.6608
   89SAPS  H16Y 8670   2.071   1.395   8.974 -2.6575 -0.8640  0.2975
   89SAPS  C317 8671   1.981   1.544   8.848 -0.4430  0.5507  0.0795
   89SAPS  H17X 8672   2.080   1.578   8.812  0.0720 -1.5054 -0.5225
   89SAPS  H17Y 8673   1.927   1.639   8.868 -1.1310  0.2715 -0.4069
   89SAPS  C318 8674   1.911   1.472   8.733 -0.0789  0.1276 -0.4451
   89SAPS  H18X 8675   1.907   1.543   8.648 -0.2187  1.4213  0.6310
   89SAPS  H18Y 8676   1.806   1.453   8.762 -0.6368  1.9996 -1.1831
   89SAPS  H18Z 8677   1.964   1.380   8.701 -0.3695  0.5709 -2.2237
   90SAPS     N 8678   4.447   0.213  10.815  0.1339  0.0440  0.0265
   90SAPS   HN1 8679   4.493   0.289  10.869  0.5953 -1.9060  2.5272
   90SAPS   HN2 8680   4.360   0.187  10.867 -0.0674 -1.3363 -0.9723
   90SAPS   HN3 8681   4.517   0.137  10.799  1.5180  1.3959 -0.3572
   90SAPS   C12 8682   4.398   0.249  10.676 -0.5976  0.2225  0.3593
   90SAPS  H12A 8683   4.325   0.327  10.691  0.4572  0.9167  1.8801
   90SAPS   C13 8684   4.513   0.307  10.582  0.0994  0.5985  0.9936
   90SAPS  O13A 8685   4.596   0.366  10.649  0.7607 -0.4525 -0.1332
   90SAPS  O13B 8686   4.485   0.347  10.464  0.1520  0.2021 -0.4487
   90SAPS   C11 8687   4.318   0.126  10.611  0.4223 -0.0298  0.0170
   90SAPS  H11A 8688   4.382   0.036  10.623 -1.1315 -0.9106  2.2154
   90SAPS  H11B 8689   4.312   0.139  10.501  0.5284 -1.8226 -0.2171
   90SAPS     P 8690   4.105  -0.024  10.631  0.0965  0.3149  0.3322
   90SAPS   O13 8691   4.151  -0.123  10.732  0.1519 -0.1293 -0.1533
   90SAPS   O14 8692   3.960   0.016  10.631  0.2327 -0.1351  0.1116
   90SAPS   O12 8693   4.185   0.112  10.661  0.1916 -0.5401 -0.3809
   90SAPS   O11 8694   4.161  -0.068  10.490  0.2889 -0.2023 -0.0177
   90SAPS    C1 8695   4.137   0.018  10.376 -0.1980 -0.2248  0.2665
   90SAPS    HA 8696   4.089   0.115  10.402 -1.0783 -1.1708  2.2043
   90SAPS    HB 8697   4.234   0.038  10.326 -1.2034  0.3045 -1.5241
   90SAPS    C2 8698   4.046  -0.051  10.266 -0.5109  0.1216  0.0780
   90SAPS    HS 8699   3.948  -0.042  10.318 -0.6469 -0.0740 -0.1440
   90SAPS   O21 8700   4.086  -0.189  10.249  0.2189 -0.7596 -0.2830
   90SAPS   C21 8701   3.994  -0.275  10.203 -0.1935 -1.1023  0.2870
   90SAPS   O22 8702   3.874  -0.263  10.218  0.4331  0.2174 -0.3595
   90SAPS   C22 8703   4.055  -0.399  10.134  0.1173  0.5696 -0.4273
   90SAPS   H2R 8704   4.153  -0.409  10.185  0.1311  1.1257 -0.3506
   90SAPS   H2S 8705   4.000  -0.493  10.157 -1.2795  1.9275  1.9158
   90SAPS    C3 8706   4.043   0.031  10.132  0.4656  0.9530  0.1387
   90SAPS    HX 8707   4.151   0.040  10.108  0.7759 -3.5790 -0.5554
   90SAPS    HY 8708   4.005   0.134  10.150 -1.1525 -0.2505  4.1913
   90SAPS   O31 8709   3.975  -0.039  10.022 -0.5933 -0.0897 -0.1654
   90SAPS   C31 8710   3.859  -0.001   9.994  0.2448 -0.7152  0.5720
   90SAPS   O32 8711   3.787   0.072  10.063  0.0319  0.5059  0.4060
   90SAPS   C32 8712   3.819  -0.052   9.855  0.6880  0.7499  0.1091
   90SAPS   H2X 8713   3.720  -0.095   9.882  0.4985 -0.5939 -2.5986
   90SAPS   H2Y 8714   3.882  -0.138   9.826 -0.6129 -0.4609  0.8367
   90SAPS   C23 8715   4.066  -0.382   9.985 -0.3332 -0.1693  0.9121
   90SAPS   H3R 8716   4.067  -0.272   9.969 -0.4588  0.0884  2.6724
   90SAPS   H3S 8717   3.973  -0.416   9.934  1.2197 -0.3491 -1.9151
   90SAPS   C24 8718   4.182  -0.448   9.918 -0.3928 -0.4487 -0.0003
   90SAPS   H4R 8719   4.272  -0.440   9.984  0.3498 -1.4659 -0.8769
   90SAPS   H4S 8720   4.193  -0.382   9.830 -3.3707  1.6790  1.1430
   90SAPS   C25 8721   4.164  -0.596   9.895 -0.0950  0.4543  1.0351
   90SAPS   H5R 8722   4.177  -0.655   9.986 -0.7483  1.8641  2.0585
   90SAPS   C26 8723   4.134  -0.649   9.772 -0.7796 -0.7523 -1.0102
   90SAPS   H6R 8724   4.155  -0.757   9.763  2.7367 -0.2340  0.0102
   90SAPS   C27 8725   4.102  -0.576   9.649  0.2160  0.2803  0.0376
   90SAPS   H7R 8726   4.118  -0.645   9.563 -0.0472 -0.9960  0.9880
   90SAPS   H7S 8727   4.177  -0.497   9.628  0.3484 -0.2604 -1.6031
   90SAPS   C28 8728   3.964  -0.521   9.648 -0.1010 -1.2542 -0.3436
   90SAPS   H8R 8729   3.879  -0.583   9.680 -1.4491  0.1217 -1.1430
   90SAPS   C29 8730   3.923  -0.399   9.599  0.2317 -0.7155 -0.6516
   90SAPS   H9R 8731   3.822  -0.357   9.610  0.0606 -1.1247 -0.6601
   90SAPS  C210 8732   4.010  -0.280   9.559 -0.3472  0.1849 -0.2688
   90SAPS  H10R 8733   4.084  -0.252   9.637  2.9078 -4.1445 -1.6182
   90SAPS  H10S 8734   3.938  -0.196   9.553 -2.0606 -1.1365  1.4153
   90SAPS  C211 8735   4.097  -0.284   9.436  0.3330  0.1168  0.0661
   90SAPS  H11R 8736   4.201  -0.306   9.467 -0.2978 -1.9822  0.8155
   90SAPS  C212 8737   4.076  -0.269   9.305 -0.3196  0.1647 -0.0458
   90SAPS  H12R 8738   4.164  -0.288   9.243 -0.3369 -1.8794  0.5266
   90SAPS  C213 8739   3.943  -0.238   9.241  0.7481 -0.3717  0.7786
   90SAPS  H13R 8740   3.856  -0.239   9.310 -0.0897  1.5630 -0.2137
   90SAPS  H13S 8741   3.911  -0.327   9.182  0.9163  0.8721 -1.2425
   90SAPS  C214 8742   3.923  -0.117   9.153 -0.7226 -0.2939 -0.1077
   90SAPS  H14R 8743   3.888  -0.029   9.209 -1.8724 -0.8494  0.0661
   90SAPS  C215 8744   3.941  -0.108   9.023 -0.3358  0.1237  0.4718
   90SAPS  H15R 8745   3.926  -0.012   8.972  0.2860 -0.1595 -0.2551
   90SAPS  C216 8746   3.988  -0.218   8.938  0.4280 -0.2148  0.0804
   90SAPS  H16R 8747   4.007  -0.314   8.990 -0.1020 -0.6162 -0.4543
   90SAPS  H16S 8748   4.080  -0.197   8.879 -1.5041  0.3392 -2.8257
   90SAPS  C217 8749   3.878  -0.247   8.835  0.1119  0.3578  0.6411
   90SAPS  H17R 8750   3.882  -0.174   8.751  0.4195 -0.8365 -0.4053
   90SAPS  H17S 8751   3.777  -0.260   8.879  0.0913 -1.0207  0.2152
   90SAPS  C218 8752   3.910  -0.384   8.775  0.1714  0.0324  0.3979
   90SAPS  H18R 8753   3.915  -0.456   8.859  1.0236  1.2562  1.4197
   90SAPS  H18S 8754   4.010  -0.385   8.726  1.1510  0.0744  2.3637
   90SAPS  C219 8755   3.803  -0.420   8.672  0.3348  0.4711 -0.4011
   90SAPS  H19R 8756   3.801  -0.356   8.581  0.4818  2.3365  0.8769
   90SAPS  H19S 8757   3.699  -0.414   8.711  0.9167  0.1345  1.2059
   90SAPS  C220 8758   3.836  -0.555   8.604 -0.3625  0.1911 -0.1938
   90SAPS  H20R 8759   3.745  -0.584   8.548  0.1639  0.4687 -1.1989
   90SAPS  H20S 8760   3.851  -0.641   8.673 -1.4797  0.2838  0.1775
   90SAPS  H20T 8761   3.922  -0.535   8.538 -0.0602  0.0566  0.1581
   90SAPS   C33 8762   3.819   0.052   9.742  0.3132  0.0671 -0.1986
   90SAPS   H3X 8763   3.750   0.136   9.765  2.2652  0.8170  3.4111
   90SAPS   H3Y 8764   3.778  -0.005   9.656 -0.2364 -1.5780  1.0986
   90SAPS   C34 8765   3.959   0.103   9.712 -0.1488 -0.2335  0.0460
   90SAPS   H4X 8766   4.040   0.031   9.690  1.9908  2.0527  0.2246
   90SAPS   H4Y 8767   4.001   0.146   9.806  1.0329  1.0751 -1.0590
   90SAPS   C35 8768   3.957   0.216   9.608  0.7982  0.3037  0.7724
   90SAPS   H5X 8769   4.048   0.277   9.629  3.2793 -2.4437 -1.4455
   90SAPS   H5Y 8770   3.874   0.283   9.636 -1.7202 -2.4770  0.2136
   90SAPS   C36 8771   3.958   0.161   9.466 -0.2727 -0.0575  0.0802
   90SAPS   H6X 8772   3.853   0.129   9.454  0.3394 -1.6697 -1.0053
   90SAPS   H6Y 8773   4.025   0.075   9.445 -0.5699  0.0119 -1.1896
   90SAPS   C37 8774   3.993   0.283   9.372  0.5273  0.6737 -0.3287
   90SAPS   H7X 8775   4.084   0.335   9.408 -1.0713  1.3706  2.8524
   90SAPS   H7Y 8776   3.912   0.359   9.367  1.4377  1.6323 -0.6444
   90SAPS   C38 8777   4.030   0.229   9.227 -0.1765 -0.1459 -0.3148
   90SAPS   H8X 8778   3.939   0.178   9.188 -0.5798 -0.1534  0.6330
   90SAPS   H8Y 8779   4.109   0.152   9.240 -0.7012 -0.6225  0.0444
   90SAPS   C39 8780   4.068   0.334   9.121  1.3407  0.1668 -0.1684
   90SAPS   H9X 8781   4.156   0.392   9.154  0.8622  1.5277 -1.2597
   90SAPS   H9Y 8782   3.983   0.403   9.101 -0.4837 -1.6906  0.9646
   90SAPS  C310 8783   4.111   0.254   8.993 -0.2546  0.3042  0.1725
   90SAPS  H10X 8784   4.029   0.193   8.948  1.5360 -1.5795 -0.6277
   90SAPS  H10Y 8785   4.188   0.180   9.025 -1.1717 -0.9719 -0.5139
   90SAPS  C311 8786   4.159   0.358   8.888 -0.0141  0.1729 -0.0868
   90SAPS  H11X 8787   4.238   0.419   8.937  0.0086 -0.7815  1.0888
   90SAPS  H11Y 8788   4.070   0.418   8.863 -0.1833  0.4429  1.1352
   90SAPS  C312 8789   4.230   0.293   8.766 -0.4811  0.6855 -0.4849
   90SAPS  H12X 8790   4.291   0.206   8.800 -2.3433 -0.9026 -1.1669
   90SAPS  H12Y 8791   4.292   0.371   8.717 -0.3382 -0.3886 -2.0436
   90SAPS  C313 8792   4.127   0.240   8.667 -0.7758  0.4945  0.7463
   90SAPS  H13X 8793   4.070   0.325   8.623 -1.3057  0.5028  1.4368
   90SAPS  H13Y 8794   4.059   0.170   8.720 -3.7888  0.4455 -2.9647
   90SAPS  C314 8795   4.196   0.169   8.547 -0.4428  0.2008 -1.0060
   90SAPS  H14X 8796   4.266   0.095   8.591  0.0236 -0.3760 -2.6753
   90SAPS  H14Y 8797   4.262   0.239   8.491 -0.0463 -0.0131 -0.8075
   90SAPS  C315 8798   4.101   0.101   8.451 -0.3078 -0.1955  0.3305
   90SAPS  H15X 8799   4.028   0.177   8.418 -1.8312 -2.1079 -0.8476
   90SAPS  H15Y 8800   4.039   0.029   8.509 -1.6417  1.4232  0.9607
   90SAPS  C316 8801   4.164   0.018   8.338  0.2570  0.5593 -0.3972
   90SAPS  H16X 8802   4.215  -0.072   8.378 -0.5990  0.3501  0.2394
   90SAPS  H16Y 8803   4.238   0.084   8.287  0.6474 -0.6314 -1.3992
   90SAPS  C317 8804   4.057  -0.021   8.232 -0.0775 -0.1890  0.1359
   90SAPS  H17X 8805   3.980  -0.072   8.293  1.3501 -2.5486  0.0258
   90SAPS  H17Y 8806   4.114  -0.093   8.170  0.5726  0.4346  0.0013
   90SAPS  C318 8807   3.999   0.090   8.152  0.2167 -0.3974 -0.2302
   90SAPS  H18X 8808   3.910   0.136   8.200  1.2267  0.0343  1.2905
   90SAPS  H18Y 8809   3.959   0.044   8.059  2.4633  1.0969 -1.9881
   90SAPS  H18Z 8810   4.061   0.172   8.109 -2.6692  1.6428 -0.6419
   91SAPS     N 8811   1.971   5.298   5.852  0.0272  0.3188  0.3881
   91SAPS   HN1 8812   2.009   5.317   5.947  2.4905 -0.0909 -0.4610
   91SAPS   HN2 8813   1.999   5.375   5.788 -1.0127  3.0278  3.1102
   91SAPS   HN3 8814   1.867   5.303   5.854  0.0468  2.2315 -1.4938
   91SAPS   C12 8815   2.021   5.167   5.825 -0.4056 -0.4856  0.0302
   91SAPS  H12A 8816   1.956   5.100   5.879 -0.7011 -0.4586 -0.2925
   91SAPS   C13 8817   2.029   5.127   5.672 -0.1972  0.1393 -0.4291
   91SAPS  O13A 8818   2.000   5.206   5.579 -0.5227 -0.5799 -0.0218
   91SAPS  O13B 8819   2.017   5.002   5.656  0.6630  0.0102 -0.0194
   91SAPS   C11 8820   2.162   5.147   5.891  0.0258  0.7215  0.2755
   91SAPS  H11A 8821   2.234   5.189   5.818  0.4342  0.1431  0.3524
   91SAPS  H11B 8822   2.178   5.038   5.898  0.1244  0.6421 -1.0546
   91SAPS     P 8823   2.257   5.161   6.138  0.0481 -0.2430 -0.0238
   91SAPS   O13 8824   2.268   5.013   6.134 -0.4087 -0.3684  0.5179
   91SAPS   O14 8825   2.376   5.244   6.109 -0.0966  0.1116 -0.0269
   91SAPS   O12 8826   2.155   5.204   6.028 -0.7222  0.4990  0.2627
   91SAPS   O11 8827   2.178   5.205   6.265  0.2663 -0.4112 -0.6592
   91SAPS    C1 8828   2.188   5.340   6.315  0.2167  0.2667  0.4846
   91SAPS    HA 8829   2.249   5.403   6.246 -0.2607  1.6867  1.3577
   91SAPS    HB 8830   2.087   5.383   6.327  0.3570 -0.1230  3.4847
   91SAPS    C2 8831   2.252   5.349   6.454  0.2720  0.4600  0.6312
   91SAPS    HS 8832   2.338   5.279   6.451 -0.0107  0.1193  0.2613
   91SAPS   O21 8833   2.151   5.318   6.553 -1.0508 -0.2485  0.7726
   91SAPS   C21 8834   2.184   5.223   6.638 -0.2611  0.0508  0.7986
   91SAPS   O22 8835   2.285   5.161   6.645 -0.3982 -0.1844 -0.2454
   91SAPS   C22 8836   2.071   5.202   6.733  0.2260 -0.1858 -0.0714
   91SAPS   H2R 8837   1.997   5.282   6.713 -1.2320 -1.9006 -1.7262
   91SAPS   H2S 8838   2.020   5.105   6.715 -2.3525  1.0123  0.6089
   91SAPS    C3 8839   2.302   5.496   6.487  0.0724  0.1460 -0.6901
   91SAPS    HX 8840   2.213   5.562   6.478 -0.1291  0.7725  4.5296
   91SAPS    HY 8841   2.373   5.540   6.414  0.8584  0.4397  0.2408
   91SAPS   O31 8842   2.356   5.506   6.622  0.7172  0.3849 -0.6188
   91SAPS   C31 8843   2.481   5.476   6.629 -0.8968 -0.0896 -0.2877
   91SAPS   O32 8844   2.552   5.436   6.537 -0.1432  0.2860  0.2783
   91SAPS   C32 8845   2.533   5.497   6.771 -0.5939 -0.6498 -0.5581
   91SAPS   H2X 8846   2.534   5.604   6.802  0.4483 -0.9678  0.5113
   91SAPS   H2Y 8847   2.640   5.470   6.781 -1.1123 -2.7251 -0.4949
   91SAPS   C23 8848   2.127   5.203   6.877 -0.6074  0.2062 -0.3682
   91SAPS   H3R 8849   2.167   5.303   6.904  0.2518  0.0452 -1.0363
   91SAPS   H3S 8850   2.210   5.129   6.876  0.0207  0.8736  0.8375
   91SAPS   C24 8851   2.028   5.161   6.998  0.3567  0.0842 -0.2327
   91SAPS   H4R 8852   1.971   5.070   6.971  2.0112 -2.1539  3.4687
   91SAPS   H4S 8853   1.954   5.240   7.021  1.2496  0.6892  0.6153
   91SAPS   C25 8854   2.106   5.157   7.126 -0.3346 -0.0161 -0.3663
   91SAPS   H5R 8855   2.151   5.253   7.155  1.2245  0.6325 -4.6017
   91SAPS   C26 8856   2.134   5.048   7.193 -0.4782  0.3856  0.3878
   91SAPS   H6R 8857   2.194   5.041   7.285 -0.5580 -0.8587  0.3531
   91SAPS   C27 8858   2.099   4.906   7.162  0.2796 -1.2402  0.3499
   91SAPS   H7R 8859   2.187   4.840   7.179  2.4893  1.0902 -1.5008
   91SAPS   H7S 8860   2.074   4.896   7.055 -0.1532 -0.8664  0.4141
   91SAPS   C28 8861   1.989   4.853   7.248 -0.0146  0.9051  0.1424
   91SAPS   H8R 8862   1.888   4.857   7.204  0.1375 -0.3388 -0.3248
   91SAPS   C29 8863   2.004   4.799   7.374  0.2832 -0.1542 -0.1279
   91SAPS   H9R 8864   1.911   4.775   7.428 -0.1961  2.6552  0.3763
   91SAPS  C210 8865   2.136   4.783   7.448  0.1859  0.0586  0.1923
   91SAPS  H10R 8866   2.223   4.775   7.380  0.6543  1.1062  0.6629
   91SAPS  H10S 8867   2.145   4.681   7.492  0.2188  0.0099  0.0714
   91SAPS  C211 8868   2.172   4.887   7.549  0.5207 -0.1212  0.6232
   91SAPS  H11R 8869   2.201   4.983   7.505  1.3616  0.3610  2.1845
   91SAPS  C212 8870   2.165   4.865   7.679 -0.5295 -0.3721 -0.1366
   91SAPS  H12R 8871   2.196   4.950   7.741 -0.3996 -1.4683  1.3220
   91SAPS  C213 8872   2.122   4.746   7.763 -0.9028 -0.1488  0.4484
   91SAPS  H13R 8873   2.058   4.678   7.702 -0.5900  0.7710 -0.9202
   91SAPS  H13S 8874   2.057   4.766   7.851  0.0261  0.0357  1.0975
   91SAPS  C214 8875   2.248   4.666   7.806  0.6171  0.2603  0.3114
   91SAPS  H14R 8876   2.295   4.601   7.731 -0.3545 -0.5807  0.4154
   91SAPS  C215 8877   2.309   4.672   7.925 -0.5875 -0.0041  0.2069
   91SAPS  H15R 8878   2.392   4.602   7.939 -1.4217 -1.3518 -1.3632
   91SAPS  C216 8879   2.274   4.755   8.046 -0.6481 -0.1999  0.5838
   91SAPS  H16R 8880   2.198   4.833   8.023  1.1071  2.0122  2.0175
   91SAPS  H16S 8881   2.373   4.793   8.080 -0.3336  1.7028 -2.2944
   91SAPS  C217 8882   2.217   4.664   8.155  0.1294 -0.6135  0.6683
   91SAPS  H17R 8883   2.298   4.591   8.177 -0.2361 -2.2785 -3.1875
   91SAPS  H17S 8884   2.120   4.619   8.127 -0.7290  0.4963  1.8024
   91SAPS  C218 8885   2.188   4.753   8.277 -0.1207 -0.1721  0.0196
   91SAPS  H18R 8886   2.095   4.808   8.249  1.2260  2.0862 -0.0760
   91SAPS  H18S 8887   2.265   4.832   8.284  1.2020 -1.3134 -1.3834
   91SAPS  C219 8888   2.189   4.686   8.414  0.1058  0.8237  0.2953
   91SAPS  H19R 8889   2.110   4.608   8.423 -1.9514  2.8132  0.0154
   91SAPS  H19S 8890   2.155   4.755   8.494  0.5107  2.1344 -0.6388
   91SAPS  C220 8891   2.317   4.616   8.448  0.0194 -0.2605  0.1277
   91SAPS  H20R 8892   2.314   4.578   8.553  2.9528  1.2912  0.8441
   91SAPS  H20S 8893   2.406   4.682   8.438  2.5814 -3.5369  0.3844
   91SAPS  H20T 8894   2.331   4.524   8.388  1.9765 -0.0160  0.1825
   91SAPS   C33 8895   2.448   5.413   6.873  0.6046 -0.3414  1.1176
   91SAPS   H3X 8896   2.426   5.309   6.841  2.6478 -0.8648  1.3583
   91SAPS   H3Y 8897   2.348   5.452   6.899 -0.1616 -0.5665 -1.3464
   91SAPS   C34 8898   2.530   5.406   7.004  0.8200 -0.2267  0.4121
   91SAPS   H4X 8899   2.571   5.509   7.018 -0.9531  0.3127  1.8030
   91SAPS   H4Y 8900   2.618   5.340   6.993 -0.2654 -1.4674 -1.0195
   91SAPS   C35 8901   2.455   5.359   7.116  0.5331 -0.1221  0.7430
   91SAPS   H5X 8902   2.378   5.285   7.085 -0.9368  0.9791  1.7005
   91SAPS   H5Y 8903   2.397   5.442   7.161  2.2931  0.3587  2.2169
   91SAPS   C36 8904   2.546   5.297   7.224 -0.0752 -1.1744 -0.2039
   91SAPS   H6X 8905   2.627   5.364   7.259 -1.8932  0.8070  0.3763
   91SAPS   H6Y 8906   2.600   5.207   7.190  0.6491 -0.9162  0.2545
   91SAPS   C37 8907   2.470   5.258   7.348  0.1757 -0.7196  0.0733
   91SAPS   H7X 8908   2.389   5.185   7.324 -1.2706  1.1758 -0.8981
   91SAPS   H7Y 8909   2.412   5.340   7.396  1.3833 -0.1164  0.5241
   91SAPS   C38 8910   2.558   5.196   7.457  0.1061  0.7084 -0.6989
   91SAPS   H8X 8911   2.641   5.266   7.483 -1.6340  3.2234 -1.6605
   91SAPS   H8Y 8912   2.606   5.105   7.417 -2.0001 -0.8980  0.3093
   91SAPS   C39 8913   2.463   5.168   7.576  0.0487  0.0178  0.1839
   91SAPS   H9X 8914   2.386   5.090   7.555  0.2108  0.0652 -0.5898
   91SAPS   H9Y 8915   2.412   5.262   7.606  0.4708  0.2880  0.0516
   91SAPS  C310 8916   2.544   5.105   7.697  0.0758 -0.1003  0.5496
   91SAPS  H10X 8917   2.636   5.164   7.716  0.9817 -1.3242  0.0605
   91SAPS  H10Y 8918   2.576   4.999   7.685 -1.1754 -0.5650  1.1994
   91SAPS  C311 8919   2.462   5.109   7.831  0.7076  0.1316 -0.6110
   91SAPS  H11X 8920   2.370   5.049   7.816  1.7158 -1.4085 -0.7839
   91SAPS  H11Y 8921   2.432   5.215   7.840 -1.2649 -0.5460  1.1926
   91SAPS  C312 8922   2.542   5.055   7.947  0.0119  0.3459 -1.1139
   91SAPS  H12X 8923   2.621   5.133   7.961 -0.9263  1.2877 -1.0104
   91SAPS  H12Y 8924   2.583   4.953   7.929  1.8833  1.2912 -2.3808
   91SAPS  C313 8925   2.459   5.045   8.078 -0.4799 -0.0569 -0.0533
   91SAPS  H13X 8926   2.515   4.974   8.143  0.1682 -1.4304 -2.0449
   91SAPS  H13Y 8927   2.355   5.010   8.065 -0.4088  0.5666 -2.5721
   91SAPS  C314 8928   2.460   5.184   8.138  0.3369 -0.3062 -0.4056
   91SAPS  H14X 8929   2.372   5.198   8.205  0.6883  1.5265 -0.3004
   91SAPS  H14Y 8930   2.454   5.260   8.057  3.0240 -1.9587 -2.2412
   91SAPS  C315 8931   2.583   5.212   8.226  0.2001  0.4397  0.8772
   91SAPS  H15X 8932   2.676   5.173   8.179  1.7475  1.4175  3.0353
   91SAPS  H15Y 8933   2.571   5.168   8.327  3.5204 -0.9251  0.7297
   91SAPS  C316 8934   2.596   5.367   8.249  0.7063  0.0242  0.1732
   91SAPS  H16X 8935   2.505   5.412   8.292  0.4407 -0.7417  0.4136
   91SAPS  H16Y 8936   2.594   5.412   8.147 -1.9409  0.0010  0.1880
   91SAPS  C317 8937   2.720   5.386   8.336  0.2387  0.1087 -0.7818
   91SAPS  H17X 8938   2.747   5.492   8.319 -1.6585  0.7233 -0.1383
   91SAPS  H17Y 8939   2.810   5.329   8.304  1.9907  0.1801  3.6392
   91SAPS  C318 8940   2.702   5.373   8.491 -0.3694  1.0037  0.2715
   91SAPS  H18X 8941   2.780   5.428   8.548  0.4928  1.8894 -1.6968
   91SAPS  H18Y 8942   2.676   5.271   8.525 -0.7104  0.8274 -0.5119
   91SAPS  H18Z 8943   2.619   5.442   8.518  0.2272  2.4064 -1.3836
   92SAPS     N 8944   1.165   3.215   6.268  0.0385 -0.7556  0.1986
   92SAPS   HN1 8945   1.094   3.275   6.315  0.4369 -0.2793  0.1965
   92SAPS   HN2 8946   1.127   3.173   6.181 -1.5463  0.4504  0.2769
   92SAPS   HN3 8947   1.199   3.140   6.331 -0.0205 -0.8077  0.1683
   92SAPS   C12 8948   1.275   3.309   6.232 -0.0461  0.3102  0.3541
   92SAPS  H12A 8949   1.342   3.259   6.164 -0.9582 -1.4880  0.7433
   92SAPS   C13 8950   1.228   3.436   6.161  0.3537 -0.0093  0.5174
   92SAPS  O13A 8951   1.103   3.452   6.142  0.0013  0.5301 -0.7067
   92SAPS  O13B 8952   1.312   3.490   6.084 -0.4527  0.0842  1.2164
   92SAPS   C11 8953   1.364   3.344   6.356 -0.0344 -0.2708  0.2266
   92SAPS  H11A 8954   1.462   3.381   6.321  0.4591 -1.2727  0.5516
   92SAPS  H11B 8955   1.391   3.255   6.417  0.3784 -0.9146 -0.8781
   92SAPS     P 8956   1.367   3.544   6.527  0.1306  0.0800 -0.1958
   92SAPS   O13 8957   1.445   3.630   6.433  0.2477 -0.2332  0.3093
   92SAPS   O14 8958   1.259   3.611   6.605 -0.0652  0.0585 -0.2542
   92SAPS   O12 8959   1.292   3.438   6.441 -0.2789  0.4449  0.3307
   92SAPS   O11 8960   1.470   3.459   6.613  0.5074  0.2427 -0.0898
   92SAPS    C1 8961   1.436   3.341   6.675  0.4782 -0.4743 -0.5262
   92SAPS    HA 8962   1.332   3.304   6.660  0.1856  0.3117 -0.4304
   92SAPS    HB 8963   1.501   3.260   6.634 -0.8457 -1.1075 -1.4033
   92SAPS    C2 8964   1.463   3.347   6.828  0.0584  0.8969 -0.2933
   92SAPS    HS 8965   1.446   3.243   6.862  0.3439  0.0432 -2.6873
   92SAPS   O21 8966   1.366   3.433   6.895 -0.1998  0.0898 -0.4311
   92SAPS   C21 8967   1.240   3.404   6.898 -0.6350  0.1701  0.5321
   92SAPS   O22 8968   1.189   3.315   6.838  0.1907 -0.0605  0.1234
   92SAPS   C22 8969   1.162   3.491   6.992  0.7211  0.0576 -0.4638
   92SAPS   H2R 8970   1.225   3.575   7.027 -2.0352  2.1614 -0.3881
   92SAPS   H2S 8971   1.076   3.540   6.943 -1.0107 -0.1761  2.2382
   92SAPS    C3 8972   1.606   3.380   6.866  0.2328 -0.2492 -0.2229
   92SAPS    HX 8973   1.615   3.488   6.840  0.8058 -0.5242 -1.2151
   92SAPS    HY 8974   1.676   3.326   6.798  2.3020  0.6950  1.0905
   92SAPS   O31 8975   1.633   3.365   7.011  0.5430 -0.4197 -0.4369
   92SAPS   C31 8976   1.646   3.237   7.046  0.3135  0.1423  0.8253
   92SAPS   O32 8977   1.654   3.138   6.975 -0.0508  0.3754  0.0264
   92SAPS   C32 8978   1.662   3.234   7.199 -0.3526  0.0045  0.1608
   92SAPS   H2X 8979   1.631   3.328   7.250  1.3598 -0.1839  1.5855
   92SAPS   H2Y 8980   1.770   3.228   7.223  0.1837  0.4752 -2.0277
   92SAPS   C23 8981   1.094   3.399   7.092 -0.2217  0.3451  0.0950
   92SAPS   H3R 8982   1.171   3.342   7.147  1.0166 -1.0844 -2.9814
   92SAPS   H3S 8983   1.035   3.316   7.047 -0.9823 -0.4200  2.4122
   92SAPS   C24 8984   1.004   3.468   7.198 -0.2481  0.1069  0.2585
   92SAPS   H4R 8985   0.941   3.390   7.246 -0.6858  0.5835  0.4692
   92SAPS   H4S 8986   0.929   3.536   7.151 -2.2516 -1.6397  0.8401
   92SAPS   C25 8987   1.080   3.546   7.298  0.3149 -0.7389  0.0878
   92SAPS   H5R 8988   1.115   3.646   7.267 -1.0945 -1.2651 -3.4892
   92SAPS   C26 8989   1.113   3.508   7.422 -0.5924 -0.4454  0.4007
   92SAPS   H6R 8990   1.178   3.573   7.482 -0.9023 -1.1237  1.4703
   92SAPS   C27 8991   1.081   3.379   7.486 -0.0309 -0.6938  0.0674
   92SAPS   H7R 8992   0.994   3.338   7.432 -2.4594  1.3298  2.3322
   92SAPS   H7S 8993   1.053   3.396   7.592  0.2100  0.6057 -0.0649
   92SAPS   C28 8994   1.208   3.299   7.475  0.3280  0.0471  0.0302
   92SAPS   H8R 8995   1.260   3.314   7.379 -2.7222  1.5950 -1.4796
   92SAPS   C29 8996   1.269   3.221   7.563  0.6699  0.2240  0.1240
   92SAPS   H9R 8997   1.374   3.193   7.545  0.7756  0.9349 -0.4072
   92SAPS  C210 8998   1.228   3.189   7.702  0.0910  0.2896 -0.0960
   92SAPS  H10R 8999   1.195   3.084   7.719  5.0226 -1.1778  1.0601
   92SAPS  H10S 9000   1.150   3.257   7.743  0.8027 -1.3566  4.2225
   92SAPS  C211 9001   1.347   3.193   7.801 -0.5686 -0.2252  0.2435
   92SAPS  H11R 9002   1.427   3.125   7.768 -0.9387  0.4273 -2.0215
   92SAPS  C212 9003   1.349   3.266   7.917  0.5235  0.3719 -0.4640
   92SAPS  H12R 9004   1.437   3.258   7.982 -0.0707  1.4411  0.4981
   92SAPS  C213 9005   1.235   3.360   7.964 -0.4167  0.3330  0.2480
   92SAPS  H13R 9006   1.148   3.294   7.983 -1.0867  0.9465 -0.6333
   92SAPS  H13S 9007   1.201   3.425   7.880 -0.5001 -2.6899 -2.1577
   92SAPS  C214 9008   1.254   3.455   8.088  0.5214 -0.2322 -0.5086
   92SAPS  H14R 9009   1.299   3.552   8.059  0.1303 -0.2657 -1.2321
   92SAPS  C215 9010   1.218   3.432   8.216 -0.3424 -0.9175  0.2124
   92SAPS  H15R 9011   1.233   3.509   8.293  0.0028 -0.1996 -0.5622
   92SAPS  C216 9012   1.156   3.300   8.267  0.4051 -0.1933 -0.8529
   92SAPS  H16R 9013   1.198   3.212   8.213  0.4726 -1.3578  1.0578
   92SAPS  H16S 9014   1.050   3.292   8.233  0.0674 -1.2179  0.3739
   92SAPS  C217 9015   1.182   3.268   8.420 -0.0947  0.8253  0.7819
   92SAPS  H17R 9016   1.113   3.190   8.459  1.1959  0.8246  3.1214
   92SAPS  H17S 9017   1.173   3.359   8.483  0.2011  2.8270 -1.9678
   92SAPS  C218 9018   1.329   3.214   8.444  0.6790 -0.8651 -0.1773
   92SAPS  H18R 9019   1.340   3.190   8.551 -0.9004 -1.4427 -0.1260
   92SAPS  H18S 9020   1.397   3.299   8.422 -0.1517  0.2907  1.5676
   92SAPS  C219 9021   1.366   3.081   8.369 -0.3424 -0.0840 -0.6634
   92SAPS  H19R 9022   1.334   3.083   8.262 -0.1734  2.9981 -0.7016
   92SAPS  H19S 9023   1.306   2.999   8.414 -1.1417  1.9732  2.1608
   92SAPS  C220 9024   1.513   3.044   8.375  0.1525  0.0369  0.3547
   92SAPS  H20R 9025   1.572   3.131   8.338 -2.1636  0.6383 -2.0551
   92SAPS  H20S 9026   1.531   2.953   8.315 -1.7865  0.0528 -0.2768
   92SAPS  H20T 9027   1.543   3.024   8.480  1.4433 -1.6142 -0.3037
   92SAPS   C33 9028   1.584   3.125   7.286  1.1355 -0.3635  0.1634
   92SAPS   H3X 9029   1.579   3.023   7.244 -1.2702 -0.7145  1.2116
   92SAPS   H3Y 9030   1.478   3.159   7.278  0.8252 -1.2312  0.5983
   92SAPS   C34 9031   1.615   3.123   7.432  0.0570  0.0537  0.1541
   92SAPS   H4X 9032   1.591   3.217   7.486  2.3127  0.7952 -0.0838
   92SAPS   H4Y 9033   1.725   3.108   7.432 -0.0878 -1.1973  1.3202
   92SAPS   C35 9034   1.552   3.003   7.504 -0.1870 -0.3133  0.2654
   92SAPS   H5X 9035   1.481   2.952   7.436 -1.2380  0.6398  0.6406
   92SAPS   H5Y 9036   1.492   3.038   7.591 -1.7057 -0.5734 -0.6648
   92SAPS   C36 9037   1.657   2.913   7.562 -0.4005  0.3731 -0.3712
   92SAPS   H6X 9038   1.719   2.983   7.622 -0.9361  0.9950 -0.5363
   92SAPS   H6Y 9039   1.718   2.872   7.479  0.5615  0.7479  0.1418
   92SAPS   C37 9040   1.586   2.797   7.633  0.0750 -0.2809 -0.1161
   92SAPS   H7X 9041   1.648   2.709   7.659  1.2081  0.8464  1.0843
   92SAPS   H7Y 9042   1.507   2.762   7.563  0.8773 -0.0271 -1.1502
   92SAPS   C38 9043   1.514   2.817   7.768  0.1712  0.0953  0.3975
   92SAPS   H8X 9044   1.451   2.733   7.806 -0.0775 -0.0181 -0.2659
   92SAPS   H8Y 9045   1.436   2.893   7.744 -1.0290 -1.6081 -1.2009
   92SAPS   C39 9046   1.603   2.879   7.876 -0.4393  0.2612  0.0179
   92SAPS   H9X 9047   1.624   2.984   7.846  0.3167  0.2040  0.3197
   92SAPS   H9Y 9048   1.700   2.824   7.880 -0.6544 -0.0623  0.8769
   92SAPS  C310 9049   1.528   2.890   8.011  0.2516 -0.0031 -0.7772
   92SAPS  H10X 9050   1.423   2.907   7.978 -0.2140  1.6873  1.4303
   92SAPS  H10Y 9051   1.560   2.974   8.076 -0.4613 -0.0136 -0.4092
   92SAPS  C311 9052   1.537   2.759   8.094 -0.3433 -0.1540 -0.3927
   92SAPS  H11X 9053   1.524   2.676   8.021 -2.4679  0.2983 -0.5434
   92SAPS  H11Y 9054   1.454   2.766   8.167 -0.0580  0.2253 -0.1077
   92SAPS  C312 9055   1.673   2.748   8.157  1.0897  0.0761 -0.3354
   92SAPS  H12X 9056   1.698   2.839   8.215 -0.2328 -0.8101  1.6849
   92SAPS  H12Y 9057   1.749   2.730   8.078  1.8108 -1.2700  0.6486
   92SAPS  C313 9058   1.677   2.640   8.263 -0.2658  0.1930  0.2181
   92SAPS  H13X 9059   1.639   2.540   8.236 -0.5293  0.4081 -0.2138
   92SAPS  H13Y 9060   1.606   2.662   8.345 -0.3317 -0.5382  0.3583
   92SAPS  C314 9061   1.811   2.616   8.335  0.2322 -0.1002 -0.3199
   92SAPS  H14X 9062   1.884   2.569   8.266  0.4970  0.4644 -0.4298
   92SAPS  H14Y 9063   1.794   2.538   8.413  3.1779 -0.5274 -0.0355
   92SAPS  C315 9064   1.872   2.739   8.400  0.0591 -0.2050 -0.3159
   92SAPS  H15X 9065   1.834   2.759   8.503  0.7542  2.2066 -0.5111
   92SAPS  H15Y 9066   1.853   2.826   8.334 -0.9255 -1.1864 -1.3561
   92SAPS  C316 9067   2.022   2.728   8.421 -0.2989  0.2783  0.2230
   92SAPS  H16X 9068   2.069   2.817   8.468  3.2491 -1.7693  0.7399
   92SAPS  H16Y 9069   2.068   2.713   8.320  0.5448 -0.7679  0.7530
   92SAPS  C317 9070   2.065   2.613   8.500  0.2498  0.0334 -0.2806
   92SAPS  H17X 9071   2.032   2.515   8.460 -0.0675  0.2081 -0.4482
   92SAPS  H17Y 9072   2.032   2.624   8.605  3.0390  3.1424  0.3573
   92SAPS  C318 9073   2.216   2.597   8.489  0.5000 -0.3270  0.4060
   92SAPS  H18X 9074   2.256   2.565   8.391  0.8275  1.3602 -0.0210
   92SAPS  H18Y 9075   2.253   2.520   8.560  2.2262 -0.7920 -0.9523
   92SAPS  H18Z 9076   2.270   2.690   8.518 -0.5376  0.1505  0.8480
   93SAPS     N 9077   1.989   2.860   6.297  0.1992 -0.3023 -0.4576
   93SAPS   HN1 9078   1.887   2.869   6.312  0.0216  1.1707 -2.2855
   93SAPS   HN2 9079   1.987   2.888   6.196 -0.4788 -0.0042 -0.3636
   93SAPS   HN3 9080   2.002   2.759   6.318 -1.5280 -0.3934  0.1849
   93SAPS   C12 9081   2.068   2.956   6.377 -0.5204 -0.4167  0.3942
   93SAPS  H12A 9082   2.090   2.913   6.474  0.2048 -0.1731  0.3430
   93SAPS   C13 9083   2.206   2.979   6.314 -0.6218 -0.0316 -0.4923
   93SAPS  O13A 9084   2.241   2.921   6.205 -0.1835 -0.0779  0.6432
   93SAPS  O13B 9085   2.281   3.054   6.381 -0.3085 -0.4160 -0.0507
   93SAPS   C11 9086   2.006   3.098   6.381 -0.3795  0.1908 -0.1178
   93SAPS  H11A 9087   2.005   3.132   6.275  2.2709 -0.6151 -0.4129
   93SAPS  H11B 9088   2.069   3.170   6.437 -0.5574 -0.0744  0.4296
   93SAPS     P 9089   1.833   3.132   6.577 -0.1260  0.3842  0.2455
   93SAPS   O13 9090   1.846   3.284   6.589  0.1633 -0.3539  0.3501
   93SAPS   O14 9091   1.703   3.069   6.602  0.2564  0.1471 -0.2842
   93SAPS   O12 9092   1.868   3.094   6.425  0.3304  0.4439 -0.2871
   93SAPS   O11 9093   1.945   3.068   6.664  0.1584 -0.4757 -0.0571
   93SAPS    C1 9094   1.943   3.086   6.807 -0.1640 -0.2272  0.5645
   93SAPS    HA 9095   1.853   3.143   6.837 -0.8191 -0.2414 -1.2820
   93SAPS    HB 9096   1.939   2.983   6.847 -0.8724  0.3662  2.0447
   93SAPS    C2 9097   2.069   3.159   6.859  0.3342  0.4257  0.3164
   93SAPS    HS 9098   2.083   3.125   6.963 -0.0468  1.3510  0.6742
   93SAPS   O21 9099   2.051   3.295   6.860  0.4951 -0.3575  0.0759
   93SAPS   C21 9100   1.993   3.351   6.970 -0.3776 -0.0032  0.4862
   93SAPS   O22 9101   1.958   3.285   7.067 -0.2712 -1.0849  0.2187
   93SAPS   C22 9102   1.977   3.505   6.949 -0.2538 -0.5530 -0.0234
   93SAPS   H2R 9103   2.056   3.529   6.874  1.1261 -0.0905  1.5674
   93SAPS   H2S 9104   1.875   3.522   6.908  0.2982 -0.2278 -1.3159
   93SAPS    C3 9105   2.195   3.122   6.768  0.3417 -0.7100 -0.3422
   93SAPS    HX 9106   2.187   3.147   6.660 -1.9218 -1.2538 -0.3246
   93SAPS    HY 9107   2.196   3.012   6.781 -2.3600 -0.5587  1.3522
   93SAPS   O31 9108   2.318   3.175   6.824 -0.0432 -0.2469 -0.0771
   93SAPS   C31 9109   2.348   3.297   6.797 -0.1317 -0.1400  0.5565
   93SAPS   O32 9110   2.284   3.365   6.716 -0.3158  0.0123 -0.4250
   93SAPS   C32 9111   2.460   3.361   6.886 -0.2733  1.1165  0.5321
   93SAPS   H2X 9112   2.484   3.463   6.851  0.4358  0.5549 -0.6180
   93SAPS   H2Y 9113   2.548   3.295   6.872 -1.1047  0.0254  0.3711
   93SAPS   C23 9114   2.009   3.579   7.083  0.3238 -0.2294 -0.5572
   93SAPS   H3R 9115   2.109   3.550   7.123  0.3836 -1.8648 -1.8358
   93SAPS   H3S 9116   1.931   3.576   7.162  0.4112 -0.7920 -0.4885
   93SAPS   C24 9117   2.039   3.731   7.068 -0.1469 -0.9869  0.0739
   93SAPS   H4R 9118   2.044   3.773   7.171 -0.8592 -2.1604  0.6063
   93SAPS   H4S 9119   1.942   3.778   7.038 -0.1784 -2.0867 -1.6484
   93SAPS   C25 9120   2.159   3.769   6.986  0.6654 -0.5213  0.6494
   93SAPS   H5R 9121   2.132   3.773   6.879 -1.7209  1.3390  1.3017
   93SAPS   C26 9122   2.285   3.808   7.026 -0.0712  0.6499 -0.2064
   93SAPS   H6R 9123   2.340   3.863   6.948 -2.4070  3.0252 -0.2505
   93SAPS   C27 9124   2.342   3.821   7.171 -1.3623  0.3641  0.1909
   93SAPS   H7R 9125   2.266   3.769   7.233 -1.7070  1.2279  0.4971
   93SAPS   H7S 9126   2.353   3.930   7.190 -0.4688 -0.1508  2.8700
   93SAPS   C28 9127   2.482   3.759   7.188  0.1650 -0.1465 -0.1463
   93SAPS   H8R 9128   2.525   3.709   7.100  1.1039  0.2608  0.0742
   93SAPS   C29 9129   2.553   3.757   7.301 -0.1218 -0.2634  0.5216
   93SAPS   H9R 9130   2.645   3.697   7.304  1.4079  2.0135 -0.2753
   93SAPS  C210 9131   2.512   3.820   7.434 -0.2664 -0.8663  0.1058
   93SAPS  H10R 9132   2.411   3.799   7.475 -0.2100 -1.8923 -0.2603
   93SAPS  H10S 9133   2.489   3.926   7.410  1.5373 -0.2031  1.2341
   93SAPS  C211 9134   2.625   3.808   7.531 -0.9918 -0.5495 -0.2931
   93SAPS  H11R 9135   2.727   3.824   7.493 -1.0026 -1.2216 -0.6284
   93SAPS  C212 9136   2.612   3.807   7.662  0.4259  0.5840  1.1469
   93SAPS  H12R 9137   2.705   3.801   7.721  0.6028 -3.6899  0.5774
   93SAPS  C213 9138   2.480   3.818   7.738 -0.5594 -0.6039 -1.0260
   93SAPS  H13R 9139   2.423   3.902   7.693 -0.0335  0.2610 -0.1128
   93SAPS  H13S 9140   2.503   3.865   7.837  0.5864  0.8381 -1.9394
   93SAPS  C214 9141   2.376   3.713   7.754  0.2305  0.5338 -0.0175
   93SAPS  H14R 9142   2.379   3.624   7.689 -1.5691  0.5894 -0.2125
   93SAPS  C215 9143   2.261   3.726   7.821 -0.0705  0.4250  0.3932
   93SAPS  H15R 9144   2.207   3.633   7.844 -2.5981  1.4360 -1.2278
   93SAPS  C216 9145   2.219   3.844   7.901 -0.3011  0.5429  0.0419
   93SAPS  H16R 9146   2.130   3.890   7.852  0.7427  0.2951 -2.1361
   93SAPS  H16S 9147   2.294   3.926   7.891 -0.9572  1.2912  0.9921
   93SAPS  C217 9148   2.192   3.806   8.049  0.1038 -0.2557 -0.1045
   93SAPS  H17R 9149   2.103   3.740   8.057 -0.3991  0.5974  1.6977
   93SAPS  H17S 9150   2.164   3.902   8.096  1.9576  0.6785 -0.8566
   93SAPS  C218 9151   2.321   3.752   8.114 -0.3829 -0.6406  0.4946
   93SAPS  H18R 9152   2.406   3.818   8.086  1.3075 -2.7090  0.7320
   93SAPS  H18S 9153   2.349   3.648   8.089  0.6164 -0.3740  0.4776
   93SAPS  C219 9154   2.289   3.743   8.266 -0.3075  0.2690 -0.0419
   93SAPS  H19R 9155   2.197   3.684   8.284  0.5853 -1.0411  0.2642
   93SAPS  H19S 9156   2.253   3.846   8.290  0.2859  0.4164  0.2133
   93SAPS  C220 9157   2.404   3.708   8.352  0.1268  0.6137  0.4594
   93SAPS  H20R 9158   2.467   3.620   8.329 -0.3064  0.5726 -0.5605
   93SAPS  H20S 9159   2.367   3.701   8.457 -2.4147  3.5159 -0.1623
   93SAPS  H20T 9160   2.469   3.799   8.349  2.2196 -0.7990  1.5735
   93SAPS   C33 9161   2.406   3.360   7.032 -0.4014 -0.5397  0.7223
   93SAPS   H3X 9162   2.315   3.297   7.047  0.4408 -2.0750 -0.4020
   93SAPS   H3Y 9163   2.376   3.464   7.056  0.3095 -0.9042  3.3323
   93SAPS   C34 9164   2.520   3.317   7.130  0.2869  0.6936  0.4069
   93SAPS   H4X 9165   2.602   3.390   7.118  0.5257  0.4062  0.2849
   93SAPS   H4Y 9166   2.560   3.218   7.099  0.7330  0.8852  0.3748
   93SAPS   C35 9167   2.481   3.345   7.281 -0.9419 -0.0775  0.9161
   93SAPS   H5X 9168   2.398   3.272   7.298  0.0332 -1.0444  1.6150
   93SAPS   H5Y 9169   2.446   3.450   7.281  0.3408  0.3619  1.2728
   93SAPS   C36 9170   2.590   3.311   7.379  0.0612  0.4169 -0.2328
   93SAPS   H6X 9171   2.690   3.347   7.345 -0.4958  2.5751  0.3336
   93SAPS   H6Y 9172   2.592   3.201   7.394  0.5623  0.5537  0.8381
   93SAPS   C37 9173   2.567   3.361   7.522 -0.1313  0.1056  0.3958
   93SAPS   H7X 9174   2.539   3.469   7.522 -1.9303 -0.2970 -2.7274
   93SAPS   H7Y 9175   2.660   3.342   7.580  0.5294 -0.0288 -0.7047
   93SAPS   C38 9176   2.461   3.281   7.604 -0.6919 -0.4281  0.0653
   93SAPS   H8X 9177   2.475   3.172   7.588  2.0635  0.0459 -1.0467
   93SAPS   H8Y 9178   2.359   3.308   7.569 -0.1447  0.7907 -0.5942
   93SAPS   C39 9179   2.496   3.290   7.754 -0.0584  0.0538 -0.1559
   93SAPS   H9X 9180   2.539   3.392   7.764 -1.1562  0.5438 -0.3067
   93SAPS   H9Y 9181   2.582   3.229   7.788 -0.0278 -0.3619 -0.9552
   93SAPS  C310 9182   2.368   3.272   7.839 -0.0789  0.0577 -0.1617
   93SAPS  H10X 9183   2.344   3.164   7.845  1.6767 -0.2624  1.5715
   93SAPS  H10Y 9184   2.284   3.323   7.786  0.9592  2.6233  0.5465
   93SAPS  C311 9185   2.376   3.335   7.979 -0.2793 -0.2459 -0.9508
   93SAPS  H11X 9186   2.283   3.302   8.031  1.3584 -2.3768  0.7756
   93SAPS  H11Y 9187   2.370   3.445   7.970  1.4086 -0.2931 -3.1113
   93SAPS  C312 9188   2.510   3.301   8.048  0.2203  0.4477 -0.2613
   93SAPS  H12X 9189   2.587   3.354   7.987 -1.4445  0.4016 -2.4786
   93SAPS  H12Y 9190   2.529   3.192   8.042 -0.5156  0.2544  0.8926
   93SAPS  C313 9191   2.519   3.344   8.198  0.2847 -0.0097 -0.0517
   93SAPS  H13X 9192   2.450   3.296   8.271 -1.1455  0.7973 -0.8353
   93SAPS  H13Y 9193   2.485   3.450   8.199  1.8807  0.5207 -0.9431
   93SAPS  C314 9194   2.661   3.347   8.241 -0.3886 -0.0371  0.0933
   93SAPS  H14X 9195   2.714   3.430   8.190 -2.0214  0.9678  0.0241
   93SAPS  H14Y 9196   2.710   3.258   8.194  1.1858  0.3902  0.8826
   93SAPS  C315 9197   2.689   3.367   8.387 -0.1679 -0.6145 -0.6050
   93SAPS  H15X 9198   2.629   3.457   8.409 -0.8029 -1.1781 -0.0279
   93SAPS  H15Y 9199   2.796   3.389   8.407  0.5443 -2.4581 -2.2044
   93SAPS  C316 9200   2.658   3.246   8.469  0.2489 -0.3894  0.2860
   93SAPS  H16X 9201   2.733   3.169   8.443  2.7223  2.0510  0.0370
   93SAPS  H16Y 9202   2.558   3.201   8.448  0.6045  0.2258 -3.0035
   93SAPS  C317 9203   2.653   3.279   8.618  0.1230  0.1238  0.1729
   93SAPS  H17X 9204   2.730   3.356   8.641  1.4479 -1.3281  0.6952
   93SAPS  H17Y 9205   2.684   3.187   8.672  0.7799 -0.8233 -1.7704
   93SAPS  C318 9206   2.519   3.345   8.661  0.4249  0.0452  0.3088
   93SAPS  H18X 9207   2.507   3.446   8.617  1.1224  0.3611  0.8333
   93SAPS  H18Y 9208   2.527   3.361   8.771  0.9587  2.8894 -0.1026
   93SAPS  H18Z 9209   2.430   3.285   8.633  0.8124 -0.6939  0.6377
   94SAPS     N 9210   2.453   6.233   5.896  0.0915 -0.6256 -0.3076
   94SAPS   HN1 9211   2.477   6.213   5.995 -1.0761  0.7414  0.2572
   94SAPS   HN2 9212   2.491   6.328   5.879 -0.6910  0.1088  1.8380
   94SAPS   HN3 9213   2.350   6.248   5.900  0.0334 -0.8346 -0.9414
   94SAPS   C12 9214   2.484   6.112   5.810 -0.1477 -0.3184  0.0063
   94SAPS  H12A 9215   2.442   6.115   5.710  0.9848  1.9565 -0.4540
   94SAPS   C13 9216   2.632   6.095   5.776 -0.0477  0.2337 -0.3155
   94SAPS  O13A 9217   2.717   6.190   5.795 -0.4152 -0.2098  0.0068
   94SAPS  O13B 9218   2.673   5.992   5.714  0.0076 -0.0480 -0.8977
   94SAPS   C11 9219   2.427   5.991   5.884 -0.5590  0.3768  0.0917
   94SAPS  H11A 9220   2.463   5.990   5.989  1.0106  1.6266 -0.4186
   94SAPS  H11B 9221   2.473   5.899   5.843  1.1325  0.0383  2.5984
   94SAPS     P 9222   2.187   5.884   5.909  0.2258 -0.0538 -0.0792
   94SAPS   O13 9223   2.062   5.919   5.835  0.1431  0.3353  0.2435
   94SAPS   O14 9224   2.242   5.750   5.887  0.4006 -0.4405 -0.7334
   94SAPS   O12 9225   2.285   6.005   5.878 -0.2663 -0.0957  0.7905
   94SAPS   O11 9226   2.153   5.899   6.061  0.0361  0.2014 -0.1249
   94SAPS    C1 9227   2.145   6.023   6.130  0.2243  0.1953  0.1318
   94SAPS    HA 9228   2.249   6.056   6.153  0.8666 -1.8980  0.3431
   94SAPS    HB 9229   2.103   6.103   6.067  0.0627 -1.6021 -2.1095
   94SAPS    C2 9230   2.049   6.016   6.262 -0.1147  0.6482 -0.3835
   94SAPS    HS 9231   2.029   6.120   6.296 -0.8539  1.1083 -2.1689
   94SAPS   O21 9232   2.107   5.932   6.368  0.4695  0.1612  0.2269
   94SAPS   C21 9233   2.220   5.964   6.428  0.3379  0.8012  0.0770
   94SAPS   O22 9234   2.286   6.065   6.417  0.0914 -0.3180 -0.2103
   94SAPS   C22 9235   2.249   5.859   6.532  0.1443  0.5208 -0.1890
   94SAPS   H2R 9236   2.155   5.805   6.554 -0.4070  1.4176 -0.3423
   94SAPS   H2S 9237   2.333   5.792   6.502 -0.5386 -0.0906 -0.7505
   94SAPS    C3 9238   1.908   5.960   6.220 -0.3797  0.1161  0.0768
   94SAPS    HX 9239   1.920   5.850   6.206 -2.1073 -0.5525  3.3153
   94SAPS    HY 9240   1.870   6.000   6.124 -0.2704  2.5653  1.0031
   94SAPS   O31 9241   1.818   5.980   6.332  0.8845  0.7329  0.2041
   94SAPS   C31 9242   1.763   6.099   6.328 -0.0915 -0.0484  0.3158
   94SAPS   O32 9243   1.776   6.175   6.230  0.8456 -0.3183 -0.4293
   94SAPS   C32 9244   1.696   6.138   6.458 -0.1053 -0.4510  0.5299
   94SAPS   H2X 9245   1.593   6.101   6.440  0.8683 -2.6122 -0.7719
   94SAPS   H2Y 9246   1.684   6.248   6.453  2.4800  0.0244  3.3660
   94SAPS   C23 9247   2.279   5.924   6.672  0.1341  0.8272 -0.3517
   94SAPS   H3R 9248   2.192   5.961   6.730 -0.7747  3.0203 -3.0097
   94SAPS   H3S 9249   2.354   6.003   6.653  1.7300 -0.7371 -0.7444
   94SAPS   C24 9250   2.341   5.833   6.785 -0.5048 -0.3025 -0.2392
   94SAPS   H4R 9251   2.370   5.909   6.861 -2.6521  1.1227 -0.8058
   94SAPS   H4S 9252   2.438   5.797   6.743  0.2066 -0.5642  1.5798
   94SAPS   C25 9253   2.253   5.722   6.840 -0.0961  0.6476  0.2355
   94SAPS   H5R 9254   2.225   5.648   6.764  0.8615  0.0545  0.4575
   94SAPS   C26 9255   2.217   5.705   6.970  0.0868  0.4861 -0.5606
   94SAPS   H6R 9256   2.174   5.608   6.996 -3.3300  1.8119 -1.0884
   94SAPS   C27 9257   2.257   5.781   7.092  0.3237 -0.8493  0.6087
   94SAPS   H7R 9258   2.208   5.880   7.078 -0.4604 -1.2368  0.6163
   94SAPS   H7S 9259   2.366   5.805   7.099  0.5238 -1.5781 -0.0287
   94SAPS   C28 9260   2.204   5.731   7.229 -0.4671  0.4763  0.7862
   94SAPS   H8R 9261   2.108   5.682   7.209 -0.3544  0.7057 -0.3445
   94SAPS   C29 9262   2.263   5.738   7.346  0.3826 -0.2555  0.5205
   94SAPS   H9R 9263   2.216   5.677   7.424 -2.4024  0.7692 -0.2800
   94SAPS  C210 9264   2.390   5.808   7.384 -0.1118  0.1222 -0.4215
   94SAPS  H10R 9265   2.393   5.833   7.492 -0.6473 -0.2777 -0.3125
   94SAPS  H10S 9266   2.398   5.904   7.328 -0.1141 -0.7559 -1.9768
   94SAPS  C211 9267   2.498   5.711   7.342  0.4570 -0.5809  0.1916
   94SAPS  H11R 9268   2.517   5.686   7.236  0.4680 -1.5140  0.4111
   94SAPS  C212 9269   2.564   5.637   7.429  1.2665 -0.1850  0.5796
   94SAPS  H12R 9270   2.650   5.576   7.394 -0.9701 -2.7684 -0.5947
   94SAPS  C213 9271   2.548   5.638   7.575 -0.5327  0.4563  0.2053
   94SAPS  H13R 9272   2.443   5.657   7.608 -0.8864  3.5456 -2.4856
   94SAPS  H13S 9273   2.616   5.714   7.618 -1.6537  1.5435  0.0839
   94SAPS  C214 9274   2.590   5.514   7.648  0.1816  0.6683  0.0883
   94SAPS  H14R 9275   2.586   5.423   7.587 -0.9254  1.2845 -0.7923
   94SAPS  C215 9276   2.621   5.511   7.782  0.2200 -0.5162 -0.3205
   94SAPS  H15R 9277   2.650   5.417   7.831  1.0097  1.7219  3.7530
   94SAPS  C216 9278   2.609   5.635   7.868 -0.5676 -0.5312  0.1047
   94SAPS  H16R 9279   2.524   5.612   7.936  0.6235 -0.5183  1.6147
   94SAPS  H16S 9280   2.598   5.733   7.816  0.6053  0.6497  2.0157
   94SAPS  C217 9281   2.740   5.658   7.955  0.4791 -0.4089  0.4845
   94SAPS  H17R 9282   2.826   5.652   7.884  1.0539 -1.4164  1.2552
   94SAPS  H17S 9283   2.758   5.562   8.008 -0.2742 -2.5400 -2.9426
   94SAPS  C218 9284   2.727   5.777   8.051  0.3922  0.7328  0.2556
   94SAPS  H18R 9285   2.641   5.757   8.119  0.2141 -1.3506 -0.5346
   94SAPS  H18S 9286   2.705   5.874   8.002  0.6665  0.7746  0.2133
   94SAPS  C219 9287   2.861   5.801   8.124 -0.2251  0.9167  0.0827
   94SAPS  H19R 9288   2.920   5.859   8.051  1.3810 -0.4156  0.2800
   94SAPS  H19S 9289   2.917   5.705   8.138  0.2196  0.9866 -1.1701
   94SAPS  C220 9290   2.862   5.871   8.257 -0.1647 -0.3542 -0.3409
   94SAPS  H20R 9291   2.826   5.807   8.340  2.6444 -0.2636  1.0154
   94SAPS  H20S 9292   2.803   5.965   8.255  0.7500  0.2964  2.0455
   94SAPS  H20T 9293   2.966   5.899   8.286 -1.6623  3.1714  1.9667
   94SAPS   C33 9294   1.758   6.099   6.593 -0.0859 -0.3509  0.1140
   94SAPS   H3X 9295   1.784   5.991   6.594 -3.9197 -1.3398  2.7717
   94SAPS   H3Y 9296   1.672   6.116   6.661 -0.2828 -0.7589 -0.0266
   94SAPS   C34 9297   1.879   6.179   6.634  0.2604 -0.1773  0.5832
   94SAPS   H4X 9298   1.856   6.287   6.641 -0.6593 -0.2284 -1.2831
   94SAPS   H4Y 9299   1.953   6.173   6.552  0.4685  2.5134  0.5504
   94SAPS   C35 9300   1.949   6.136   6.765  0.1182  0.3720 -0.7487
   94SAPS   H5X 9301   2.045   6.190   6.763 -0.8287  2.2305  1.3079
   94SAPS   H5Y 9302   1.975   6.028   6.751  2.5022  0.4734  2.3514
   94SAPS   C36 9303   1.876   6.167   6.896  0.7345 -0.1585 -0.3111
   94SAPS   H6X 9304   1.771   6.134   6.886  0.0184  2.2635 -0.9253
   94SAPS   H6Y 9305   1.877   6.278   6.905 -0.4579 -0.3132  2.5402
   94SAPS   C37 9306   1.942   6.100   7.025  0.0165 -0.7123 -0.2297
   94SAPS   H7X 9307   2.050   6.123   7.031 -0.2966  1.2002 -1.6484
   94SAPS   H7Y 9308   1.938   5.990   7.016  0.6981 -0.9001  1.4813
   94SAPS   C38 9309   1.885   6.162   7.159  0.4513 -0.2227  0.1921
   94SAPS   H8X 9310   1.777   6.139   7.152 -0.0521  1.6763  1.4675
   94SAPS   H8Y 9311   1.914   6.268   7.173 -0.0026 -0.5621  4.1288
   94SAPS   C39 9312   1.941   6.095   7.289 -0.5131  0.2497  0.7757
   94SAPS   H9X 9313   2.051   6.091   7.273 -0.6246  0.3979 -0.0198
   94SAPS   H9Y 9314   1.903   5.991   7.300 -0.8567  0.5045  2.2165
   94SAPS  C310 9315   1.918   6.166   7.426 -1.0030 -0.3883  0.6774
   94SAPS  H10X 9316   1.810   6.189   7.436 -1.2677 -1.5429  0.5488
   94SAPS  H10Y 9317   1.971   6.263   7.434 -0.9191 -0.3374 -0.3799
   94SAPS  C311 9318   1.964   6.085   7.550  0.0748  0.3904 -0.3046
   94SAPS  H11X 9319   2.071   6.058   7.554 -0.5093 -2.0244 -0.3021
   94SAPS  H11Y 9320   1.903   5.992   7.553  1.5181 -0.5541 -0.0332
   94SAPS  C312 9321   1.935   6.150   7.687 -0.1511  0.0405  0.0146
   94SAPS  H12X 9322   1.824   6.156   7.686 -0.0677  1.6441 -1.3514
   94SAPS  H12Y 9323   1.966   6.256   7.685  1.5469 -0.4443 -0.1764
   94SAPS  C313 9324   1.985   6.059   7.800  0.0224 -0.4244  0.8042
   94SAPS  H13X 9325   2.096   6.062   7.812 -0.0073 -1.1191  1.2792
   94SAPS  H13Y 9326   1.964   5.951   7.786 -0.6046  0.0669 -2.3290
   94SAPS  C314 9327   1.916   6.102   7.928 -0.2738 -0.6469 -0.8868
   94SAPS  H14X 9328   1.808   6.115   7.906 -0.3679  0.2717  0.0474
   94SAPS  H14Y 9329   1.959   6.200   7.959  0.3552 -0.5765 -1.9331
   94SAPS  C315 9330   1.931   6.008   8.049  0.1804  0.6168  0.7696
   94SAPS  H15X 9331   2.038   6.000   8.079 -0.2160  1.7068  2.5421
   94SAPS  H15Y 9332   1.895   5.910   8.010  0.2778  0.1173  1.8906
   94SAPS  C316 9333   1.852   6.037   8.173 -0.2060 -0.5613  0.2346
   94SAPS  H16X 9334   1.864   5.956   8.247  2.0367  0.5302  1.1153
   94SAPS  H16Y 9335   1.746   6.047   8.139 -0.2996  0.7719  0.8696
   94SAPS  C317 9336   1.870   6.165   8.249 -0.0342 -0.1996 -0.0137
   94SAPS  H17X 9337   1.818   6.249   8.198  1.5852  0.0968 -1.2173
   94SAPS  H17Y 9338   1.978   6.191   8.252  0.4378 -2.1539  0.9769
   94SAPS  C318 9339   1.820   6.162   8.402 -0.8350  0.0222 -0.3837
   94SAPS  H18X 9340   1.728   6.104   8.423  0.6406 -1.6235  1.8062
   94SAPS  H18Y 9341   1.802   6.260   8.452  0.3681  0.3398 -0.5376
   94SAPS  H18Z 9342   1.896   6.105   8.461 -0.9557  0.0275 -0.2222
   95SAPS     N 9343   5.517   3.695   6.126  0.0228  0.2168  0.0469
   95SAPS   HN1 9344   5.440   3.765   6.123  0.9463  1.2029 -1.5590
   95SAPS   HN2 9345   5.482   3.598   6.112  1.4928 -0.4072  0.5670
   95SAPS   HN3 9346   5.551   3.699   6.224  1.1472  0.9852 -0.3605
   95SAPS   C12 9347   5.626   3.732   6.025  0.9183 -0.2375  0.5856
   95SAPS  H12A 9348   5.709   3.665   6.042  1.4332  0.4519  0.8082
   95SAPS   C13 9349   5.592   3.726   5.874  0.6888 -0.0910  0.0490
   95SAPS  O13A 9350   5.488   3.660   5.837  0.2069 -0.4476  0.5326
   95SAPS  O13B 9351   5.681   3.750   5.792  0.0198 -0.4786  0.2576
   95SAPS   C11 9352   5.677   3.871   6.054 -0.4226  0.4495 -0.6662
   95SAPS  H11A 9353   5.597   3.947   6.048 -0.2029  0.7379 -0.0493
   95SAPS  H11B 9354   5.756   3.895   5.979 -0.4532  0.0997 -0.8062
   95SAPS     P 9355   5.867   3.936   6.227 -0.3672  0.1860 -0.0695
   95SAPS   O13 9356   5.974   3.850   6.169 -0.6229 -0.1745 -0.5305
   95SAPS   O14 9357   5.876   4.072   6.179 -0.1301 -0.1807  0.3005
   95SAPS   O12 9358   5.713   3.883   6.198  0.4686  0.5731 -0.0325
   95SAPS   O11 9359   5.870   3.942   6.388 -0.0170 -0.1600  0.0804
   95SAPS    C1 9360   5.902   3.828   6.459 -0.3619 -0.6058  0.0084
   95SAPS    HA 9361   5.924   3.735   6.402 -0.6536 -1.3579  1.0979
   95SAPS    HB 9362   5.992   3.857   6.517  1.0368 -0.3511 -2.2781
   95SAPS    C2 9363   5.805   3.810   6.575 -0.0517  0.0360  0.0912
   95SAPS    HS 9364   5.792   3.903   6.634 -2.6934 -0.6205  0.6090
   95SAPS   O21 9365   5.869   3.711   6.658 -0.3267  0.3451  0.1367
   95SAPS   C21 9366   5.867   3.727   6.794  0.0893 -0.0552  0.4100
   95SAPS   O22 9367   5.807   3.820   6.848  0.5659  0.3634  0.6996
   95SAPS   C22 9368   5.946   3.621   6.870  0.6396  0.2549  0.1639
   95SAPS   H2R 9369   5.956   3.524   6.817  2.9676  1.4762 -1.7219
   95SAPS   H2S 9370   6.052   3.653   6.872  0.5929  0.6544 -2.1606
   95SAPS    C3 9371   5.673   3.762   6.505 -0.3083 -0.0851  0.4200
   95SAPS    HX 9372   5.703   3.674   6.445  0.4205  0.7252 -0.4190
   95SAPS    HY 9373   5.638   3.846   6.441  1.6610  0.5069  0.0743
   95SAPS   O31 9374   5.570   3.732   6.603 -0.4110 -0.4779  0.2299
   95SAPS   C31 9375   5.474   3.645   6.560 -0.0450  0.7511 -0.0513
   95SAPS   O32 9376   5.469   3.607   6.446 -0.8797 -0.1990 -0.1213
   95SAPS   C32 9377   5.394   3.603   6.679 -0.4045 -0.3128 -0.0707
   95SAPS   H2X 9378   5.299   3.657   6.663 -1.2901 -0.5624  3.8295
   95SAPS   H2Y 9379   5.438   3.646   6.772  1.6116 -0.9588 -0.7039
   95SAPS   C23 9380   5.880   3.585   7.010 -0.1506  0.3438 -0.1035
   95SAPS   H3R 9381   5.770   3.591   6.996 -0.0015 -1.5665 -2.3860
   95SAPS   H3S 9382   5.903   3.673   7.074 -0.1188  1.5012 -1.6676
   95SAPS   C24 9383   5.928   3.447   7.066 -0.1874 -0.4018 -0.4884
   95SAPS   H4R 9384   5.942   3.380   6.978 -1.2712 -0.5682 -0.5312
   95SAPS   H4S 9385   5.861   3.402   7.141 -0.0934  3.6394  2.1661
   95SAPS   C25 9386   6.064   3.472   7.116 -1.1515  0.3780  0.1193
   95SAPS   H5R 9387   6.136   3.518   7.047  0.3788 -0.0561  1.3652
   95SAPS   C26 9388   6.107   3.445   7.244  0.5561 -0.9090 -0.1222
   95SAPS   H6R 9389   6.210   3.479   7.260  0.1175 -0.5703  2.0749
   95SAPS   C27 9390   6.040   3.385   7.371  1.1413  0.4278  0.3660
   95SAPS   H7R 9391   6.117   3.349   7.443  0.4428 -1.4983  0.1845
   95SAPS   H7S 9392   5.986   3.294   7.335  0.6965 -0.1097  2.3127
   95SAPS   C28 9393   5.941   3.475   7.445 -0.2646 -0.2420  0.2374
   95SAPS   H8R 9394   5.904   3.561   7.387  0.7051 -0.8020 -1.2552
   95SAPS   C29 9395   5.905   3.454   7.576 -0.4605 -0.7920  0.2358
   95SAPS   H9R 9396   5.840   3.526   7.628  0.5663 -1.2684  2.2155
   95SAPS  C210 9397   5.950   3.352   7.672 -0.4147 -0.2202  0.0942
   95SAPS  H10R 9398   5.990   3.399   7.764 -2.3201  0.1963  0.7250
   95SAPS  H10S 9399   6.023   3.277   7.633  2.3506  1.5096  1.7689
   95SAPS  C211 9400   5.822   3.274   7.708  0.3165 -0.4616 -0.3195
   95SAPS  H11R 9401   5.799   3.191   7.641 -1.1548  0.3298 -0.8109
   95SAPS  C212 9402   5.740   3.303   7.812  0.1568 -1.1108 -0.9828
   95SAPS  H12R 9403   5.652   3.240   7.831 -1.1125  0.7162 -0.7205
   95SAPS  C213 9404   5.754   3.412   7.909  0.3021 -0.2960  0.1626
   95SAPS  H13R 9405   5.726   3.508   7.861  2.2740  1.3739  2.2128
   95SAPS  H13S 9406   5.858   3.423   7.947  0.9327  0.2387 -1.6553
   95SAPS  C214 9407   5.652   3.420   8.024  0.8823  0.2171 -0.1450
   95SAPS  H14R 9408   5.548   3.431   7.989  0.0996  1.7945  2.4981
   95SAPS  C215 9409   5.683   3.404   8.157  0.0462 -0.2561 -0.9539
   95SAPS  H15R 9410   5.607   3.402   8.237  2.8612 -0.7083  1.7837
   95SAPS  C216 9411   5.823   3.382   8.218  0.9251  0.3644  0.0587
   95SAPS  H16R 9412   5.903   3.440   8.168 -1.5020  0.7604 -3.5721
   95SAPS  H16S 9413   5.860   3.278   8.213 -0.7213 -0.3225  1.5944
   95SAPS  C217 9414   5.820   3.449   8.358  0.4749 -0.2481  0.2120
   95SAPS  H17R 9415   5.780   3.553   8.354 -1.3794 -0.9995 -1.6729
   95SAPS  H17S 9416   5.927   3.454   8.385  0.5634  1.6131 -0.4029
   95SAPS  C218 9417   5.744   3.373   8.466  0.0329 -0.0162 -0.3744
   95SAPS  H18R 9418   5.767   3.264   8.458  0.2946  0.0342 -0.3313
   95SAPS  H18S 9419   5.635   3.386   8.449  0.2557  2.0649 -0.3634
   95SAPS  C219 9420   5.778   3.425   8.598 -0.8264 -0.7046  0.1546
   95SAPS  H19R 9421   5.772   3.536   8.601 -0.2142 -0.6917  1.0017
   95SAPS  H19S 9422   5.876   3.393   8.638  0.4857  2.0484 -0.7451
   95SAPS  C220 9423   5.680   3.362   8.701 -0.1902 -0.7316 -0.4088
   95SAPS  H20R 9424   5.699   3.253   8.708 -0.8738 -0.8872 -0.8991
   95SAPS  H20S 9425   5.576   3.381   8.668  0.5201 -0.6107 -2.6552
   95SAPS  H20T 9426   5.706   3.412   8.797 -0.1839 -1.6946  0.0972
   95SAPS   C33 9427   5.374   3.453   6.696 -0.0513 -0.1567  0.2967
   95SAPS   H3X 9428   5.472   3.402   6.692 -1.0064 -2.0597  0.3718
   95SAPS   H3Y 9429   5.314   3.415   6.610 -1.8228  0.1844  1.3505
   95SAPS   C34 9430   5.309   3.429   6.836 -0.8239 -0.1404 -0.2351
   95SAPS   H4X 9431   5.268   3.327   6.819 -1.8508  0.1481  0.4972
   95SAPS   H4Y 9432   5.221   3.496   6.842  0.0743  0.9445  1.2886
   95SAPS   C35 9433   5.409   3.427   6.950  0.4105 -0.0662  0.2498
   95SAPS   H5X 9434   5.451   3.528   6.971  0.8795 -0.3573  0.7271
   95SAPS   H5Y 9435   5.488   3.350   6.940  0.8338  0.0289  2.6599
   95SAPS   C36 9436   5.326   3.387   7.080 -0.4364 -0.5410 -0.1964
   95SAPS   H6X 9437   5.285   3.285   7.064 -1.2167 -0.6117  2.1073
   95SAPS   H6Y 9438   5.241   3.457   7.095  2.0086  2.3064  0.9361
   95SAPS   C37 9439   5.397   3.379   7.213 -0.2800 -0.1776 -0.7784
   95SAPS   H7X 9440   5.418   3.487   7.233  0.1176 -0.2579 -0.7455
   95SAPS   H7Y 9441   5.495   3.335   7.186  1.1629  0.2149  3.3735
   95SAPS   C38 9442   5.339   3.303   7.322 -0.0641 -0.5712 -0.4230
   95SAPS   H8X 9443   5.351   3.193   7.317  1.1460 -0.4227 -0.8194
   95SAPS   H8Y 9444   5.228   3.313   7.322 -0.1197 -1.1430 -0.2189
   95SAPS   C39 9445   5.390   3.345   7.466 -0.0769  0.6203 -0.8916
   95SAPS   H9X 9446   5.387   3.456   7.466  1.0032  0.6562 -0.7202
   95SAPS   H9Y 9447   5.499   3.321   7.463 -0.6571 -2.2572 -0.6018
   95SAPS  C310 9448   5.311   3.287   7.586 -0.0076 -0.0769 -0.6541
   95SAPS  H10X 9449   5.313   3.176   7.580  1.8927 -0.0375 -1.0132
   95SAPS  H10Y 9450   5.201   3.300   7.581 -0.1013 -0.2394  0.7296
   95SAPS  C311 9451   5.363   3.334   7.732 -0.0449  0.4814 -0.1365
   95SAPS  H11X 9452   5.348   3.444   7.740  1.2756  0.7350 -1.0206
   95SAPS  H11Y 9453   5.459   3.282   7.749 -0.3545 -0.1713 -0.3805
   95SAPS  C312 9454   5.264   3.276   7.838  0.4641  0.3366 -0.4171
   95SAPS  H12X 9455   5.228   3.176   7.808 -0.8540  0.3310  1.1133
   95SAPS  H12Y 9456   5.177   3.344   7.829  0.5101  0.1567 -2.2188
   95SAPS  C313 9457   5.327   3.267   7.971 -0.0392 -0.8552 -0.1668
   95SAPS  H13X 9458   5.355   3.368   8.006  0.2926 -0.5689 -1.2651
   95SAPS  H13Y 9459   5.421   3.209   7.962  0.0670 -0.4785 -1.4255
   95SAPS  C314 9460   5.235   3.192   8.068 -0.3942 -0.0752 -0.1536
   95SAPS  H14X 9461   5.217   3.088   8.034  1.5864 -1.3450  2.4847
   95SAPS  H14Y 9462   5.141   3.251   8.078 -0.0534  0.6345 -1.0290
   95SAPS  C315 9463   5.311   3.172   8.205 -0.2704  0.1793 -0.1606
   95SAPS  H15X 9464   5.418   3.148   8.188  0.0686  0.8077  1.0544
   95SAPS  H15Y 9465   5.262   3.080   8.246  2.4912  0.6663  4.6294
   95SAPS  C316 9466   5.282   3.278   8.311  0.1578  0.5084  0.2867
   95SAPS  H16X 9467   5.172   3.293   8.310  0.5192  3.4722 -1.3686
   95SAPS  H16Y 9468   5.331   3.373   8.280 -2.2259  2.0525  1.0549
   95SAPS  C317 9469   5.342   3.250   8.451  1.1626 -0.5380  0.2306
   95SAPS  H17X 9470   5.328   3.340   8.515  1.5234 -0.5692  0.3514
   95SAPS  H17Y 9471   5.449   3.223   8.453  1.7629  1.8027  2.4943
   95SAPS  C318 9472   5.264   3.137   8.523 -0.3004 -0.2385  0.0180
   95SAPS  H18X 9473   5.155   3.159   8.535  0.3266  1.8917  2.4343
   95SAPS  H18Y 9474   5.297   3.130   8.629 -1.3086  0.9832  0.4239
   95SAPS  H18Z 9475   5.277   3.039   8.474 -0.5473 -0.8855  1.2224
   96SAPS     N 9476   6.537   5.316   6.428 -0.9836  0.7137 -0.1765
   96SAPS   HN1 9477   6.623   5.262   6.446 -1.2152  1.4860  3.6711
   96SAPS   HN2 9478   6.560   5.405   6.477 -2.3355  1.6286 -1.1633
   96SAPS   HN3 9479   6.462   5.272   6.485 -1.1982  2.6441  1.1082
   96SAPS   C12 9480   6.495   5.326   6.279 -0.0034  0.4940 -1.0410
   96SAPS  H12A 9481   6.406   5.387   6.279 -0.3807 -0.0493 -1.4237
   96SAPS   C13 9482   6.591   5.418   6.196  0.6443  0.1273 -0.3208
   96SAPS  O13A 9483   6.686   5.481   6.255 -0.4125 -0.0250  0.3607
   96SAPS  O13B 9484   6.561   5.440   6.076 -0.0098 -0.1084 -0.4759
   96SAPS   C11 9485   6.477   5.191   6.209  0.3402 -0.4545  0.2273
   96SAPS  H11A 9486   6.575   5.152   6.173  0.8726 -0.1230  1.2946
   96SAPS  H11B 9487   6.413   5.221   6.123 -1.3096 -0.2446  1.5065
   96SAPS     P 9488   6.373   4.952   6.247  0.9445  0.1114  0.1395
   96SAPS   O13 9489   6.253   4.906   6.317 -0.1752 -0.0144  0.1499
   96SAPS   O14 9490   6.352   4.957   6.097  0.1878 -0.1339 -0.5645
   96SAPS   O12 9491   6.411   5.098   6.294  0.1663 -0.6891 -0.3459
   96SAPS   O11 9492   6.490   4.854   6.290 -0.1298 -0.4081  0.1586
   96SAPS    C1 9493   6.583   4.892   6.396  0.0535  0.6446  0.0721
   96SAPS    HA 9494   6.686   4.859   6.368 -0.3376 -0.2547 -0.3395
   96SAPS    HB 9495   6.576   5.001   6.413  1.5268  0.8610 -0.6232
   96SAPS    C2 9496   6.555   4.822   6.534  0.1831 -0.4968  0.1668
   96SAPS    HS 9497   6.589   4.716   6.542  1.8882 -0.0580 -0.9630
   96SAPS   O21 9498   6.413   4.832   6.561 -0.0387  0.2100 -0.1155
   96SAPS   C21 9499   6.338   4.723   6.577 -0.0638  0.3344 -0.2112
   96SAPS   O22 9500   6.375   4.605   6.569  0.3690 -0.0955  0.4381
   96SAPS   C22 9501   6.197   4.770   6.609  0.0808 -0.7529 -0.5070
   96SAPS   H2R 9502   6.194   4.881   6.609  1.3834 -0.7134 -0.7833
   96SAPS   H2S 9503   6.132   4.726   6.530  1.3229  0.3779 -2.1890
   96SAPS    C3 9504   6.640   4.885   6.649  0.4115  0.7894  0.5007
   96SAPS    HX 9505   6.643   4.996   6.646 -0.9920  0.8268  0.2180
   96SAPS    HY 9506   6.741   4.844   6.628 -1.0303 -2.6638 -0.1526
   96SAPS   O31 9507   6.598   4.836   6.772 -0.5616 -0.1571  0.0877
   96SAPS   C31 9508   6.499   4.905   6.833 -0.5181  0.1278 -0.6647
   96SAPS   O32 9509   6.453   5.013   6.801  0.2097  0.4385  0.5432
   96SAPS   C32 9510   6.451   4.823   6.957 -0.0818 -0.3618 -0.3279
   96SAPS   H2X 9511   6.546   4.771   6.981 -0.8168 -1.4976  0.1470
   96SAPS   H2Y 9512   6.379   4.746   6.922  1.0766  0.3086 -4.3942
   96SAPS   C23 9513   6.139   4.698   6.734 -0.1055  0.7282 -0.4617
   96SAPS   H3R 9514   6.188   4.725   6.829 -1.3469 -2.8135  1.2794
   96SAPS   H3S 9515   6.161   4.589   6.733  0.3463  0.7695  1.8167
   96SAPS   C24 9516   5.986   4.716   6.753  0.0176  0.2140 -0.2152
   96SAPS   H4R 9517   5.966   4.680   6.856  2.2143  1.5500  0.7079
   96SAPS   H4S 9518   5.925   4.659   6.679 -1.8906 -0.6533  1.9743
   96SAPS   C25 9519   5.958   4.860   6.767 -1.1613  0.3691 -0.7049
   96SAPS   H5R 9520   5.982   4.917   6.676  0.5362  0.9936  0.0990
   96SAPS   C26 9521   5.938   4.932   6.880 -0.3661  0.2087  0.0444
   96SAPS   H6R 9522   5.906   5.036   6.864 -1.2267 -0.4063 -2.5403
   96SAPS   C27 9523   5.924   4.883   7.019 -0.0199 -0.2522  0.6014
   96SAPS   H7R 9524   6.003   4.946   7.066 -0.7369  2.1394 -1.3203
   96SAPS   H7S 9525   5.944   4.775   7.035  0.6950 -0.0338  1.2562
   96SAPS   C28 9526   5.787   4.918   7.082  0.0121 -0.0121  0.4076
   96SAPS   H8R 9527   5.707   4.930   7.007  0.5215 -2.3606 -0.5626
   96SAPS   C29 9528   5.761   4.946   7.212  0.2215  0.1566 -0.3462
   96SAPS   H9R 9529   5.664   4.982   7.246  0.0096 -0.8466  0.1342
   96SAPS  C210 9530   5.870   4.938   7.324 -0.3745 -0.2698 -0.7303
   96SAPS  H10R 9531   5.847   5.018   7.398 -1.2011 -0.7270 -0.4771
   96SAPS  H10S 9532   5.966   4.975   7.282 -0.7039  3.2159  1.3990
   96SAPS  C211 9533   5.901   4.807   7.400 -0.8146 -0.1220  0.5085
   96SAPS  H11R 9534   5.964   4.728   7.354  0.2941 -0.9988  3.4251
   96SAPS  C212 9535   5.876   4.783   7.528  0.6097  0.5635 -0.3604
   96SAPS  H12R 9536   5.898   4.684   7.571  2.6245  1.2014  0.1418
   96SAPS  C213 9537   5.811   4.889   7.621  0.4043  0.7860  0.1837
   96SAPS  H13R 9538   5.742   4.854   7.701 -0.0805  0.2537 -0.4710
   96SAPS  H13S 9539   5.742   4.947   7.556 -0.2091  1.5386  1.4846
   96SAPS  C214 9540   5.914   4.982   7.685 -0.3753  0.0242  0.2144
   96SAPS  H14R 9541   5.930   5.076   7.629 -0.7671  0.0776  0.1948
   96SAPS  C215 9542   5.960   4.983   7.808 -0.0723  0.5229 -0.2612
   96SAPS  H15R 9543   6.036   5.056   7.841  0.1293 -0.3390  1.2540
   96SAPS  C216 9544   5.916   4.888   7.919  0.3310 -0.4846 -0.3147
   96SAPS  H16R 9545   5.814   4.848   7.902  0.0490  0.7168 -1.5581
   96SAPS  H16S 9546   5.923   4.951   8.011 -0.1872  0.9179 -1.2068
   96SAPS  C217 9547   5.993   4.756   7.930  0.8870  0.0922  0.1242
   96SAPS  H17R 9548   6.088   4.790   7.975  0.1448 -0.3957  2.1379
   96SAPS  H17S 9549   5.987   4.715   7.826  0.9963 -0.5783  0.3788
   96SAPS  C218 9550   5.932   4.646   8.023  0.3496  0.6390  0.7610
   96SAPS  H18R 9551   5.989   4.551   8.017 -0.5883  0.1729 -1.5624
   96SAPS  H18S 9552   5.836   4.612   7.977  1.1337 -1.7286  0.8002
   96SAPS  C219 9553   5.912   4.680   8.170 -0.1605 -0.5374  0.0011
   96SAPS  H19R 9554   5.839   4.609   8.214  1.6490 -1.5193  1.5194
   96SAPS  H19S 9555   5.870   4.783   8.173  0.8991 -0.0561 -1.2904
   96SAPS  C220 9556   6.040   4.677   8.254 -0.0474  0.1031 -0.5195
   96SAPS  H20R 9557   6.023   4.724   8.353 -2.9434  0.1573 -1.0149
   96SAPS  H20S 9558   6.113   4.748   8.208  2.0470 -0.5072  1.7439
   96SAPS  H20T 9559   6.080   4.573   8.255 -0.5457 -0.0815  1.0157
   96SAPS   C33 9560   6.388   4.916   7.063 -0.0233 -0.5723  0.7101
   96SAPS   H3X 9561   6.284   4.949   7.045 -0.1114 -0.3541  1.5794
   96SAPS   H3Y 9562   6.451   5.008   7.070 -0.7187  0.0579 -1.1711
   96SAPS   C34 9563   6.393   4.846   7.205 -0.1310  0.6488  0.4786
   96SAPS   H4X 9564   6.503   4.841   7.217 -0.2502 -0.5809  1.1141
   96SAPS   H4Y 9565   6.352   4.742   7.204  2.9466 -0.6226 -2.1573
   96SAPS   C35 9566   6.334   4.928   7.324 -0.0516  0.2939  0.4133
   96SAPS   H5X 9567   6.224   4.928   7.312 -0.1160  0.4193  1.0157
   96SAPS   H5Y 9568   6.377   5.030   7.314 -1.8830  1.1722  1.2158
   96SAPS   C36 9569   6.372   4.864   7.458 -0.6739 -0.4266  0.4614
   96SAPS   H6X 9570   6.475   4.902   7.476 -1.0570 -0.5902  3.3310
   96SAPS   H6Y 9571   6.381   4.754   7.443  0.7174 -0.6703  2.7394
   96SAPS   C37 9572   6.282   4.896   7.575  0.8274 -0.1481  0.1029
   96SAPS   H7X 9573   6.174   4.899   7.549  1.3874  0.4876 -2.3108
   96SAPS   H7Y 9574   6.308   5.002   7.595  2.8408 -0.2955 -1.6023
   96SAPS   C38 9575   6.294   4.812   7.696  0.0320  0.3338 -0.2977
   96SAPS   H8X 9576   6.268   4.707   7.673  1.4829  0.0827 -0.8476
   96SAPS   H8Y 9577   6.227   4.845   7.778  1.1699 -0.8464  1.1484
   96SAPS   C39 9578   6.438   4.813   7.760 -0.4539 -0.7758 -0.2969
   96SAPS   H9X 9579   6.510   4.770   7.688  0.0463  1.8569 -1.3875
   96SAPS   H9Y 9580   6.430   4.750   7.852  2.1575 -0.1130  0.4120
   96SAPS  C310 9581   6.489   4.947   7.808  0.2927 -0.4677  0.2415
   96SAPS  H10X 9582   6.421   5.002   7.876 -0.8234 -0.7553 -0.6090
   96SAPS  H10Y 9583   6.504   5.020   7.725  0.2733  0.5218  1.0970
   96SAPS  C311 9584   6.631   4.932   7.874 -0.0577  0.4851 -0.0441
   96SAPS  H11X 9585   6.697   4.878   7.802 -1.4704 -0.3337 -0.7432
   96SAPS  H11Y 9586   6.628   4.872   7.968 -0.0583 -1.2405 -1.1050
   96SAPS  C312 9587   6.685   5.074   7.907  0.4071 -0.0526 -0.3083
   96SAPS  H12X 9588   6.649   5.139   7.825  0.4360  0.1007 -0.2012
   96SAPS  H12Y 9589   6.796   5.073   7.907  0.4376  1.9426 -1.9242
   96SAPS  C313 9590   6.633   5.138   8.032  0.4757  0.3696  0.1558
   96SAPS  H13X 9591   6.522   5.128   8.034  0.4790  0.2613 -0.2102
   96SAPS  H13Y 9592   6.657   5.247   8.039  1.2840  0.1302  1.2704
   96SAPS  C314 9593   6.695   5.083   8.160  0.8244  0.2779  0.0150
   96SAPS  H14X 9594   6.791   5.134   8.178 -0.1694  1.8987  0.8587
   96SAPS  H14Y 9595   6.718   4.977   8.136 -0.9402  0.1615 -1.3261
   96SAPS  C315 9596   6.608   5.086   8.287  0.5198 -0.6300  0.2194
   96SAPS  H15X 9597   6.526   5.012   8.270 -1.1319  1.0265  0.7384
   96SAPS  H15Y 9598   6.555   5.183   8.300 -0.7864 -1.2291 -0.5087
   96SAPS  C316 9599   6.691   5.046   8.409  0.3737  0.4679  0.2137
   96SAPS  H16X 9600   6.733   4.945   8.390 -1.0358  0.0724 -0.9109
   96SAPS  H16Y 9601   6.628   5.041   8.500  0.5915  0.1189  0.3439
   96SAPS  C317 9602   6.808   5.141   8.439 -0.3598  0.5902  0.4486
   96SAPS  H17X 9603   6.775   5.246   8.455 -2.1706  0.0100  0.6139
   96SAPS  H17Y 9604   6.875   5.120   8.353 -3.2324  1.1539 -2.0335
   96SAPS  C318 9605   6.879   5.112   8.580  0.0731  0.7572  0.2475
   96SAPS  H18X 9606   6.967   5.177   8.597 -1.6473  4.4325 -3.8810
   96SAPS  H18Y 9607   6.910   5.006   8.580  3.4661  1.6808  1.6046
   96SAPS  H18Z 9608   6.805   5.128   8.661  0.9401 -3.3238  1.9617
   97SAPS     N 9609   0.870   3.576   6.400 -0.4066 -0.6817  0.9053
   97SAPS   HN1 9610   0.932   3.512   6.454  0.4945 -1.6925 -1.2776
   97SAPS   HN2 9611   0.930   3.621   6.328 -0.7056 -1.1802  0.3451
   97SAPS   HN3 9612   0.833   3.653   6.460  1.7037  0.5288  0.7151
   97SAPS   C12 9613   0.758   3.501   6.337  0.0338 -0.1958  0.1101
   97SAPS  H12A 9614   0.684   3.472   6.409  0.5859  0.6994  1.0547
   97SAPS   C13 9615   0.678   3.591   6.238  0.1049 -0.4676  0.2645
   97SAPS  O13A 9616   0.722   3.714   6.220 -0.0542  0.8699 -0.4345
   97SAPS  O13B 9617   0.586   3.549   6.165  0.6198 -0.2132 -0.0409
   97SAPS   C11 9618   0.813   3.375   6.263  0.4246  0.0750 -0.2773
   97SAPS  H11A 9619   0.886   3.414   6.189  0.5234  1.6254  0.6154
   97SAPS  H11B 9620   0.732   3.329   6.202  0.8755 -0.9273 -0.1278
   97SAPS     P 9621   0.837   3.118   6.340  0.0096  0.1567 -0.2816
   97SAPS   O13 9622   0.796   3.091   6.203 -0.1596  0.4753 -0.8368
   97SAPS   O14 9623   0.954   3.046   6.401 -0.7393  0.1863  0.1585
   97SAPS   O12 9624   0.871   3.279   6.358  0.2982 -0.1155 -0.2241
   97SAPS   O11 9625   0.710   3.102   6.430  0.4386  0.2905  0.4019
   97SAPS    C1 9626   0.720   3.142   6.570 -0.2155 -0.2216 -0.2756
   97SAPS    HA 9627   0.821   3.150   6.615  1.4882 -0.1135 -3.9263
   97SAPS    HB 9628   0.654   3.229   6.591 -0.8160 -0.0236 -2.8175
   97SAPS    C2 9629   0.648   3.027   6.642  0.0849  0.3106 -0.2853
   97SAPS    HS 9630   0.540   3.050   6.651  0.2729  0.9268  0.4324
   97SAPS   O21 9631   0.700   3.006   6.774 -0.1299  0.6380 -0.5271
   97SAPS   C21 9632   0.658   3.080   6.865  1.0294  0.5999  0.1445
   97SAPS   O22 9633   0.564   3.154   6.874 -0.2442 -0.1987  0.7245
   97SAPS   C22 9634   0.754   3.057   6.991 -0.4645 -0.5549  0.7706
   97SAPS   H2R 9635   0.846   3.026   6.939 -1.9440 -1.1559 -1.5476
   97SAPS   H2S 9636   0.765   3.152   7.049 -0.1658 -0.3708  0.4139
   97SAPS    C3 9637   0.640   2.891   6.565 -0.0014 -0.8530 -0.0155
   97SAPS    HX 9638   0.742   2.862   6.534  0.9807  0.9762  1.3564
   97SAPS    HY 9639   0.579   2.911   6.475 -1.0051  0.9691  1.0189
   97SAPS   O31 9640   0.592   2.783   6.648  0.0533 -0.1325 -0.0137
   97SAPS   C31 9641   0.457   2.774   6.677 -0.5706 -1.1965  0.6461
   97SAPS   O32 9642   0.375   2.860   6.668 -0.2693 -0.3250 -0.2003
   97SAPS   C32 9643   0.429   2.636   6.741  0.0404  0.2483  0.2491
   97SAPS   H2X 9644   0.504   2.642   6.823  1.9979  2.8223 -1.6542
   97SAPS   H2Y 9645   0.456   2.552   6.673 -0.2070  0.3343  0.0471
   97SAPS   C23 9646   0.706   2.947   7.099 -0.1536 -0.4558 -0.7561
   97SAPS   H3R 9647   0.711   2.844   7.056 -1.4600 -1.3940  1.2959
   97SAPS   H3S 9648   0.599   2.971   7.117 -0.4290 -2.1197 -0.0342
   97SAPS   C24 9649   0.791   2.953   7.225  0.1759  0.4363  0.1416
   97SAPS   H4R 9650   0.785   3.054   7.271 -0.0326  0.5117 -0.0497
   97SAPS   H4S 9651   0.899   2.937   7.201 -0.7776 -0.8108 -3.6712
   97SAPS   C25 9652   0.743   2.845   7.326 -0.5096  0.3838  0.0131
   97SAPS   H5R 9653   0.708   2.747   7.289 -3.4166  1.1362  0.6850
   97SAPS   C26 9654   0.735   2.867   7.458  0.5080 -0.4228  0.1075
   97SAPS   H6R 9655   0.705   2.780   7.518  0.7157  0.3245  1.3199
   97SAPS   C27 9656   0.758   3.000   7.534  0.2347  0.2562  0.0445
   97SAPS   H7R 9657   0.777   3.086   7.465 -0.1642  0.7209  0.5120
   97SAPS   H7S 9658   0.858   2.991   7.582  1.2693 -2.0722 -2.4315
   97SAPS   C28 9659   0.671   3.078   7.624 -0.3507 -0.5466 -0.5322
   97SAPS   H8R 9660   0.570   3.100   7.589  0.5849  2.2149 -1.6672
   97SAPS   C29 9661   0.710   3.132   7.745  0.1162  0.2995 -0.7980
   97SAPS   H9R 9662   0.643   3.200   7.800  0.3420  0.7950 -1.1291
   97SAPS  C210 9663   0.845   3.103   7.806 -0.1209 -0.3116  0.0069
   97SAPS  H10R 9664   0.922   3.153   7.743 -1.4929  0.1153 -1.3866
   97SAPS  H10S 9665   0.867   2.994   7.796 -1.2870 -0.6204  0.7892
   97SAPS  C211 9666   0.875   3.147   7.946  0.5196  0.1547  0.3067
   97SAPS  H11R 9667   0.851   3.249   7.980  1.1836 -0.2426  2.0004
   97SAPS  C212 9668   0.943   3.080   8.041 -0.3671  0.1990  0.5680
   97SAPS  H12R 9669   0.950   3.114   8.145 -0.8843  0.9897  0.3486
   97SAPS  C213 9670   1.016   2.947   8.005  0.4236 -0.2674 -0.1826
   97SAPS  H13R 9671   1.061   2.950   7.903  2.7418 -2.1636  0.7283
   97SAPS  H13S 9672   0.948   2.861   8.019 -0.0178  0.5606  3.1937
   97SAPS  C214 9673   1.140   2.919   8.085 -0.6534 -0.6354 -0.3193
   97SAPS  H14R 9674   1.224   2.979   8.047 -1.8018  0.5678 -1.0181
   97SAPS  C215 9675   1.167   2.826   8.178  0.6283  0.0880 -0.4152
   97SAPS  H15R 9676   1.267   2.830   8.225  0.7845 -3.0872 -0.4079
   97SAPS  C216 9677   1.075   2.718   8.234  0.0411  0.4505  0.3492
   97SAPS  H16R 9678   1.114   2.614   8.232 -1.1828  0.0093 -1.8471
   97SAPS  H16S 9679   0.979   2.709   8.179 -0.5940  1.0070  1.3454
   97SAPS  C217 9680   1.022   2.760   8.374 -0.2832  0.3071  0.2067
   97SAPS  H17R 9681   1.098   2.784   8.451 -2.4968  1.0052  2.2465
   97SAPS  H17S 9682   0.965   2.675   8.417 -0.7314  0.2069 -0.5600
   97SAPS  C218 9683   0.927   2.882   8.365  0.6481 -0.4576  0.7809
   97SAPS  H18R 9684   0.980   2.969   8.321  0.0684 -0.6737 -0.3729
   97SAPS  H18S 9685   0.902   2.911   8.470  1.9706  0.8310  0.7519
   97SAPS  C219 9686   0.792   2.861   8.288 -0.6397 -0.6948 -0.1512
   97SAPS  H19R 9687   0.800   2.841   8.179 -2.5095 -1.3462 -0.1862
   97SAPS  H19S 9688   0.733   2.955   8.286  0.9948  0.3304 -1.4847
   97SAPS  C220 9689   0.698   2.747   8.344 -0.8279  0.4315  0.2247
   97SAPS  H20R 9690   0.684   2.761   8.453 -0.8912  0.1147  0.2577
   97SAPS  H20S 9691   0.744   2.647   8.324 -1.4157  0.3355 -0.6991
   97SAPS  H20T 9692   0.594   2.751   8.305 -0.7682 -0.8307 -0.1073
   97SAPS   C33 9693   0.283   2.606   6.783 -0.2295 -0.3916  0.1297
   97SAPS   H3X 9694   0.269   2.496   6.777 -1.4346 -0.1759 -1.2830
   97SAPS   H3Y 9695   0.219   2.649   6.703  0.4996  1.8174  0.6909
   97SAPS   C34 9696   0.235   2.670   6.913  0.5651 -0.2102  0.1943
   97SAPS   H4X 9697   0.124   2.664   6.917  0.5731 -1.0852 -0.7250
   97SAPS   H4Y 9698   0.263   2.777   6.920  1.1216 -0.3510  0.0802
   97SAPS   C35 9699   0.291   2.595   7.032 -0.5348 -0.6157  0.0207
   97SAPS   H5X 9700   0.395   2.570   7.003  0.5896  1.3871  2.1684
   97SAPS   H5Y 9701   0.234   2.500   7.045  0.7889 -1.4351 -0.1338
   97SAPS   C36 9702   0.289   2.671   7.168 -0.1517 -0.3481 -0.5893
   97SAPS   H6X 9703   0.182   2.670   7.198  0.2975  1.0053  1.0953
   97SAPS   H6Y 9704   0.330   2.773   7.151 -0.9181 -0.2770 -2.1746
   97SAPS   C37 9705   0.381   2.602   7.268 -0.1973 -0.2041  0.1501
   97SAPS   H7X 9706   0.488   2.608   7.237 -0.2264 -0.3795  0.0155
   97SAPS   H7Y 9707   0.342   2.499   7.278 -1.4505  0.1688 -0.7458
   97SAPS   C38 9708   0.366   2.684   7.398 -0.1654  0.4638  0.2839
   97SAPS   H8X 9709   0.264   2.726   7.401 -0.2172  0.4411 -0.9874
   97SAPS   H8Y 9710   0.424   2.778   7.390 -0.8568  1.0696  2.0631
   97SAPS   C39 9711   0.399   2.611   7.527  0.3400  0.2059 -0.6210
   97SAPS   H9X 9712   0.500   2.569   7.507 -0.5615 -1.6082 -1.5022
   97SAPS   H9Y 9713   0.324   2.531   7.545  1.2181 -0.1605  1.6915
   97SAPS  C310 9714   0.411   2.696   7.660  0.1573  0.1373  0.4360
   97SAPS  H10X 9715   0.305   2.720   7.684  0.4858  1.4548  0.6122
   97SAPS  H10Y 9716   0.464   2.790   7.637 -0.0763 -0.2482 -1.7478
   97SAPS  C311 9717   0.483   2.626   7.772 -0.0230 -0.2804  0.7259
   97SAPS  H11X 9718   0.565   2.569   7.722 -0.8371 -1.4395  0.7021
   97SAPS  H11Y 9719   0.413   2.555   7.821 -3.0303  2.8664  1.1088
   97SAPS  C312 9720   0.557   2.725   7.861  0.1268  0.1350  0.0084
   97SAPS  H12X 9721   0.638   2.765   7.797 -1.1823  2.8442 -0.0073
   97SAPS  H12Y 9722   0.603   2.673   7.947 -0.5818 -0.8320 -0.1827
   97SAPS  C313 9723   0.473   2.841   7.912  0.9216  0.2183 -0.3397
   97SAPS  H13X 9724   0.366   2.810   7.914  1.5463 -2.0430 -0.4797
   97SAPS  H13Y 9725   0.475   2.931   7.847 -0.3691  0.9030  0.5357
   97SAPS  C314 9726   0.510   2.891   8.057 -0.0331 -0.0185 -0.3738
   97SAPS  H14X 9727   0.616   2.923   8.073  0.3202 -0.2812 -2.0863
   97SAPS  H14Y 9728   0.495   2.806   8.127 -1.4081  0.4506 -0.0827
   97SAPS  C315 9729   0.417   2.993   8.111 -0.2981 -0.8556  0.1470
   97SAPS  H15X 9730   0.320   2.939   8.108 -0.5934 -0.2534 -2.2630
   97SAPS  H15Y 9731   0.404   3.077   8.040 -0.9028 -0.2867  0.9264
   97SAPS  C316 9732   0.444   3.041   8.255 -0.6325 -0.3422  0.2032
   97SAPS  H16X 9733   0.530   3.111   8.260  1.1067 -2.3908 -0.2426
   97SAPS  H16Y 9734   0.459   2.955   8.325 -2.9275 -0.5805  0.4192
   97SAPS  C317 9735   0.314   3.109   8.313 -0.1625 -0.2116  0.6039
   97SAPS  H17X 9736   0.226   3.042   8.301 -1.5567  1.7223 -0.2358
   97SAPS  H17Y 9737   0.296   3.192   8.241  0.2733 -0.0227  0.7086
   97SAPS  C318 9738   0.336   3.152   8.460  0.2859  0.2125 -0.6995
   97SAPS  H18X 9739   0.437   3.198   8.474 -0.2441  2.2772 -3.2953
   97SAPS  H18Y 9740   0.341   3.057   8.516  0.1102 -0.0250 -1.0884
   97SAPS  H18Z 9741   0.256   3.221   8.496  0.4401  0.0307  0.0121
   98SAPS     N 9742   5.143   3.121   5.802  0.1010 -0.3659  0.2343
   98SAPS   HN1 9743   5.064   3.059   5.773 -0.1686  0.1502 -0.1373
   98SAPS   HN2 9744   5.219   3.110   5.731  1.4346  1.1664  1.3913
   98SAPS   HN3 9745   5.175   3.096   5.898  1.8553  1.5580  0.1942
   98SAPS   C12 9746   5.072   3.245   5.808  0.1439  0.1432  0.6747
   98SAPS  H12A 9747   5.098   3.309   5.726 -0.9420 -1.7997 -1.2569
   98SAPS   C13 9748   4.916   3.220   5.793  0.5616 -0.0437 -0.8866
   98SAPS  O13A 9749   4.873   3.101   5.784  0.4974 -0.1244  0.4382
   98SAPS  O13B 9750   4.838   3.320   5.815  0.2286 -0.2015 -0.2213
   98SAPS   C11 9751   5.093   3.317   5.946  0.1168  0.1112  0.5977
   98SAPS  H11A 9752   5.044   3.256   6.025 -1.8577  0.1029 -0.6057
   98SAPS  H11B 9753   5.043   3.416   5.945 -0.0504  0.0329  1.4686
   98SAPS     P 9754   5.275   3.402   6.120  0.4409  0.1267 -0.5504
   98SAPS   O13 9755   5.420   3.420   6.125 -0.1937  0.2797  0.2349
   98SAPS   O14 9756   5.186   3.522   6.138 -0.0877  0.3132 -0.0224
   98SAPS   O12 9757   5.238   3.341   5.979  0.5006  0.2437 -0.1552
   98SAPS   O11 9758   5.220   3.295   6.225  0.4014 -0.7798 -0.4757
   98SAPS    C1 9759   5.248   3.161   6.214  0.0976  0.1176 -0.0265
   98SAPS    HA 9760   5.150   3.115   6.187  0.4599 -0.4733 -0.3494
   98SAPS    HB 9761   5.319   3.141   6.131  0.4531  4.5239 -0.8996
   98SAPS    C2 9762   5.297   3.108   6.350 -0.0652 -0.2976 -0.0740
   98SAPS    HS 9763   5.332   3.003   6.348  0.6973 -0.0423 -0.3005
   98SAPS   O21 9764   5.199   3.126   6.455 -0.0102  1.0251 -0.1100
   98SAPS   C21 9765   5.111   3.030   6.453  0.3152 -0.2115 -0.1400
   98SAPS   O22 9766   5.093   2.946   6.364  0.4376  0.6383  0.3902
   98SAPS   C22 9767   5.025   3.043   6.587 -0.1303  0.0033  0.0622
   98SAPS   H2R 9768   5.082   3.000   6.672 -0.6457 -2.4780 -0.7980
   98SAPS   H2S 9769   5.023   3.152   6.611  1.0911  0.1462 -0.4562
   98SAPS    C3 9770   5.430   3.178   6.397 -0.2158 -0.1705 -0.0461
   98SAPS    HX 9771   5.412   3.287   6.406 -0.1926 -0.2495  1.0758
   98SAPS    HY 9772   5.501   3.151   6.316 -2.9043 -3.2301 -1.5342
   98SAPS   O31 9773   5.468   3.123   6.520 -0.9159 -0.2308 -0.4693
   98SAPS   C31 9774   5.592   3.148   6.570  0.1066  0.6204  0.1212
   98SAPS   O32 9775   5.680   3.205   6.507 -0.0001 -0.3265 -0.0917
   98SAPS   C32 9776   5.603   3.110   6.723 -0.0393  0.2007  1.0969
   98SAPS   H2X 9777   5.589   3.001   6.735 -0.3145  0.2580  1.2933
   98SAPS   H2Y 9778   5.528   3.169   6.779 -0.2169  1.1773 -0.1309
   98SAPS   C23 9779   4.887   2.982   6.584  0.3443  0.6189  0.3859
   98SAPS   H3R 9780   4.910   2.878   6.554 -0.7761 -0.3233  2.6676
   98SAPS   H3S 9781   4.820   3.022   6.504 -1.7194 -2.8612  0.2834
   98SAPS   C24 9782   4.826   2.980   6.721 -0.4309 -0.7133 -0.3010
   98SAPS   H4R 9783   4.726   2.931   6.717 -0.1735 -1.3152  0.5763
   98SAPS   H4S 9784   4.820   3.087   6.749 -1.7761 -0.5696 -1.0797
   98SAPS   C25 9785   4.901   2.887   6.816 -0.7392 -0.9092 -0.8108
   98SAPS   H5R 9786   4.886   2.779   6.802 -0.1218 -1.0737 -0.2607
   98SAPS   C26 9787   4.966   2.924   6.930  0.8202  0.8988 -0.1714
   98SAPS   H6R 9788   5.022   2.855   6.995  0.1811  0.0564 -0.5109
   98SAPS   C27 9789   4.973   3.067   6.977  0.1361 -0.0899 -0.1191
   98SAPS   H7R 9790   4.965   3.153   6.907 -1.3062  0.1939  0.3803
   98SAPS   H7S 9791   5.074   3.065   7.023 -0.4237 -6.8225  1.3451
   98SAPS   C28 9792   4.881   3.095   7.093 -0.3316  0.2458  0.0714
   98SAPS   H8R 9793   4.783   3.132   7.058 -1.2929 -2.0047  0.2812
   98SAPS   C29 9794   4.897   3.076   7.228  0.5899  0.5069 -0.4163
   98SAPS   H9R 9795   4.809   3.093   7.291 -0.6699  0.2571 -2.0671
   98SAPS  C210 9796   5.019   3.018   7.296  0.3983 -0.4119 -0.8188
   98SAPS  H10R 9797   5.058   3.096   7.365 -1.5873 -0.2204  0.0971
   98SAPS  H10S 9798   5.099   2.990   7.224  1.1543  0.0822 -0.1789
   98SAPS  C211 9799   4.990   2.915   7.400 -0.4356 -0.4870 -0.1827
   98SAPS  H11R 9800   4.979   2.814   7.357 -1.6864 -0.4667  0.0754
   98SAPS  C212 9801   4.967   2.933   7.532  0.2242 -0.1272  0.2367
   98SAPS  H12R 9802   4.938   2.849   7.597  0.6432 -1.6429 -1.4928
   98SAPS  C213 9803   4.981   3.060   7.608  0.2846 -0.6658 -0.8375
   98SAPS  H13R 9804   4.976   3.148   7.541 -1.3607  0.2381  0.4246
   98SAPS  H13S 9805   5.070   3.050   7.674 -0.0673  0.1732 -0.2212
   98SAPS  C214 9806   4.867   3.090   7.707 -0.4912 -0.5479  0.4580
   98SAPS  H14R 9807   4.788   3.154   7.666  0.0543 -0.4942 -0.5140
   98SAPS  C215 9808   4.865   3.055   7.835 -0.4213 -0.1441 -0.4365
   98SAPS  H15R 9809   4.781   3.078   7.903 -0.0856 -1.8245  0.5781
   98SAPS  C216 9810   4.961   2.967   7.909 -0.3185 -0.1835  0.1353
   98SAPS  H16R 9811   5.057   3.021   7.924 -0.0859 -0.3079 -0.8966
   98SAPS  H16S 9812   4.997   2.877   7.855 -0.5423 -0.6918  0.8299
   98SAPS  C217 9813   4.896   2.930   8.045 -0.3639  0.1196  0.2249
   98SAPS  H17R 9814   4.953   2.843   8.083 -2.0845 -0.3126  1.8838
   98SAPS  H17S 9815   4.790   2.901   8.032 -0.0440 -1.5966  1.3623
   98SAPS  C218 9816   4.908   3.036   8.154 -0.3132 -0.5056 -0.4062
   98SAPS  H18R 9817   4.833   3.116   8.133  0.0764 -0.4676 -1.6668
   98SAPS  H18S 9818   5.009   3.082   8.155  0.4848 -2.1325 -2.9455
   98SAPS  C219 9819   4.872   2.981   8.292 -0.3538 -0.2757 -0.3215
   98SAPS  H19R 9820   4.946   2.902   8.318 -1.4933 -1.3142 -0.1336
   98SAPS  H19S 9821   4.771   2.940   8.270 -1.1997  1.8219 -0.4689
   98SAPS  C220 9822   4.865   3.076   8.408 -0.1618  0.1437  0.2911
   98SAPS  H20R 9823   4.961   3.124   8.437  0.2878 -0.6094  0.0573
   98SAPS  H20S 9824   4.820   3.038   8.503 -0.7026  1.0339  0.3946
   98SAPS  H20T 9825   4.794   3.159   8.387 -0.9442  0.1214  2.7031
   98SAPS   C33 9826   5.735   3.150   6.785 -0.9583  0.1110  0.6034
   98SAPS   H3X 9827   5.732   3.256   6.820 -1.4530 -0.4354  2.2880
   98SAPS   H3Y 9828   5.823   3.147   6.718 -0.7009 -1.0426  0.9884
   98SAPS   C34 9829   5.774   3.061   6.913 -0.4748 -0.0483 -0.2615
   98SAPS   H4X 9830   5.883   3.072   6.926 -0.1162 -4.2642  0.7294
   98SAPS   H4Y 9831   5.762   2.955   6.883  0.7117  0.4510 -2.6157
   98SAPS   C35 9832   5.691   3.109   7.035  0.5688  0.8563  0.1653
   98SAPS   H5X 9833   5.580   3.108   7.024  0.7147  1.1511 -1.4269
   98SAPS   H5Y 9834   5.717   3.217   7.034 -2.0104  1.5212  0.5650
   98SAPS   C36 9835   5.728   3.042   7.174 -0.1073  0.7422 -0.1458
   98SAPS   H6X 9836   5.831   3.076   7.198 -0.3832  1.6596 -0.2639
   98SAPS   H6Y 9837   5.720   2.931   7.166 -0.5343  0.6262  1.5890
   98SAPS   C37 9838   5.647   3.089   7.291  0.4348  0.0077  0.7033
   98SAPS   H7X 9839   5.540   3.075   7.268  0.0847 -0.1872  2.3470
   98SAPS   H7Y 9840   5.648   3.196   7.321 -3.7357 -0.1408  1.6307
   98SAPS   C38 9841   5.677   3.016   7.422  0.0094 -0.0712 -0.0540
   98SAPS   H8X 9842   5.783   3.040   7.447  0.7717  0.3513 -3.3280
   98SAPS   H8Y 9843   5.675   2.905   7.413 -1.0648 -0.3629  3.1740
   98SAPS   C39 9844   5.591   3.041   7.537  0.2534 -0.1143  0.3569
   98SAPS   H9X 9845   5.483   3.040   7.509  0.6226  1.3647 -1.2136
   98SAPS   H9Y 9846   5.608   3.145   7.574  1.3082 -0.1826  0.0853
   98SAPS  C310 9847   5.614   2.932   7.642  0.9375 -0.4565 -0.2377
   98SAPS  H10X 9848   5.714   2.936   7.690  1.2968 -2.3810 -0.7777
   98SAPS  H10Y 9849   5.610   2.838   7.582 -0.6517  0.3838 -1.5126
   98SAPS  C311 9850   5.503   2.942   7.758  0.5475 -0.4045  1.2028
   98SAPS  H11X 9851   5.402   2.937   7.712  1.6418  0.3551 -1.3560
   98SAPS  H11Y 9852   5.506   3.038   7.813  2.2835  0.7274 -0.8316
   98SAPS  C312 9853   5.502   2.835   7.863 -0.1616 -0.3087 -0.6012
   98SAPS  H12X 9854   5.600   2.854   7.911 -0.4200 -2.5626  0.8609
   98SAPS  H12Y 9855   5.500   2.735   7.813  0.2278  0.4325 -2.1237
   98SAPS  C313 9856   5.383   2.849   7.963  0.4857  0.0344 -0.9217
   98SAPS  H13X 9857   5.297   2.868   7.894  0.3559  0.4670 -0.6374
   98SAPS  H13Y 9858   5.400   2.944   8.017  0.3253 -1.1205  1.2197
   98SAPS  C314 9859   5.376   2.737   8.062 -0.6955  0.4560 -0.6439
   98SAPS  H14X 9860   5.474   2.692   8.090 -1.0249  0.7845  1.1073
   98SAPS  H14Y 9861   5.329   2.645   8.021  1.9812 -1.6508  0.8543
   98SAPS  C315 9862   5.291   2.766   8.189  0.4709  0.0407 -0.5604
   98SAPS  H15X 9863   5.188   2.747   8.150 -0.9764  1.0641  2.6271
   98SAPS  H15Y 9864   5.313   2.866   8.231  0.6350 -0.9975  1.8763
   98SAPS  C316 9865   5.317   2.668   8.302 -0.0992 -0.0476  0.3199
   98SAPS  H16X 9866   5.425   2.658   8.324 -0.0608  0.6130  0.4446
   98SAPS  H16Y 9867   5.291   2.566   8.267 -3.5477  0.9338 -0.2374
   98SAPS  C317 9868   5.249   2.686   8.443 -0.4895 -0.0761 -0.0849
   98SAPS  H17X 9869   5.140   2.696   8.423 -0.6781  3.7210  2.2783
   98SAPS  H17Y 9870   5.273   2.780   8.497  0.4170 -0.7400  0.6833
   98SAPS  C318 9871   5.270   2.562   8.534  0.1186 -0.0317  0.4568
   98SAPS  H18X 9872   5.379   2.544   8.548  0.5363  0.9804 -1.4030
   98SAPS  H18Y 9873   5.216   2.481   8.480  2.2221 -0.8003 -0.5503
   98SAPS  H18Z 9874   5.220   2.577   8.632 -1.6573 -3.2722  0.1073
   99SAPS     N 9875   4.473   0.171   6.043 -0.0104 -0.0739  0.2587
   99SAPS   HN1 9876   4.475   0.237   6.123 -1.6661 -1.2539  1.3273
   99SAPS   HN2 9877   4.476   0.074   6.081  3.0532 -0.5057 -0.9657
   99SAPS   HN3 9878   4.550   0.174   5.974 -0.3513 -0.7374 -0.1590
   99SAPS   C12 9879   4.343   0.190   5.982  0.6582  0.7662  0.2231
   99SAPS  H12A 9880   4.345   0.290   5.940  1.0819  0.8859  0.5298
   99SAPS   C13 9881   4.291   0.081   5.883 -0.1906 -0.2379  0.3478
   99SAPS  O13A 9882   4.356  -0.026   5.868  0.3374  0.4439  0.5834
   99SAPS  O13B 9883   4.178   0.094   5.834 -0.2603  0.0344 -0.7752
   99SAPS   C11 9884   4.244   0.195   6.103  0.2375 -0.3886  0.7860
   99SAPS  H11A 9885   4.230   0.092   6.141 -0.6152 -0.3208  0.6691
   99SAPS  H11B 9886   4.144   0.221   6.061 -1.1702 -2.4837  2.7188
   99SAPS     P 9887   4.217   0.434   6.222 -0.3644  0.1013 -0.3065
   99SAPS   O13 9888   4.250   0.522   6.110 -0.1745 -0.5886  0.3099
   99SAPS   O14 9889   4.073   0.420   6.246  0.4386  0.8261 -0.5862
   99SAPS   O12 9890   4.276   0.285   6.212  0.1025 -0.1239 -0.4561
   99SAPS   O11 9891   4.284   0.502   6.349  0.3003  0.0074 -0.0137
   99SAPS    C1 9892   4.344   0.425   6.455 -0.5621  0.0858  0.0630
   99SAPS    HA 9893   4.279   0.337   6.478  3.3072 -2.6520  1.0554
   99SAPS    HB 9894   4.445   0.392   6.424 -0.0005  1.8000  0.0496
   99SAPS    C2 9895   4.333   0.495   6.591 -0.7908 -0.3067 -0.7176
   99SAPS    HS 9896   4.367   0.422   6.668  1.0734  0.3072 -0.9334
   99SAPS   O21 9897   4.201   0.546   6.628 -0.0771 -0.1174 -0.2683
   99SAPS   C21 9898   4.117   0.457   6.671 -0.2104 -0.8619 -0.3460
   99SAPS   O22 9899   4.138   0.338   6.691 -0.0876 -0.0548 -0.5673
   99SAPS   C22 9900   3.986   0.517   6.712 -0.7060  0.1873  0.1682
   99SAPS   H2R 9901   3.931   0.561   6.626 -0.4043 -0.1920 -0.2235
   99SAPS   H2S 9902   3.917   0.438   6.748  1.4395 -0.9854  1.8440
   99SAPS    C3 9903   4.437   0.616   6.600 -0.8301  0.4794 -0.6826
   99SAPS    HX 9904   4.405   0.680   6.685  2.0967 -0.8564  1.5184
   99SAPS    HY 9905   4.425   0.681   6.511  1.8954 -0.1500 -1.5713
   99SAPS   O31 9906   4.577   0.564   6.604 -0.3894 -0.5425 -0.5466
   99SAPS   C31 9907   4.640   0.584   6.715  0.3434  0.5732 -0.6202
   99SAPS   O32 9908   4.591   0.623   6.818 -0.4702 -0.8429  0.7294
   99SAPS   C32 9909   4.786   0.528   6.708 -0.3773  0.1898  0.0804
   99SAPS   H2X 9910   4.831   0.589   6.627  1.0841 -2.5728 -1.2559
   99SAPS   H2Y 9911   4.786   0.427   6.663  2.4135 -0.2936  1.0668
   99SAPS   C23 9912   4.013   0.634   6.805  0.7220 -0.4589 -1.0203
   99SAPS   H3R 9913   3.923   0.677   6.853  1.6849  0.4062  0.0413
   99SAPS   H3S 9914   4.056   0.716   6.744 -1.0185  1.1118 -0.1882
   99SAPS   C24 9915   4.087   0.591   6.942 -0.3295 -0.0422  0.8648
   99SAPS   H4R 9916   4.131   0.687   6.977 -0.3597  0.3555 -0.1839
   99SAPS   H4S 9917   4.174   0.523   6.929 -1.5510 -1.9405  2.2544
   99SAPS   C25 9918   3.999   0.518   7.039  0.5942  0.1676 -0.4657
   99SAPS   H5R 9919   3.918   0.453   7.006  0.7707 -0.5064  0.4202
   99SAPS   C26 9920   4.023   0.515   7.170  0.4350  0.4545  1.0015
   99SAPS   H6R 9921   3.961   0.447   7.231 -1.0681  0.6820 -0.2535
   99SAPS   C27 9922   4.138   0.586   7.250  0.5027  0.2593 -0.4784
   99SAPS   H7R 9923   4.093   0.661   7.318  2.3444  0.7538  0.2268
   99SAPS   H7S 9924   4.206   0.636   7.177 -0.1360  1.6613 -0.1220
   99SAPS   C28 9925   4.209   0.485   7.340  1.3679 -0.5177 -1.0308
   99SAPS   H8R 9926   4.234   0.385   7.300  0.9765 -1.7902  1.8122
   99SAPS   C29 9927   4.236   0.510   7.474 -0.2123  0.2785 -0.2759
   99SAPS   H9R 9928   4.276   0.420   7.524 -0.3925 -0.8287 -2.0783
   99SAPS  C210 9929   4.209   0.626   7.568 -0.3645  0.7186  0.9732
   99SAPS  H10R 9930   4.218   0.723   7.515  0.0739 -0.2075 -0.6700
   99SAPS  H10S 9931   4.290   0.633   7.644 -2.0920  1.0485  2.8205
   99SAPS  C211 9932   4.081   0.607   7.645  0.7070  0.9852  0.8002
   99SAPS  H11R 9933   3.992   0.624   7.583  1.5945  0.7860 -0.5530
   99SAPS  C212 9934   4.066   0.596   7.779  0.1446 -0.1669 -1.2451
   99SAPS  H12R 9935   3.963   0.579   7.814  1.4060 -0.3721  2.5550
   99SAPS  C213 9936   4.176   0.603   7.882  0.7230 -0.3668  1.1870
   99SAPS  H13R 9937   4.278   0.611   7.838 -0.0836 -0.5795 -0.7944
   99SAPS  H13S 9938   4.163   0.502   7.925 -1.8239 -0.4651  0.2686
   99SAPS  C214 9939   4.167   0.723   7.971  0.4121 -0.1190  0.1124
   99SAPS  H14R 9940   4.184   0.816   7.915 -1.9379 -0.8411 -1.8870
   99SAPS  C215 9941   4.130   0.730   8.100 -0.3162 -0.6142 -0.2251
   99SAPS  H15R 9942   4.137   0.824   8.155  1.5072 -0.3786 -0.8095
   99SAPS  C216 9943   4.105   0.606   8.181  0.7434  0.3581 -0.5752
   99SAPS  H16R 9944   4.178   0.603   8.265  0.4544 -0.6987 -0.3486
   99SAPS  H16S 9945   4.127   0.504   8.141  0.2726  0.8133 -2.0434
   99SAPS  C217 9946   3.958   0.598   8.237 -0.1617 -0.0299 -0.8027
   99SAPS  H17R 9947   3.962   0.523   8.318 -0.3633 -0.5311 -1.2532
   99SAPS  H17S 9948   3.873   0.572   8.170  0.2850 -1.9864 -0.6303
   99SAPS  C218 9949   3.916   0.729   8.310 -1.0429 -0.1028 -0.4434
   99SAPS  H18R 9950   3.919   0.818   8.244 -2.1525 -2.0335 -3.1766
   99SAPS  H18S 9951   3.993   0.749   8.388 -1.3222 -1.4083  0.1902
   99SAPS  C219 9952   3.775   0.709   8.368 -0.5399 -0.1454  0.0371
   99SAPS  H19R 9953   3.754   0.790   8.440 -2.1330  0.1613 -0.7296
   99SAPS  H19S 9954   3.747   0.614   8.418 -1.1528  1.0466  1.9878
   99SAPS  C220 9955   3.672   0.741   8.261  0.0432 -0.2305 -0.5961
   99SAPS  H20R 9956   3.569   0.735   8.302  1.0307 -2.0147  1.6824
   99SAPS  H20S 9957   3.670   0.675   8.171 -0.1155 -0.9697 -0.0548
   99SAPS  H20T 9958   3.684   0.841   8.214 -3.4140  0.7729  0.5087
   99SAPS   C33 9959   4.862   0.532   6.842 -0.2786  0.8712  0.3240
   99SAPS   H3X 9960   4.831   0.625   6.894  0.0356  0.6029  1.0004
   99SAPS   H3Y 9961   4.969   0.538   6.810 -0.1271  0.4579  0.7387
   99SAPS   C34 9962   4.852   0.404   6.936 -0.9412 -0.4786  0.1813
   99SAPS   H4X 9963   4.893   0.319   6.876 -0.7040  0.1893 -0.6094
   99SAPS   H4Y 9964   4.744   0.380   6.950 -2.1011  3.0945 -2.0464
   99SAPS   C35 9965   4.943   0.416   7.054  0.2880  0.1835  0.6653
   99SAPS   H5X 9966   5.046   0.414   7.011  0.2711 -0.1445  0.6388
   99SAPS   H5Y 9967   4.932   0.324   7.117  1.4654 -0.7201 -0.4256
   99SAPS   C36 9968   4.917   0.532   7.145  0.7747 -0.2810 -0.4933
   99SAPS   H6X 9969   4.814   0.518   7.185  1.7695 -1.9850  1.6203
   99SAPS   H6Y 9970   4.941   0.631   7.103  1.6387 -0.3419 -0.1518
   99SAPS   C37 9971   5.008   0.525   7.266 -0.0661 -0.0748  0.2485
   99SAPS   H7X 9972   5.115   0.530   7.235  0.1026 -0.3779  0.7806
   99SAPS   H7Y 9973   4.993   0.432   7.325  2.6229 -1.0990 -0.5830
   99SAPS   C38 9974   4.995   0.644   7.357  0.0620 -0.2967 -0.4793
   99SAPS   H8X 9975   4.900   0.638   7.415  0.0678 -0.8777 -0.5211
   99SAPS   H8Y 9976   5.004   0.738   7.299  4.1672  0.6042  1.4636
   99SAPS   C39 9977   5.108   0.643   7.464  0.1254  0.1063 -0.4500
   99SAPS   H9X 9978   5.204   0.657   7.411  1.2970 -0.9124  1.3273
   99SAPS   H9Y 9979   5.113   0.543   7.512 -1.5038 -0.1964 -0.8953
   99SAPS  C310 9980   5.076   0.734   7.577  0.3720 -0.0282  0.3429
   99SAPS  H10X 9981   4.971   0.709   7.602  0.6031 -1.3450  0.0804
   99SAPS  H10Y 9982   5.074   0.844   7.562  0.1959 -0.2041 -0.8994
   99SAPS  C311 9983   5.162   0.705   7.702  0.4295 -0.3451 -0.3060
   99SAPS  H11X 9984   5.270   0.716   7.677  0.4826 -0.1058  0.0216
   99SAPS  H11Y 9985   5.138   0.607   7.747 -0.5138  0.2960  0.6065
   99SAPS  C312 9986   5.136   0.810   7.808  0.7535  0.1659 -0.6592
   99SAPS  H12X 9987   5.149   0.917   7.781  2.9564  0.1720  0.3004
   99SAPS  H12Y 9988   5.210   0.786   7.887 -0.0869 -0.8420 -0.1550
   99SAPS  C313 9989   4.989   0.792   7.863 -0.0093  0.0844 -0.1706
   99SAPS  H13X 9990   4.977   0.683   7.874  0.1037  0.1010  0.1375
   99SAPS  H13Y 9991   4.920   0.826   7.783 -1.2339 -0.1404  0.7772
   99SAPS  C314 9992   4.957   0.863   8.002  0.2897 -0.3470  1.0570
   99SAPS  H14X 9993   5.017   0.792   8.064  0.5334 -0.2880  0.8890
   99SAPS  H14Y 9994   4.848   0.867   8.022  0.2663  0.0833  0.8293
   99SAPS  C315 9995   5.005   1.004   8.012  0.1531  0.3449 -0.0109
   99SAPS  H15X 9996   5.111   1.024   7.990  0.9612 -1.4438  2.0619
   99SAPS  H15Y 9997   5.011   1.031   8.120 -0.7161  3.6280 -0.7156
   99SAPS  C316 9998   4.917   1.117   7.949 -0.8407  0.4000  0.1521
   99SAPS  H16X 9999   4.829   1.122   8.016  0.5572 -3.0916  2.3864
   99SAPS  H16Y10000   4.879   1.085   7.849 -3.3537  3.9318 -0.1157
   99SAPS  C31710001   4.977   1.261   7.965 -0.9282  0.0812 -0.5997
   99SAPS  H17X10002   4.983   1.294   8.071 -0.6872 -0.4664 -0.4449
   99SAPS  H17Y10003   4.913   1.326   7.901  0.6949 -0.7148 -3.1012
   99SAPS  C31810004   5.111   1.278   7.892 -0.7567 -0.3053  0.1701
   99SAPS  H18X10005   5.131   1.387   7.886 -0.4936 -0.3195  0.7936
   99SAPS  H18Y10006   5.098   1.243   7.787  0.6184  0.9135 -0.4222
   99SAPS  H18Z10007   5.202   1.225   7.927  0.2606  0.2659 -1.5687
  100SAPS     N10008   1.697   2.501   6.170  0.2531 -0.3298  0.5292
  100SAPS   HN110009   1.679   2.503   6.068  0.3900  1.2377  0.5294
  100SAPS   HN210010   1.800   2.493   6.173  0.2777 -0.8893 -1.4192
  100SAPS   HN310011   1.643   2.420   6.207 -1.8871  1.3629  1.2560
  100SAPS   C1210012   1.653   2.623   6.238  0.5950  0.6049 -0.2511
  100SAPS  H12A10013   1.662   2.602   6.343  0.8097 -0.2319 -0.4326
  100SAPS   C1310014   1.729   2.751   6.209 -0.2327  0.2231  0.0780
  100SAPS  O13A10015   1.809   2.760   6.113 -0.0023  0.2331  0.2266
  100SAPS  O13B10016   1.717   2.850   6.289 -0.5595  0.0773 -0.0126
  100SAPS   C1110017   1.498   2.646   6.218 -0.2488  0.2869 -0.3382
  100SAPS  H11A10018   1.483   2.680   6.113 -0.9709  0.7326 -0.0982
  100SAPS  H11B10019   1.477   2.731   6.286 -0.4762  2.3467 -2.9007
  100SAPS     P10020   1.277   2.545   6.322  0.1723 -0.0751  0.1948
  100SAPS   O1310021   1.176   2.572   6.214  0.6687  0.4258 -0.3537
  100SAPS   O1410022   1.249   2.425   6.407 -0.0299  0.2508 -0.2864
  100SAPS   O1210023   1.422   2.528   6.250 -0.1758 -0.0549 -0.0051
  100SAPS   O1110024   1.292   2.666   6.418  0.7110 -0.3567 -0.3658
  100SAPS    C110025   1.376   2.658   6.535 -0.3570 -0.2165 -0.3265
  100SAPS    HA10026   1.408   2.553   6.552 -0.3199 -0.6309 -2.8705
  100SAPS    HB10027   1.470   2.715   6.518 -1.0125  1.0487  0.2193
  100SAPS    C210028   1.303   2.695   6.672  0.1815 -0.5553 -0.2856
  100SAPS    HS10029   1.359   2.646   6.755 -1.1640 -1.6826 -0.0169
  100SAPS   O2110030   1.157   2.676   6.678  0.3551  0.1781 -0.2224
  100SAPS   C2110031   1.129   2.548   6.705 -1.0290  0.0323  0.7596
  100SAPS   O2210032   1.205   2.471   6.753 -0.2523  0.2504 -0.3292
  100SAPS   C2210033   0.984   2.511   6.664  0.3434  0.3562 -0.4990
  100SAPS   H2R10034   0.918   2.596   6.636  0.1421 -0.7214 -3.4844
  100SAPS   H2S10035   1.006   2.456   6.570 -0.5123 -1.7828  0.5277
  100SAPS    C310036   1.324   2.847   6.701 -0.0251 -0.2336  0.0012
  100SAPS    HX10037   1.271   2.902   6.620 -2.1913 -1.7317  0.3728
  100SAPS    HY10038   1.432   2.874   6.697 -0.4492  1.6985  0.8040
  100SAPS   O3110039   1.280   2.895   6.829  0.4088 -0.3379 -0.6136
  100SAPS   C3110040   1.166   2.960   6.843 -0.0053  0.0757 -0.5891
  100SAPS   O3210041   1.092   3.000   6.757 -0.3775  0.2311 -0.3238
  100SAPS   C3210042   1.152   2.998   6.987  0.4966 -0.4988 -0.0405
  100SAPS   H2X10043   1.048   3.031   7.007  1.2504  1.6677  0.4873
  100SAPS   H2Y10044   1.210   3.093   6.995 -2.1758  1.2362 -0.6257
  100SAPS   C2310045   0.919   2.420   6.767 -0.1955  0.4602  1.1319
  100SAPS   H3R10046   0.989   2.367   6.836 -0.9767 -1.5555  0.4113
  100SAPS   H3S10047   0.857   2.352   6.705  1.6774 -1.3183  1.1535
  100SAPS   C2410048   0.820   2.497   6.859  0.7744  0.6975 -0.0880
  100SAPS   H4R10049   0.770   2.424   6.926  0.6436 -0.3462 -1.2970
  100SAPS   H4S10050   0.747   2.539   6.785  0.5673 -2.3812 -1.7301
  100SAPS   C2510051   0.879   2.607   6.935  0.2777  0.0098 -0.3074
  100SAPS   H5R10052   0.885   2.704   6.884  1.2022  0.9294  1.5041
  100SAPS   C2610053   0.901   2.607   7.070  0.3716  0.2908 -0.6804
  100SAPS   H6R10054   0.945   2.691   7.126 -2.6902  0.6411  1.3313
  100SAPS   C2710055   0.858   2.491   7.156 -0.3928 -0.0863  0.2661
  100SAPS   H7R10056   0.909   2.402   7.112 -2.3436 -1.7525  1.2900
  100SAPS   H7S10057   0.749   2.476   7.141 -0.5535  1.3925 -0.0922
  100SAPS   C2810058   0.900   2.492   7.300  0.1298  0.7544  0.1222
  100SAPS   H8R10059   0.971   2.573   7.325 -0.8876  1.3270  1.2194
  100SAPS   C2910060   0.862   2.401   7.396  1.0969 -0.1674  0.5480
  100SAPS   H9R10061   0.902   2.410   7.498 -0.9575  0.8798  1.2825
  100SAPS  C21010062   0.776   2.274   7.387  0.3003  0.6648  0.2561
  100SAPS  H10R10063   0.786   2.220   7.483  1.4648 -1.3653 -0.9639
  100SAPS  H10S10064   0.828   2.196   7.326  1.9041  1.1802  0.9236
  100SAPS  C21110065   0.636   2.288   7.333 -0.2989  0.4121  0.0656
  100SAPS  H11R10066   0.627   2.306   7.225 -1.9964 -0.6087  0.0287
  100SAPS  C21210067   0.525   2.282   7.402 -0.8338 -0.4155  0.2211
  100SAPS  H12R10068   0.424   2.293   7.359 -1.3806  0.9938  1.8133
  100SAPS  C21310069   0.521   2.269   7.551 -0.1862 -0.3867 -0.0999
  100SAPS  H13R10070   0.418   2.299   7.580  0.6746  3.0051 -0.3361
  100SAPS  H13S10071   0.587   2.344   7.599 -1.4970 -0.3169  1.6302
  100SAPS  C21410072   0.535   2.127   7.612 -0.0994 -0.0626  0.8513
  100SAPS  H14R10073   0.521   2.046   7.539 -0.4061  1.1768 -0.4778
  100SAPS  C21510074   0.551   2.088   7.740 -0.4064  0.5323  0.5904
  100SAPS  H15R10075   0.542   1.981   7.762 -0.3228  0.4645  0.3036
  100SAPS  C21610076   0.561   2.173   7.862 -0.9654 -1.1189  0.3537
  100SAPS  H16R10077   0.585   2.277   7.833 -1.1082 -1.5567 -1.4013
  100SAPS  H16S10078   0.643   2.128   7.922  0.9071  1.4152 -0.2451
  100SAPS  C21710079   0.429   2.175   7.939 -0.1128 -1.0738  0.2776
  100SAPS  H17R10080   0.403   2.071   7.968 -1.2855 -0.2850  2.1604
  100SAPS  H17S10081   0.351   2.214   7.870 -0.2934  0.0242  1.0986
  100SAPS  C21810082   0.438   2.265   8.059  0.3299  0.4700  0.5453
  100SAPS  H18R10083   0.503   2.354   8.040  2.2031 -0.5667  1.9375
  100SAPS  H18S10084   0.486   2.214   8.145 -2.3310 -1.9180  0.6767
  100SAPS  C21910085   0.306   2.321   8.107  0.1572 -0.4870  0.7585
  100SAPS  H19R10086   0.237   2.350   8.025  0.7184  1.3144  0.9246
  100SAPS  H19S10087   0.326   2.408   8.173  0.5479  0.9743 -1.2501
  100SAPS  C22010088   0.236   2.217   8.200 -0.0186  0.2033 -0.0186
  100SAPS  H20R10089   0.128   2.240   8.212 -0.4792 -2.3503  1.0574
  100SAPS  H20S10090   0.280   2.220   8.302  2.0315 -1.0945 -0.8239
  100SAPS  H20T10091   0.237   2.115   8.155 -3.7353 -0.1296  0.5208
  100SAPS   C3310092   1.192   2.891   7.091 -0.4474 -0.1447  0.0614
  100SAPS   H3X10093   1.289   2.841   7.069 -0.0943 -0.2410  1.7527
  100SAPS   H3Y10094   1.116   2.811   7.094 -0.2843 -0.3280 -0.8190
  100SAPS   C3410095   1.188   2.942   7.236 -0.1567  0.3094 -0.3470
  100SAPS   H4X10096   1.096   3.000   7.256 -1.5717 -0.8081 -3.3122
  100SAPS   H4Y10097   1.277   3.005   7.257  0.0895 -0.5647  1.3173
  100SAPS   C3510098   1.189   2.826   7.333 -0.6679  0.3814  0.3956
  100SAPS   H5X10099   1.294   2.793   7.348 -0.5160  0.9288  0.5379
  100SAPS   H5Y10100   1.128   2.739   7.300 -1.6279  1.6435 -1.1937
  100SAPS   C3610101   1.119   2.848   7.474 -0.1891 -0.1892  0.0845
  100SAPS   H6X10102   1.009   2.862   7.460 -0.1618  0.7325  0.7295
  100SAPS   H6Y10103   1.166   2.939   7.518  1.4274 -0.9240 -0.1075
  100SAPS   C3710104   1.157   2.728   7.569 -0.4408 -0.5741 -0.0219
  100SAPS   H7X10105   1.266   2.709   7.561 -0.5687 -0.3558 -3.1251
  100SAPS   H7Y10106   1.112   2.631   7.539 -1.1558 -0.6060  1.1109
  100SAPS   C3810107   1.104   2.766   7.710 -0.3124 -0.7685 -0.1656
  100SAPS   H8X10108   1.022   2.836   7.685  0.1021 -0.6897 -1.3330
  100SAPS   H8Y10109   1.178   2.825   7.769 -0.0315 -1.0529 -0.2310
  100SAPS   C3910110   1.068   2.650   7.798  0.6090  0.9122  0.0131
  100SAPS   H9X10111   1.058   2.686   7.903 -0.0913  2.0594 -0.4434
  100SAPS   H9Y10112   1.147   2.573   7.802 -0.4632 -0.2834 -1.4648
  100SAPS  C31010113   0.932   2.586   7.757 -0.0887  0.3503  0.3708
  100SAPS  H10X10114   0.941   2.556   7.650 -4.1509 -1.1269  0.3625
  100SAPS  H10Y10115   0.857   2.667   7.766  0.9568  1.4124 -0.3258
  100SAPS  C31110116   0.906   2.458   7.842 -0.9512 -0.6264  0.3779
  100SAPS  H11X10117   0.981   2.377   7.826 -0.5504 -0.5280  1.7052
  100SAPS  H11Y10118   0.805   2.418   7.816 -2.1494  0.5984  2.8940
  100SAPS  C31210119   0.907   2.486   7.993  0.4143  0.4515 -0.7767
  100SAPS  H12X10120   0.857   2.581   8.021  0.2196 -0.3507  1.6394
  100SAPS  H12Y10121   1.014   2.487   8.022  0.1952  3.4567  0.1311
  100SAPS  C31310122   0.848   2.373   8.088  0.4044  0.2365  0.0040
  100SAPS  H13X10123   0.737   2.365   8.084  0.4739 -0.2664 -1.3659
  100SAPS  H13Y10124   0.870   2.424   8.184  0.1290  0.6610 -0.1561
  100SAPS  C31410125   0.932   2.242   8.079 -0.2660 -0.2327 -0.1198
  100SAPS  H14X10126   1.035   2.283   8.086  0.0917 -1.1081 -0.1571
  100SAPS  H14Y10127   0.922   2.194   7.980  1.5670  0.5180 -0.6810
  100SAPS  C31510128   0.896   2.132   8.185  0.6594  0.0239  0.2112
  100SAPS  H15X10129   0.797   2.092   8.154  0.8416 -0.2166 -0.0649
  100SAPS  H15Y10130   0.893   2.189   8.281 -1.3042 -1.6216  1.1665
  100SAPS  C31610131   0.972   2.000   8.195 -0.2749  0.2239  0.0459
  100SAPS  H16X10132   0.966   1.946   8.098  1.8340 -2.2046  1.2034
  100SAPS  H16Y10133   0.922   1.932   8.268 -3.1755  1.0740 -1.0886
  100SAPS  C31710134   1.115   2.015   8.246  0.6102 -0.0649 -0.1704
  100SAPS  H17X10135   1.135   1.924   8.307  1.6219 -0.3804 -0.9605
  100SAPS  H17Y10136   1.121   2.113   8.299  2.7453 -1.0042  1.3817
  100SAPS  C31810137   1.216   2.014   8.141 -0.0909  0.1243  1.1989
  100SAPS  H18X10138   1.211   1.927   8.071  3.3650  0.6914  0.1523
  100SAPS  H18Y10139   1.323   2.025   8.167  0.3690  0.2936 -0.6537
  100SAPS  H18Z10140   1.202   2.099   8.071 -0.4226 -0.8992  0.0037
  101OSM      N10141   6.112   3.022  10.739 -0.5014  0.3260  0.1339
  101OSM    C1510142   5.993   3.020  10.821  0.1750 -0.1928  0.0086
  101OSM   H15A10143   6.014   3.075  10.911 -0.1636  0.6201 -0.4026
  101OSM   H15B10144   5.952   2.925  10.852  0.1982 -0.1264  0.2381
  101OSM   H15C10145   5.910   3.066  10.769  1.5290  0.6583 -1.4473
  101OSM    C1410146   6.112   3.162  10.693  0.3683 -0.4206 -0.3798
  101OSM   H14A10147   6.117   3.239  10.768 -1.5980 -0.0909 -0.5541
  101OSM   H14B10148   6.018   3.172  10.641 -0.1443 -1.0236  0.4156
  101OSM   H14C10149   6.189   3.174  10.619  0.9483  3.0249  0.7069
  101OSM    C1310150   6.233   2.980  10.820  0.3140 -0.5047 -0.1301
  101OSM   H13A10151   6.316   3.018  10.762  0.4394  1.2321  1.1527
  101OSM   H13B10152   6.232   2.873  10.832 -0.8379 -0.4905 -0.0409
  101OSM   H13C10153   6.232   3.027  10.917 -0.4627 -0.6252 -0.0746
  101OSM    C1210154   6.103   2.931  10.615  0.1819 -0.0899 -0.2352
  101OSM   H12A10155   6.186   2.951  10.550 -0.5422  1.4561 -0.6918
  101OSM   H12B10156   6.007   2.946  10.568 -0.0604 -0.9598 -0.0357
  101OSM    C1110157   6.106   2.784  10.646  0.9974 -0.2386 -0.4522
  101OSM   H11A10158   6.206   2.755  10.684  0.8978  0.2947  0.2151
  101OSM   H11B10159   6.082   2.746  10.544  2.2252 -0.3886 -0.6955
  101OSM      P10160   6.012   2.607  10.824 -0.2237 -0.3659  0.0155
  101OSM    O1310161   6.145   2.574  10.869  0.4516 -0.6143  0.5014
  101OSM    O1410162   5.904   2.607  10.924  0.1016  0.4252 -0.0119
  101OSM    O1110163   5.975   2.502  10.710  0.0356  0.8515 -0.0521
  101OSM    O1210164   6.005   2.747  10.745  0.8444 -0.8015 -0.2379
  101OSM    C1S10165   5.846   2.492  10.660  0.0571 -0.1713  0.2082
  101OSM    H1S10166   5.773   2.559  10.710 -0.4601 -1.5927  1.3694
  101OSM    H1T10167   5.800   2.396  10.692  0.4149 -0.1759  0.7300
  101OSM     NF10168   5.717   2.496  10.465  0.0498  0.1662  0.1491
  101OSM    HNF10169   5.683   2.407  10.437  1.2987 -0.4962  0.6718
  101OSM    C2S10170   5.848   2.511  10.511 -0.5187 -0.2799  0.5043
  101OSM    H2S10171   5.889   2.612  10.490 -2.5030  0.3154 -0.6139
  101OSM    C3S10172   5.941   2.404  10.445 -0.1126  0.1785  0.1673
  101OSM    H3S10173   5.895   2.303  10.451 -0.6541  0.4169  0.0440
  101OSM     O310174   6.064   2.383  10.508  0.3757  0.1985  0.0956
  101OSM    HO310175   6.049   2.436  10.587  0.9845  0.6432 -0.0847
  101OSM    C4S10176   5.952   2.436  10.296  0.4753  0.3951  0.4226
  101OSM    H4S10177   5.871   2.391  10.237 -0.5579  1.2004  1.2203
  101OSM    C5S10178   6.055   2.503  10.230  0.1734  0.7484  0.3310
  101OSM    H5S10179   6.145   2.537  10.284  0.4478 -3.2107  2.5482
  101OSM    C6S10180   6.068   2.533  10.077  0.3318 -0.7010 -0.1749
  101OSM    H6S10181   6.162   2.497  10.029  0.4932  0.9460 -1.1577
  101OSM    H6T10182   6.065   2.644  10.066  0.1132 -0.7377 -0.5026
  101OSM    C7S10183   5.948   2.482   9.996  0.0507 -0.3414  0.7642
  101OSM    H7S10184   5.856   2.539  10.020 -1.6939 -2.8829  0.3043
  101OSM    H7T10185   5.931   2.374  10.016 -1.5213 -0.1949  0.3508
  101OSM    C8S10186   5.965   2.498   9.843  0.0159 -0.0382 -0.0418
  101OSM    H8S10187   5.871   2.493   9.784 -0.1031 -2.2246  0.3074
  101OSM    H8T10188   6.020   2.406   9.814 -1.0257 -0.5100 -0.5641
  101OSM    C9S10189   6.025   2.632   9.790  0.1713 -0.1727 -0.1245
  101OSM    H9S10190   6.127   2.638   9.834 -0.0894 -0.8184  0.5712
  101OSM    H9T10191   5.957   2.711   9.828 -0.4336 -1.3659  1.2974
  101OSM   C10S10192   6.035   2.644   9.639 -0.3433 -0.2212  0.0898
  101OSM   H10S10193   6.053   2.748   9.608  1.4767 -0.1438  1.3396
  101OSM   H10T10194   5.945   2.594   9.596 -0.6998 -0.9721  1.6269
  101OSM   C11S10195   6.153   2.567   9.575 -0.0935 -0.0260 -0.4450
  101OSM   H11S10196   6.174   2.464   9.611  1.9809  0.5362  0.0454
  101OSM   H11T10197   6.248   2.624   9.581 -0.8796  1.3629 -1.1063
  101OSM   C12S10198   6.137   2.532   9.424  0.3059  0.1277 -0.0640
  101OSM   H12S10199   6.065   2.450   9.406  0.5981  0.0598 -0.9719
  101OSM   H12T10200   6.234   2.491   9.388 -1.1925 -1.3668 -2.4953
  101OSM   C13S10201   6.101   2.657   9.349  0.0786  0.2494  0.1456
  101OSM   H13S10202   6.186   2.725   9.370 -2.2115  2.3452  3.0801
  101OSM   H13T10203   6.001   2.692   9.380  0.3819  3.1383 -1.8566
  101OSM   C14S10204   6.092   2.624   9.194 -0.2607  0.0839 -0.1103
  101OSM   H14S10205   6.008   2.552   9.189  1.1948 -1.6100 -0.4872
  101OSM   H14T10206   6.189   2.576   9.173  0.4568  0.8222  1.4353
  101OSM   C15S10207   6.095   2.754   9.115 -0.4097  0.5635  0.0372
  101OSM   H15S10208   6.196   2.802   9.118  1.6762 -3.5983  0.1754
  101OSM   H15T10209   6.010   2.813   9.156 -1.1637 -2.5233  3.1319
  101OSM   C16S10210   6.066   2.739   8.967 -0.1257 -0.2157  0.3323
  101OSM   H16S10211   5.956   2.724   8.959 -0.2853  1.4675 -1.1232
  101OSM   H16T10212   6.109   2.644   8.929 -1.6200 -0.8531  0.2039
  101OSM   C17S10213   6.117   2.853   8.877  0.7454 -0.6021  0.1472
  101OSM   H17S10214   6.121   2.823   8.770 -0.1945  0.1268 -0.1035
  101OSM   H17T10215   6.224   2.863   8.905  1.4907 -0.9320 -2.4408
  101OSM   C18S10216   6.049   2.988   8.893 -0.0297  0.1789 -0.0336
  101OSM   H18S10217   6.067   3.056   8.808  0.8424 -1.3162 -1.0580
  101OSM   H18T10218   6.076   3.037   8.990  2.2406 -1.4947  0.2014
  101OSM   H18U10219   5.939   2.973   8.899  0.3968 -3.1544  0.5816
  101OSM    C1F10220   5.637   2.598  10.483  0.2681  0.3327  0.5930
  101OSM     OF10221   5.667   2.709  10.530 -0.5155  0.0163  0.0468
  101OSM    C2F10222   5.495   2.576  10.435  0.6769 -0.6796  0.2216
  101OSM    H2F10223   5.440   2.581  10.532 -2.0155  0.9757 -1.3115
  101OSM    H2G10224   5.477   2.482  10.380  0.5111  0.0452 -0.9775
  101OSM    C3F10225   5.453   2.700  10.351 -0.4751  0.2888  0.8568
  101OSM    H3F10226   5.458   2.792  10.413  2.1870 -1.0421  2.7588
  101OSM    H3G10227   5.347   2.674  10.330  0.0689 -2.7670  1.5700
  101OSM    C4F10228   5.523   2.722  10.220 -0.0593 -0.0654  0.0654
  101OSM    H4F10229   5.454   2.795  10.172  2.5785  1.9945 -0.7351
  101OSM    H4G10230   5.532   2.623  10.171  1.6497 -1.8221  3.7124
  101OSM    C5F10231   5.660   2.796  10.217  0.6935 -0.8740  0.6236
  101OSM    H5F10232   5.740   2.747  10.277  0.9231  0.1845  1.2039
  101OSM    H5G10233   5.648   2.887  10.279  1.9594  1.1808 -2.0874
  101OSM    C6F10234   5.696   2.844  10.076  0.2590 -0.3717  0.0487
  101OSM    H6F10235   5.612   2.901  10.033  0.6448 -1.1190 -1.7480
  101OSM    H6G10236   5.722   2.759  10.009  0.1234 -0.7560  0.4761
  101OSM    C7F10237   5.818   2.938  10.076  1.1098  0.4093  0.1449
  101OSM    H7F10238   5.897   2.866  10.107  0.8334 -0.1369 -0.3887
  101OSM    H7G10239   5.809   3.019  10.151  0.1248  0.2413  0.2184
  101OSM    C8F10240   5.862   2.980   9.935 -0.2320 -0.3176  0.5336
  101OSM    H8F10241   5.862   2.890   9.869  0.0858 -0.1472  0.3008
  101OSM    H8G10242   5.970   3.001   9.948 -0.4449 -0.5722  3.0616
  101OSM    C9F10243   5.809   3.110   9.872 -0.5953  0.9351 -0.4840
  101OSM    H9F10244   5.804   3.192   9.945  0.0225  0.7189 -0.1935
  101OSM   C10F10245   5.763   3.122   9.746  0.0283  0.5047 -0.4584
  101OSM   H10F10246   5.736   3.223   9.714  1.8216  0.8152 -1.0850
  101OSM   C11F10247   5.759   3.023   9.634 -0.0052  0.3672  0.3138
  101OSM   H11F10248   5.654   2.997   9.608 -0.1245  0.0446  1.0792
  101OSM   H11G10249   5.792   2.927   9.679 -0.1519  0.8287  1.4447
  101OSM   C12F10250   5.848   3.047   9.514  1.1502 -0.9355  0.5511
  101OSM   H12F10251   5.947   3.054   9.563  2.5482  0.5649 -2.3737
  101OSM   H12G10252   5.832   3.146   9.467 -2.3564 -1.1451  1.1077
  101OSM   C13F10253   5.852   2.929   9.423  0.2830 -0.5213 -0.3168
  101OSM   H13F10254   5.851   2.833   9.478 -1.2662  0.1420  0.8761
  101OSM   H13G10255   5.953   2.941   9.380  0.7513  0.6869  1.0520
  101OSM   C14F10256   5.739   2.938   9.313  0.5224 -0.4999  0.0518
  101OSM   H14F10257   5.646   2.960   9.369  0.1666  0.4383 -0.9033
  101OSM   H14G10258   5.727   2.843   9.258 -1.4749 -0.1641 -0.1026
  101OSM   C15F10259   5.759   3.046   9.205  0.2109  0.6480  0.4182
  101OSM   H15F10260   5.838   3.014   9.135 -0.3724  1.6029 -0.7047
  101OSM   H15G10261   5.792   3.138   9.258 -1.3456  0.8214  1.1357
  101OSM   C16F10262   5.635   3.063   9.127  0.1897  0.4867 -0.2864
  101OSM   H16F10263   5.550   3.084   9.196  0.5169 -0.8315  0.5367
  101OSM   H16G10264   5.608   2.968   9.076  2.1218 -0.9820  1.3438
  101OSM   C17F10265   5.644   3.174   9.021  0.0464 -0.1315  0.0621
  101OSM   H17F10266   5.729   3.157   8.951 -0.2780 -0.0276 -0.3624
  101OSM   H17G10267   5.650   3.268   9.078 -0.1069 -1.2725  1.9970
  101OSM   C18F10268   5.510   3.180   8.941  0.2150 -0.3676  0.1451
  101OSM   H18F10269   5.504   3.278   8.888 -0.6757  2.0793  4.4848
  101OSM   H18G10270   5.428   3.187   9.016  1.6519 -0.1901  1.7358
  101OSM   H18H10271   5.501   3.093   8.873 -3.4537  0.3370 -0.4199
  102OSM      N10272   6.042   2.181  10.926 -0.1734  0.5183 -0.5794
  102OSM    C1510273   6.091   2.046  10.950 -0.8298 -0.1190 -0.1456
  102OSM   H15A10274   6.170   2.025  10.879 -2.0783 -1.3365 -1.1952
  102OSM   H15B10275   6.018   1.967  10.941 -1.3325  0.3842 -0.4355
  102OSM   H15C10276   6.135   2.027  11.048 -1.7845  3.6390  1.0875
  102OSM    C1410277   5.938   2.210  11.041 -0.2156 -0.0286  0.2921
  102OSM   H14A10278   5.896   2.308  11.024 -0.8399  0.2331  3.0287
  102OSM   H14B10279   5.988   2.210  11.137 -2.4678  1.6549  1.5125
  102OSM   H14C10280   5.853   2.143  11.037 -1.5848  1.7226 -0.5999
  102OSM    C1310281   6.153   2.279  10.944 -0.5319  0.4526  0.2196
  102OSM   H13A10282   6.242   2.265  10.883 -0.2836  0.0349  0.6797
  102OSM   H13B10283   6.187   2.255  11.043 -2.9327 -2.5604  0.3766
  102OSM   H13C10284   6.108   2.377  10.940  0.3626  0.8448 -0.5027
  102OSM    C1210285   5.973   2.202  10.794 -0.2727 -0.0608 -0.8739
  102OSM   H12A10286   6.057   2.178  10.729  1.8602  1.6031  1.1871
  102OSM   H12B10287   5.951   2.307  10.781  0.9090  0.4571  1.1207
  102OSM    C1110288   5.850   2.122  10.762 -0.0152 -0.3842  0.3704
  102OSM   H11A10289   5.855   2.029  10.822 -1.1769  0.8020  2.3643
  102OSM   H11B10290   5.858   2.090  10.656 -2.0482 -1.5236  0.5249
  102OSM      P10291   5.592   2.123  10.820  0.3198 -0.4526  0.3490
  102OSM    O1310292   5.609   2.030  10.930 -0.4244 -0.1294 -0.1236
  102OSM    O1410293   5.485   2.223  10.830 -0.7159  0.0381  0.4475
  102OSM    O1110294   5.576   2.030  10.688  0.3120  0.0526  0.2799
  102OSM    O1210295   5.726   2.193  10.785  0.1160  0.8925  0.3362
  102OSM    C1S10296   5.541   2.094  10.565  0.4346  0.7557 -0.4197
  102OSM    H1S10297   5.585   2.195  10.553  0.0929  1.0398  0.6554
  102OSM    H1T10298   5.431   2.107  10.571  0.4362  1.0236 -0.9702
  102OSM     NF10299   5.513   2.066  10.315  0.4297  0.3834 -0.3545
  102OSM    HNF10300   5.438   2.015  10.274 -0.7887 -0.1108  2.3687
  102OSM    C2S10301   5.562   2.005  10.440  0.6055 -0.3691 -0.2502
  102OSM    H2S10302   5.671   1.992  10.420  0.2846  0.2450 -2.6360
  102OSM    C3S10303   5.512   1.861  10.460 -0.7412  0.5140  0.2368
  102OSM    H3S10304   5.403   1.858  10.480 -0.8965 -0.5486 -0.7108
  102OSM     O310305   5.571   1.791  10.574  0.9336 -0.3013  0.7372
  102OSM    HO310306   5.590   1.865  10.631 -0.0882 -0.3044  1.1082
  102OSM    C4S10307   5.533   1.786  10.330 -0.4060  0.2119 -0.1179
  102OSM    H4S10308   5.467   1.813  10.246  0.9574 -1.3199 -1.7279
  102OSM    C5S10309   5.618   1.685  10.302 -0.0329  0.0182 -0.7453
  102OSM    H5S10310   5.677   1.649  10.387  0.4762 -1.7947 -1.8405
  102OSM    C6S10311   5.635   1.609  10.168  0.2122  0.1227  0.1483
  102OSM    H6S10312   5.579   1.513  10.165  0.2736  0.1068 -0.4679
  102OSM    H6T10313   5.744   1.586  10.157 -0.3344 -1.5930 -2.0579
  102OSM    C7S10314   5.572   1.698  10.047 -0.9692  0.1618 -0.0957
  102OSM    H7S10315   5.627   1.795  10.045  0.7837 -0.8007  0.6924
  102OSM    H7T10316   5.463   1.712  10.064 -1.1513 -1.1324 -0.1404
  102OSM    C8S10317   5.588   1.633   9.912 -0.0804 -0.7061 -0.4292
  102OSM    H8S10318   5.566   1.707   9.833 -1.5975  0.0454  0.6699
  102OSM    H8T10319   5.517   1.549   9.896 -0.6147 -0.0852 -1.2946
  102OSM    C9S10320   5.729   1.574   9.880  0.2999 -0.1429 -0.2111
  102OSM    H9S10321   5.742   1.481   9.940  1.0321  0.7636  1.0569
  102OSM    H9T10322   5.806   1.648   9.910 -0.0400  0.6907 -1.3612
  102OSM   C10S10323   5.743   1.509   9.741 -0.4686 -0.2287  0.2828
  102OSM   H10S10324   5.695   1.411   9.724 -1.1881  0.2346 -0.3673
  102OSM   H10T10325   5.852   1.494   9.724 -0.6197 -0.6309 -0.3177
  102OSM   C11S10326   5.691   1.605   9.628 -0.2762 -0.2346 -0.4396
  102OSM   H11S10327   5.702   1.707   9.672 -0.8394 -0.2641 -0.2237
  102OSM   H11T10328   5.581   1.592   9.618  0.0577 -2.3228 -1.6519
  102OSM   C12S10329   5.771   1.588   9.499 -0.1275  0.0831  0.7537
  102OSM   H12S10330   5.777   1.480   9.474  0.8917  0.5439 -1.0251
  102OSM   H12T10331   5.874   1.619   9.527 -0.2311  0.2731  0.9303
  102OSM   C13S10332   5.718   1.672   9.386  0.2812 -0.1136 -0.0185
  102OSM   H13S10333   5.739   1.775   9.421  1.4227  0.1779 -1.5057
  102OSM   H13T10334   5.611   1.657   9.360 -0.0645  0.2495  1.1527
  102OSM   C14S10335   5.793   1.657   9.256  0.3312  0.3631 -0.1168
  102OSM   H14S10336   5.779   1.551   9.226  0.3903  0.1451  0.6171
  102OSM   H14T10337   5.899   1.680   9.280  0.3250 -1.6729  1.9994
  102OSM   C15S10338   5.738   1.757   9.154  0.8871  0.2393 -0.5099
  102OSM   H15S10339   5.775   1.862   9.153 -1.1993  1.0602  1.7180
  102OSM   H15T10340   5.631   1.759   9.181  1.3156 -2.6269  1.5895
  102OSM   C16S10341   5.745   1.698   9.012 -0.2987  0.6075  0.0337
  102OSM   H16S10342   5.682   1.606   9.008  2.1870 -1.1202 -0.5443
  102OSM   H16T10343   5.842   1.664   8.972  0.4657  1.6807  0.9416
  102OSM   C17S10344   5.690   1.802   8.913 -0.1546 -0.3375  0.4278
  102OSM   H17S10345   5.689   1.764   8.809 -0.0163  0.2205  0.2193
  102OSM   H17T10346   5.761   1.888   8.918  1.2022 -1.4185  0.3102
  102OSM   C18S10347   5.556   1.858   8.947  0.2762  0.2769  0.4010
  102OSM   H18S10348   5.556   1.902   9.049 -1.2669 -2.8305  1.8005
  102OSM   H18T10349   5.485   1.774   8.956  2.0551 -1.1865  1.1036
  102OSM   H18U10350   5.528   1.923   8.860  0.0833 -0.3595 -0.0158
  102OSM    C1F10351   5.545   2.190  10.273  0.2137  0.2953  0.2794
  102OSM     OF10352   5.610   2.268  10.341 -0.0643 -0.2441  0.4546
  102OSM    C2F10353   5.476   2.236  10.145  0.4875  0.0720 -0.4488
  102OSM    H2F10354   5.401   2.311  10.179 -1.9259 -1.7309 -1.6524
  102OSM    H2G10355   5.429   2.151  10.092  0.8915  0.4282 -1.3983
  102OSM    C3F10356   5.578   2.314  10.052  0.0227 -0.5036 -0.0783
  102OSM    H3F10357   5.671   2.256  10.032  1.2645  1.8354 -1.2768
  102OSM    H3G10358   5.621   2.400  10.108  0.5437 -0.9968  0.2872
  102OSM    C4F10359   5.506   2.371   9.923 -0.4649 -0.0182  0.1413
  102OSM    H4F10360   5.419   2.437   9.942 -0.4773 -0.7934  3.1327
  102OSM    H4G10361   5.473   2.282   9.867 -1.2180 -0.6685  1.5861
  102OSM    C5F10362   5.605   2.454   9.839  0.3740  0.7920  0.8496
  102OSM    H5F10363   5.703   2.406   9.820 -0.8309 -0.7620 -1.8136
  102OSM    H5G10364   5.613   2.551   9.893 -4.4479  0.8215  1.7108
  102OSM    C6F10365   5.547   2.486   9.699 -1.2558  0.9343  0.4119
  102OSM    H6F10366   5.493   2.583   9.700  2.9416  3.4337 -0.7251
  102OSM    H6G10367   5.474   2.406   9.675  2.0589 -1.8776 -0.7475
  102OSM    C7F10368   5.656   2.502   9.592 -0.1212 -0.1672 -0.6198
  102OSM    H7F10369   5.713   2.407   9.595 -0.5517 -0.4089 -0.0880
  102OSM    H7G10370   5.728   2.584   9.613 -1.5475  0.3203  2.5310
  102OSM    C8F10371   5.587   2.520   9.448  0.1266  0.0286  0.6470
  102OSM    H8F10372   5.544   2.621   9.466  1.7844  0.5727  1.6276
  102OSM    H8G10373   5.503   2.450   9.426  0.3736  0.0009 -0.2352
  102OSM    C9F10374   5.682   2.538   9.333 -0.6911 -0.7899 -0.0091
  102OSM    H9F10375   5.783   2.572   9.359 -0.6836 -1.7462  1.2784
  102OSM   C10F10376   5.653   2.505   9.204  0.1036  0.9793  0.9608
  102OSM   H10F10377   5.731   2.518   9.128 -0.1606  1.0499  0.7027
  102OSM   C11F10378   5.521   2.447   9.147 -0.0892  0.1233 -0.2850
  102OSM   H11F10379   5.488   2.504   9.057  0.6815 -0.3376 -0.8644
  102OSM   H11G10380   5.436   2.474   9.214 -0.6240  0.5284 -1.1064
  102OSM   C12F10381   5.543   2.297   9.127 -0.0805  0.3679  0.1073
  102OSM   H12F10382   5.576   2.246   9.220  1.4636  1.1786  0.0149
  102OSM   H12G10383   5.621   2.280   9.049  2.1512 -0.2975  2.4212
  102OSM   C13F10384   5.417   2.220   9.079 -0.4731  0.3072  0.5595
  102OSM   H13F10385   5.325   2.246   9.136 -1.0680 -1.2539  0.3332
  102OSM   H13G10386   5.438   2.111   9.087 -0.5168  0.1640 -1.1322
  102OSM   C14F10387   5.376   2.254   8.934 -0.0149 -0.2089  0.1214
  102OSM   H14F10388   5.468   2.249   8.873  0.9699  2.7008  1.2656
  102OSM   H14G10389   5.340   2.359   8.929  0.4809 -0.0365  0.1986
  102OSM   C15F10390   5.266   2.162   8.876  0.0698 -0.4773 -0.0350
  102OSM   H15F10391   5.182   2.152   8.948 -0.2086  0.7499 -0.1828
  102OSM   H15G10392   5.320   2.065   8.870  1.3165  0.1692  0.3681
  102OSM   C16F10393   5.194   2.215   8.751 -0.0276  0.2326  0.1819
  102OSM   H16F10394   5.256   2.300   8.719 -1.2681  1.0926  0.0195
  102OSM   H16G10395   5.094   2.258   8.773 -0.3518  1.0302 -2.7645
  102OSM   C17F10396   5.192   2.120   8.640 -0.1824 -0.6080  0.0978
  102OSM   H17F10397   5.296   2.083   8.640  0.6539  1.6680  0.9759
  102OSM   H17G10398   5.169   2.179   8.549  0.6482 -0.6742 -0.1542
  102OSM   C18F10399   5.080   2.007   8.655 -0.4985 -0.1283 -0.4860
  102OSM   H18F10400   4.985   2.063   8.666 -0.9720 -0.9517 -0.3346
  102OSM   H18G10401   5.103   1.950   8.747  0.3219  0.3937 -0.3546
  102OSM   H18H10402   5.074   1.940   8.566 -0.0783 -3.0190  1.5918
  103OSM      N10403   0.362   5.743  10.947  0.3183 -0.0824  0.2545
  103OSM    C1510404   0.331   5.817  10.828  0.5829  0.4118 -0.1276
  103OSM   H15A10405   0.225   5.820  10.811  0.5901  2.4190 -0.0198
  103OSM   H15B10406   0.375   5.772  10.740  2.4112  2.6736 -0.4269
  103OSM   H15C10407   0.375   5.916  10.833 -0.2317  0.7410  0.6111
  103OSM    C1410408   0.504   5.741  10.956  0.9246  0.7109  0.0405
  103OSM   H14A10409   0.542   5.839  10.983  0.1348  0.9447  0.3223
  103OSM   H14B10410   0.538   5.705  10.860  1.4798  0.3121  0.3832
  103OSM   H14C10411   0.537   5.669  11.029 -0.8083  0.7421  0.8805
  103OSM    C1310412   0.294   5.817  11.056 -0.5228  0.0060 -0.6014
  103OSM   H13A10413   0.192   5.782  11.070  0.4222 -1.9502  1.6877
  103OSM   H13B10414   0.295   5.925  11.053 -0.2723 -0.0011 -0.7957
  103OSM   H13C10415   0.349   5.788  11.144  0.4317 -0.7308 -1.4213
  103OSM    C1210416   0.300   5.599  10.928 -0.4792  0.3847  0.5920
  103OSM   H12A10417   0.375   5.535  10.885 -1.1916 -0.5481  0.7143
  103OSM   H12B10418   0.223   5.596  10.852  1.4056  2.6278 -1.4636
  103OSM    C1110419   0.242   5.537  11.052 -0.4117 -0.5758  0.0614
  103OSM   H11A10420   0.194   5.439  11.029 -0.7655 -0.4099  0.0844
  103OSM   H11B10421   0.163   5.605  11.091 -0.5625 -1.1794  0.8178
  103OSM      P10422   0.454   5.403  11.151 -0.1594  0.6860  0.6467
  103OSM    O1310423   0.579   5.445  11.215  0.0697  0.9405 -0.4339
  103OSM    O1410424   0.385   5.284  11.215 -0.4988 -0.2752 -0.0207
  103OSM    O1110425   0.487   5.375  10.997  0.2500  0.1924  0.5031
  103OSM    O1210426   0.349   5.522  11.146  0.5433 -0.1163 -0.4122
  103OSM    C1S10427   0.449   5.254  10.935 -0.7502 -0.7855 -0.2830
  103OSM    H1S10428   0.340   5.241  10.913 -0.2892 -0.4603 -2.9143
  103OSM    H1T10429   0.472   5.164  10.997 -0.3897  0.9489  2.1760
  103OSM     NF10430   0.477   5.141  10.719 -0.1815 -0.4650  0.7359
  103OSM    HNF10431   0.515   5.049  10.726 -0.1894 -0.5704 -0.5271
  103OSM    C2S10432   0.542   5.240  10.805 -0.0042  0.3596  0.9409
  103OSM    H2S10433   0.543   5.336  10.748  0.9270  0.9681  1.9767
  103OSM    C3S10434   0.689   5.203  10.841 -0.2123  0.1123 -0.5787
  103OSM    H3S10435   0.688   5.102  10.888  1.8099  0.5696  0.4995
  103OSM     O310436   0.751   5.293  10.928  0.7055 -0.2205 -0.5439
  103OSM    HO310437   0.675   5.346  10.954  1.7673  0.6695  0.8478
  103OSM    C4S10438   0.765   5.194  10.711 -0.3180 -0.2223  0.7996
  103OSM    H4S10439   0.782   5.290  10.661  1.9742 -1.7923 -1.5402
  103OSM    C5S10440   0.812   5.084  10.652  0.7771  0.6245 -0.1648
  103OSM    H5S10441   0.794   4.987  10.702  1.4020  1.2325  1.2734
  103OSM    C6S10442   0.889   5.085  10.522  0.6483  0.3163  0.2931
  103OSM    H6S10443   0.998   5.063  10.532  0.4122 -0.1278  1.9557
  103OSM    H6T10444   0.887   5.187  10.477  1.0545  0.0872 -0.2482
  103OSM    C7S10445   0.812   4.990  10.427  0.1778 -0.4063 -0.0949
  103OSM    H7S10446   0.707   5.028  10.427  0.6593  0.9399 -1.3503
  103OSM    H7T10447   0.814   4.892  10.480  0.6817  0.7818  2.1574
  103OSM    C8S10448   0.847   4.971  10.280  0.9436 -0.1429  0.2851
  103OSM    H8S10449   0.779   4.892  10.241 -0.3750  0.3050  1.5975
  103OSM    H8T10450   0.949   4.936  10.254  0.5523 -0.8140 -0.3516
  103OSM    C9S10451   0.802   5.089  10.192  0.6842 -0.1778 -0.0258
  103OSM    H9S10452   0.874   5.164  10.232 -0.8877  1.2479  0.2316
  103OSM    H9T10453   0.697   5.110  10.222  0.7140 -2.7094  1.9705
  103OSM   C10S10454   0.822   5.052  10.048  0.1167 -0.5068  0.3713
  103OSM   H10S10455   0.768   4.960  10.016  0.4154  0.1340 -2.0675
  103OSM   H10T10456   0.927   5.032  10.017  1.2573  1.9680  2.4737
  103OSM   C11S10457   0.769   5.155   9.946 -0.0183  0.2536 -0.4008
  103OSM   H11S10458   0.800   5.255   9.981 -0.8366 -0.3456  2.1956
  103OSM   H11T10459   0.658   5.145   9.953 -0.1313 -0.8139 -3.1433
  103OSM   C12S10460   0.802   5.141   9.801 -0.3940  0.4576  0.3228
  103OSM   H12S10461   0.791   5.037   9.762 -1.6428  1.2740 -1.5747
  103OSM   H12T10462   0.905   5.173   9.774 -0.4058 -0.9658 -1.5105
  103OSM   C13S10463   0.707   5.223   9.706 -0.4968 -0.2813  0.3844
  103OSM   H13S10464   0.701   5.329   9.737 -0.7956  0.1972 -1.2826
  103OSM   H13T10465   0.606   5.179   9.723  0.4034 -2.5625  0.0556
  103OSM   C14S10466   0.751   5.224   9.564  0.0239 -0.3957  0.4680
  103OSM   H14S10467   0.773   5.121   9.527  0.4437  0.2171 -1.0398
  103OSM   H14T10468   0.851   5.273   9.563  0.9548 -2.2108  1.6841
  103OSM   C15S10469   0.656   5.293   9.467  0.4026 -0.6087  0.2811
  103OSM   H15S10470   0.627   5.394   9.504 -0.3910 -0.4308 -0.7835
  103OSM   H15T10471   0.564   5.236   9.442  0.1738 -1.4067  2.7548
  103OSM   C16S10472   0.719   5.325   9.333 -0.6844 -0.4965  0.6332
  103OSM   H16S10473   0.808   5.390   9.343 -0.5651 -0.4444 -0.7126
  103OSM   H16T10474   0.648   5.387   9.274  1.6110 -2.1973 -4.2202
  103OSM   C17S10475   0.753   5.204   9.246  0.5222 -0.8546 -0.2006
  103OSM   H17S10476   0.665   5.136   9.250  0.2356 -0.4131  2.4250
  103OSM   H17T10477   0.844   5.154   9.286  0.8085  0.1084  0.3815
  103OSM   C18S10478   0.805   5.234   9.104  0.1616  0.1362  0.2947
  103OSM   H18S10479   0.849   5.139   9.067  1.9740  1.0100  0.1632
  103OSM   H18T10480   0.875   5.319   9.088 -1.2453  1.4062  0.7400
  103OSM   H18U10481   0.720   5.239   9.033  0.3709 -0.7783 -0.0228
  103OSM    C1F10482   0.369   5.166  10.651  0.5946 -0.8645  0.2893
  103OSM     OF10483   0.314   5.278  10.654 -0.3080 -0.1229 -0.2708
  103OSM    C2F10484   0.310   5.054  10.573 -1.0914 -0.1832  0.0113
  103OSM    H2F10485   0.255   4.984  10.639 -0.2934 -3.7925 -3.0023
  103OSM    H2G10486   0.399   5.001  10.532 -0.6796  0.8580 -0.4536
  103OSM    C3F10487   0.223   5.097  10.455  0.0661 -0.1244  0.4104
  103OSM    H3F10488   0.157   5.181  10.489 -0.6171  0.2711 -1.8083
  103OSM    H3G10489   0.157   5.013  10.423  0.7484 -0.4680 -0.0910
  103OSM    C4F10490   0.304   5.154  10.328  0.2097  0.2826  0.0167
  103OSM    H4F10491   0.378   5.076  10.299  0.7509  1.7143 -2.6234
  103OSM    H4G10492   0.369   5.238  10.361  0.6727 -0.1997  0.3508
  103OSM    C5F10493   0.227   5.201  10.205 -0.4735 -0.0527 -0.3219
  103OSM    H5F10494   0.202   5.309  10.217  0.7156  0.1747  0.2474
  103OSM    H5G10495   0.134   5.142  10.197  0.6668 -1.4910 -3.7049
  103OSM    C6F10496   0.309   5.188  10.069  0.1603 -0.4630 -0.4520
  103OSM    H6F10497   0.362   5.092  10.057 -0.4780 -0.7826 -0.7564
  103OSM    H6G10498   0.388   5.265  10.059  1.7826 -1.5264  3.1560
  103OSM    C7F10499   0.220   5.203   9.943  0.1855 -0.5701  0.4098
  103OSM    H7F10500   0.177   5.304   9.928 -0.2015 -0.5284  1.7680
  103OSM    H7G10501   0.132   5.138   9.964 -0.4715  0.9619  2.5341
  103OSM    C8F10502   0.274   5.141   9.813 -0.6140 -0.5270 -0.2110
  103OSM    H8F10503   0.184   5.096   9.766  0.9631 -1.0221 -2.8663
  103OSM    H8G10504   0.342   5.057   9.837 -0.0612 -0.5246 -1.6854
  103OSM    C9F10505   0.344   5.245   9.729 -0.0817 -0.0890 -0.0337
  103OSM    H9F10506   0.419   5.298   9.791 -1.2277  0.6711  0.7264
  103OSM   C10F10507   0.312   5.270   9.600  0.2402  0.4213 -0.2492
  103OSM   H10F10508   0.354   5.354   9.543  3.0805  0.9202  2.4505
  103OSM   C11F10509   0.205   5.201   9.521 -0.0943  0.2055  0.4550
  103OSM   H11F10510   0.149   5.286   9.476  1.2899 -0.3959 -2.4672
  103OSM   H11G10511   0.138   5.138   9.584 -1.0281  0.2516 -0.4749
  103OSM   C12F10512   0.269   5.114   9.410 -0.1875 -0.1292 -0.3709
  103OSM   H12F10513   0.314   5.023   9.453  0.8479 -1.5731 -4.2591
  103OSM   H12G10514   0.348   5.184   9.374  0.2243 -0.4930 -0.1654
  103OSM   C13F10515   0.177   5.073   9.301 -0.1035  0.0394 -0.3091
  103OSM   H13F10516   0.242   5.036   9.219  2.1352 -0.0450  1.4551
  103OSM   H13G10517   0.105   4.998   9.340  0.8775 -0.1883  1.0643
  103OSM   C14F10518   0.093   5.193   9.254  0.4005  0.2576  0.1491
  103OSM   H14F10519   0.161   5.279   9.240 -0.3013  0.8599  0.4117
  103OSM   H14G10520   0.009   5.210   9.325 -1.3144 -1.1402 -1.5030
  103OSM   C15F10521   0.033   5.169   9.114  0.0238 -0.0852 -0.5501
  103OSM   H15F10522  -0.033   5.082   9.130  0.8453 -0.2960  1.9185
  103OSM   H15G10523   0.104   5.139   9.034 -0.2936 -0.7858 -0.5713
  103OSM   C16F10524  -0.051   5.280   9.051 -0.4216  0.1611 -0.0330
  103OSM   H16F10525   0.023   5.356   9.019  0.2383  0.9442  3.2190
  103OSM   H16G10526  -0.113   5.318   9.135 -1.6165  0.0363 -0.8363
  103OSM   C17F10527  -0.149   5.236   8.946  0.3338 -0.0062 -0.0992
  103OSM   H17F10528  -0.201   5.144   8.978  1.1340 -0.3972  0.0734
  103OSM   H17G10529  -0.085   5.199   8.863  1.0223  2.4638 -0.7117
  103OSM   C18F10530  -0.245   5.339   8.890 -0.0319  0.7443  0.7736
  103OSM   H18F10531  -0.199   5.418   8.826 -0.6853 -1.7435 -2.9158
  103OSM   H18G10532  -0.288   5.405   8.968 -0.1097  1.2459  0.3160
  103OSM   H18H10533  -0.329   5.294   8.833  1.2963  0.7074 -1.1859
  104OSM      N10534   4.585   4.170  10.900 -0.2643  0.1424 -0.6515
  104OSM    C1510535   4.686   4.149  10.787  0.0868  0.1002  0.0634
  104OSM   H15A10536   4.783   4.110  10.815  0.9378  2.9221  1.1987
  104OSM   H15B10537   4.699   4.246  10.741  1.2064  0.6143  1.4339
  104OSM   H15C10538   4.638   4.073  10.727  0.5254 -1.2078  1.3324
  104OSM    C1410539   4.571   4.050  10.977 -0.4092  0.7358 -0.0032
  104OSM   H14A10540   4.546   3.969  10.910  3.8615  1.5374 -2.7118
  104OSM   H14B10541   4.493   4.048  11.052  0.4023  0.6854  0.8472
  104OSM   H14C10542   4.665   4.024  11.024 -0.7907  1.4515  1.1756
  104OSM    C1310543   4.634   4.281  10.995  0.0622  0.7255 -0.2536
  104OSM   H13A10544   4.561   4.316  11.066  0.3753  2.1826 -0.6227
  104OSM   H13B10545   4.667   4.368  10.940  1.7194 -0.7878 -1.6888
  104OSM   H13C10546   4.722   4.250  11.050 -1.1738  0.4905  1.6263
  104OSM    C1210547   4.456   4.227  10.846 -0.5816  0.7077  0.5598
  104OSM   H12A10548   4.476   4.325  10.806 -0.3282 -0.3731 -2.0747
  104OSM   H12B10549   4.390   4.254  10.927 -3.0261  0.2472 -1.2060
  104OSM    C1110550   4.372   4.148  10.747 -0.7016 -0.6331  0.3088
  104OSM   H11A10551   4.425   4.122  10.653 -1.7863  2.6983 -1.3016
  104OSM   H11B10552   4.287   4.211  10.714 -1.8833 -3.2662 -1.8053
  104OSM      P10553   4.210   3.948  10.741  0.1945 -0.0125 -0.4483
  104OSM    O1310554   4.246   3.805  10.765 -0.6712 -0.2618  0.5064
  104OSM    O1410555   4.082   4.009  10.788 -0.6208 -0.1241  0.6318
  104OSM    O1110556   4.227   3.982  10.591  0.1134  0.1109  0.6510
  104OSM    O1210557   4.323   4.029  10.809  0.6649 -0.0808  0.0354
  104OSM    C1S10558   4.142   4.072  10.523  0.8060  0.3156  0.3528
  104OSM    H1S10559   4.134   4.167  10.579 -1.8160  1.6991 -2.2499
  104OSM    H1T10560   4.044   4.019  10.521  0.8599  0.0436  2.8398
  104OSM     NF10561   4.140   4.235  10.332  0.0083 -0.3753 -0.6648
  104OSM    HNF10562   4.064   4.226  10.268  1.8257 -1.0580 -2.7787
  104OSM    C2S10563   4.195   4.107  10.383 -0.0689 -1.2122  0.0223
  104OSM    H2S10564   4.304   4.127  10.392 -0.4516  1.2624 -0.3438
  104OSM    C3S10565   4.177   3.993  10.277  0.4038  0.3230  0.2831
  104OSM    H3S10566   4.072   3.959  10.263  0.0675  1.6697 -0.5458
  104OSM     O310567   4.257   3.880  10.321  0.2654 -0.1999 -0.2315
  104OSM    HO310568   4.261   3.899  10.415  1.6593  0.2967 -0.3823
  104OSM    C4S10569   4.229   4.025  10.137  0.7596  0.7025  0.2866
  104OSM    H4S10570   4.337   4.045  10.140  0.9347 -0.3048  1.1761
  104OSM    C5S10571   4.163   4.037  10.017  0.2975  0.2369  0.4406
  104OSM    H5S10572   4.057   4.007  10.007  0.3107  0.3307 -0.0259
  104OSM    C6S10573   4.223   4.069   9.882 -0.1973  0.8647 -0.3038
  104OSM    H6S10574   4.333   4.075   9.889 -0.1816 -0.6447  1.1817
  104OSM    H6T10575   4.187   4.167   9.844  1.4246  0.8401 -1.9673
  104OSM    C7S10576   4.191   3.964   9.774  0.8231 -0.2312  0.2498
  104OSM    H7S10577   4.085   3.931   9.782  0.1804  1.1568 -1.8736
  104OSM    H7T10578   4.248   3.871   9.798 -1.4986 -1.7577  0.0207
  104OSM    C8S10579   4.240   3.996   9.631 -1.0522  0.0195  0.4508
  104OSM    H8S10580   4.238   3.907   9.565  1.5830  0.1885  0.0651
  104OSM    H8T10581   4.348   4.023   9.633 -0.1869 -3.1987  0.4851
  104OSM    C9S10582   4.157   4.103   9.564 -0.5626  0.5734  0.2889
  104OSM    H9S10583   4.162   4.199   9.621 -1.1152  0.0542  1.2238
  104OSM    H9T10584   4.051   4.072   9.574 -0.3375 -0.0800  0.6535
  104OSM   C10S10585   4.178   4.134   9.418  0.1685  0.2580  0.2098
  104OSM   H10S10586   4.220   4.052   9.355 -1.5994  0.1249 -0.8436
  104OSM   H10T10587   4.246   4.221   9.424  0.5231 -0.0105  0.0899
  104OSM   C11S10588   4.055   4.181   9.349 -0.6242  0.3156  0.1721
  104OSM   H11S10589   4.009   4.261   9.411 -0.8658  2.1525 -2.2966
  104OSM   H11T10590   3.980   4.099   9.351  0.6038 -0.8339 -0.5813
  104OSM   C12S10591   4.082   4.244   9.216 -0.3885 -0.2096  0.0503
  104OSM   H12S10592   4.173   4.308   9.221  0.7038 -1.8489  1.5220
  104OSM   H12T10593   3.993   4.299   9.180 -0.6060  0.0049  0.9177
  104OSM   C13S10594   4.116   4.138   9.112 -0.4835 -0.0036  0.4059
  104OSM   H13S10595   4.045   4.053   9.124 -0.7753 -0.0521 -1.5087
  104OSM   H13T10596   4.214   4.093   9.140 -1.0589 -1.2698  0.4157
  104OSM   C14S10597   4.111   4.181   8.965  0.1012 -0.1085  1.0725
  104OSM   H14S10598   4.207   4.231   8.938 -0.0573  0.0268  0.7524
  104OSM   H14T10599   4.033   4.256   8.939  0.7703 -0.0308 -0.8072
  104OSM   C15S10600   4.093   4.056   8.871  1.0681  0.3605  0.1030
  104OSM   H15S10601   3.990   4.015   8.884  1.2462 -0.0789  0.1407
  104OSM   H15T10602   4.168   3.985   8.912  2.2845  1.9220  0.6011
  104OSM   C16S10603   4.111   4.087   8.726  1.6970  0.4718  0.3045
  104OSM   H16S10604   4.132   3.991   8.675  0.0388 -0.0726  0.6304
  104OSM   H16T10605   4.202   4.145   8.698  1.3006  0.0275 -1.9268
  104OSM   C17S10606   3.982   4.137   8.661 -0.7588  0.0578  0.1989
  104OSM   H17S10607   4.007   4.233   8.611  0.3564 -0.3771 -0.0955
  104OSM   H17T10608   3.904   4.150   8.740  1.3635 -0.2198  2.4122
  104OSM   C18S10609   3.922   4.038   8.556 -0.7165  0.0539 -0.2961
  104OSM   H18S10610   3.822   4.072   8.523 -0.7307 -0.4314 -0.7493
  104OSM   H18T10611   3.908   3.940   8.606 -0.8776 -0.7128 -1.8327
  104OSM   H18U10612   3.990   4.022   8.469 -0.1485  0.0601  0.1372
  104OSM    C1F10613   4.164   4.348  10.389  1.0511 -0.7924 -0.3261
  104OSM     OF10614   4.243   4.350  10.480 -0.3803 -0.6138  0.1582
  104OSM    C2F10615   4.083   4.462  10.339 -0.1646 -0.2410  0.3762
  104OSM    H2F10616   4.024   4.511  10.419 -0.8660 -1.1336  0.4053
  104OSM    H2G10617   4.021   4.428  10.253 -2.0761  0.4736  1.4365
  104OSM    C3F10618   4.184   4.577  10.306 -0.0110  0.2366  0.6381
  104OSM    H3F10619   4.243   4.599  10.397 -1.8702  2.0161  1.4554
  104OSM    H3G10620   4.121   4.669  10.302 -1.7594 -0.9797 -0.4519
  104OSM    C4F10621   4.261   4.570  10.171 -0.1371  0.4914 -0.6114
  104OSM    H4F10622   4.336   4.487  10.174 -0.6952  0.0144  0.7945
  104OSM    H4G10623   4.327   4.658  10.151 -0.1204  0.9846  1.4638
  104OSM    C5F10624   4.165   4.557  10.052 -0.8534 -0.2080 -0.3488
  104OSM    H5F10625   4.085   4.633  10.058 -0.5906 -0.0174  0.8266
  104OSM    H5G10626   4.109   4.461  10.065  0.3933 -0.7429  1.2478
  104OSM    C6F10627   4.237   4.567   9.915  0.2512 -0.2049 -0.9340
  104OSM    H6F10628   4.336   4.515   9.919  1.2030  1.6687  0.8621
  104OSM    H6G10629   4.258   4.675   9.903 -1.0969  0.1790  0.0112
  104OSM    C7F10630   4.148   4.524   9.795  0.1932  0.2972 -0.2347
  104OSM    H7F10631   4.073   4.606   9.804  0.6102  0.6290  0.2453
  104OSM    H7G10632   4.098   4.427   9.814  1.9378 -0.3240  1.3884
  104OSM    C8F10633   4.221   4.539   9.658 -0.5065 -0.7383  0.1074
  104OSM    H8F10634   4.301   4.464   9.644 -1.0686 -0.8812 -2.7378
  104OSM    H8G10635   4.258   4.643   9.652 -2.6205  0.0109 -0.5805
  104OSM    C9F10636   4.128   4.526   9.542 -0.3065  0.2685 -0.0504
  104OSM    H9F10637   4.031   4.479   9.566 -1.4080  2.1365 -0.8240
  104OSM   C10F10638   4.149   4.551   9.409  0.0694  0.5439  0.0594
  104OSM   H10F10639   4.071   4.533   9.333  0.7896  0.0251 -0.5641
  104OSM   C11F10640   4.277   4.602   9.361  0.0820  0.2047  0.5645
  104OSM   H11F10641   4.348   4.637   9.438  0.9012  1.4298 -0.7319
  104OSM   H11G10642   4.258   4.702   9.318 -0.0606  0.7965  1.9901
  104OSM   C12F10643   4.359   4.518   9.270  0.6018  1.1020 -0.7511
  104OSM   H12F10644   4.368   4.410   9.296 -1.0591  1.4402  1.3744
  104OSM   H12G10645   4.464   4.555   9.268  0.9260  0.4351  1.6479
  104OSM   C13F10646   4.304   4.526   9.126  0.0475 -0.4217 -0.2625
  104OSM   H13F10647   4.238   4.614   9.113 -0.1559 -0.4883  0.3019
  104OSM   H13G10648   4.235   4.441   9.107  0.5283 -1.0931  0.9410
  104OSM   C14F10649   4.428   4.516   9.019 -0.6490 -0.3177 -0.7043
  104OSM   H14F10650   4.480   4.419   9.034  2.1606  0.9157 -2.0198
  104OSM   H14G10651   4.493   4.604   9.037 -1.0178 -0.2227  0.1916
  104OSM   C15F10652   4.387   4.518   8.871 -0.8162  0.3492  0.1121
  104OSM   H15F10653   4.346   4.620   8.856  0.3984  0.8962  0.4060
  104OSM   H15G10654   4.304   4.452   8.840 -0.1931 -0.4169  0.0468
  104OSM   C16F10655   4.509   4.508   8.787 -0.5164 -0.0124 -0.4916
  104OSM   H16F10656   4.558   4.408   8.794 -0.2957  0.3039  3.9096
  104OSM   H16G10657   4.580   4.580   8.833 -0.7284  0.3781 -0.7750
  104OSM   C17F10658   4.497   4.555   8.640  0.1894  0.4221  0.6510
  104OSM   H17F10659   4.592   4.553   8.584  1.2891  3.3397  2.2957
  104OSM   H17G10660   4.453   4.658   8.640 -0.0295  0.3454 -0.9948
  104OSM   C18F10661   4.406   4.464   8.557  0.3741 -0.0346  0.6483
  104OSM   H18F10662   4.386   4.505   8.456 -3.2478 -2.7021  0.1677
  104OSM   H18G10663   4.304   4.450   8.600  1.3572 -1.1483  2.7187
  104OSM   H18H10664   4.451   4.364   8.537  0.3114  0.2257 -0.7989
  105OSM      N10665   3.569   4.027  10.733 -0.3973  0.2788  0.6111
  105OSM    C1510666   3.486   3.915  10.683  0.1254 -0.0062  0.1606
  105OSM   H15A10667   3.389   3.916  10.732 -0.4400  0.3570 -0.9524
  105OSM   H15B10668   3.537   3.822  10.702  2.1628  1.1270  0.3307
  105OSM   H15C10669   3.469   3.916  10.576  1.2452  0.0035 -0.0160
  105OSM    C1410670   3.513   4.165  10.714  0.4257  0.5284 -0.0545
  105OSM   H14A10671   3.485   4.187  10.612  0.6351  0.6801 -0.0794
  105OSM   H14B10672   3.597   4.229  10.737  2.0945 -1.9756  1.1069
  105OSM   H14C10673   3.426   4.177  10.776  0.0335  0.3922 -0.5778
  105OSM    C1310674   3.604   3.986  10.874 -0.1528 -0.1552  0.6547
  105OSM   H13A10675   3.674   4.050  10.926 -0.0570 -1.2487  1.8869
  105OSM   H13B10676   3.659   3.894  10.859  0.3127  0.2495 -0.1590
  105OSM   H13C10677   3.523   3.983  10.944  1.0721  1.0876  2.1711
  105OSM    C1210678   3.692   4.006  10.648  0.1315  0.3296 -0.2561
  105OSM   H12A10679   3.770   4.067  10.691 -0.9902  1.9691 -0.4918
  105OSM   H12B10680   3.686   4.058  10.554 -0.6904  0.9918  0.1634
  105OSM    C1110681   3.743   3.863  10.613  0.5473  0.2995  0.0031
  105OSM   H11A10682   3.848   3.879  10.578  0.1640  1.4703 -0.6283
  105OSM   H11B10683   3.680   3.824  10.530 -3.4882  0.9681  2.6478
  105OSM      P10684   3.733   3.609  10.693 -0.0197 -0.4199 -0.0568
  105OSM    O1310685   3.819   3.544  10.791 -0.2937  0.2655  0.4026
  105OSM    O1410686   3.590   3.569  10.689  0.5004 -0.2008 -0.5587
  105OSM    O1110687   3.798   3.593  10.550  0.1611 -0.3927 -0.3162
  105OSM    O1210688   3.746   3.766  10.722 -0.0372 -0.5046 -0.1571
  105OSM    C1S10689   3.946   3.599  10.545  0.3674 -0.0762  0.0666
  105OSM    H1S10690   3.991   3.515  10.603 -2.9862 -1.7897  0.3311
  105OSM    H1T10691   3.993   3.698  10.564  0.1237 -0.3663  2.3636
  105OSM     NF10692   4.146   3.577  10.404 -0.6360  0.0257  0.8129
  105OSM    HNF10693   4.183   3.661  10.363 -1.7704 -0.5935 -1.5564
  105OSM    C2S10694   4.008   3.565  10.407  0.4345  0.2534  0.1122
  105OSM    H2S10695   3.978   3.461  10.386 -0.2139  0.7333 -1.3739
  105OSM    C3S10696   3.942   3.652  10.296 -0.7553 -0.5557  0.0990
  105OSM    H3S10697   3.981   3.756  10.307 -0.5512 -0.6353  0.1142
  105OSM     O310698   3.800   3.681  10.312 -0.5181 -0.3741  0.2071
  105OSM    HO310699   3.781   3.666  10.404 -0.1652 -2.6253 -0.0698
  105OSM    C4S10700   3.990   3.610  10.159  0.4065  0.1148  0.0828
  105OSM    H4S10701   4.092   3.645  10.141  0.7628 -0.4034  1.0721
  105OSM    C5S10702   3.920   3.551  10.060 -0.5969 -0.3158 -0.1898
  105OSM    H5S10703   3.811   3.535  10.065 -1.2676  3.5117 -0.9289
  105OSM    C6S10704   3.990   3.509   9.934 -0.0049  0.2327  0.9805
  105OSM    H6S10705   3.954   3.412   9.896 -0.0318  0.4558  0.4246
  105OSM    H6T10706   4.100   3.500   9.950  0.2748  1.9787  0.1675
  105OSM    C7S10707   3.972   3.614   9.816  0.4792  0.1654  0.1568
  105OSM    H7S10708   4.018   3.713   9.839  0.2340  0.1427  0.7400
  105OSM    H7T10709   3.861   3.617   9.814  0.4928  1.2487  0.7031
  105OSM    C8S10710   4.042   3.557   9.692 -0.4884 -0.1527  0.2440
  105OSM    H8S10711   3.997   3.459   9.665  2.2155 -1.2680 -0.3506
  105OSM    H8T10712   4.148   3.542   9.722  0.5746  1.1234 -2.7476
  105OSM    C9S10713   4.038   3.643   9.567 -0.0259  0.0376 -0.1511
  105OSM    H9S10714   4.078   3.744   9.590 -0.4455  0.0159  0.6791
  105OSM    H9T10715   3.932   3.652   9.536 -0.4531 -1.4851  0.8341
  105OSM   C10S10716   4.109   3.588   9.445 -0.4789  0.5580 -0.6045
  105OSM   H10S10717   4.077   3.483   9.429  0.4538  0.0570  0.7488
  105OSM   H10T10718   4.217   3.577   9.472 -1.1665 -1.8414  1.3062
  105OSM   C11S10719   4.093   3.678   9.318 -0.1207  0.0908 -0.1460
  105OSM   H11S10720   4.157   3.767   9.338  1.9778 -1.2704 -0.5752
  105OSM   H11T10721   3.983   3.691   9.321 -0.2065 -0.5658 -0.2852
  105OSM   C12S10722   4.151   3.609   9.193 -0.0006 -0.2422  0.6361
  105OSM   H12S10723   4.101   3.510   9.182 -0.0056  0.0847 -3.0041
  105OSM   H12T10724   4.260   3.590   9.200  0.0237  0.2861  1.7067
  105OSM   C13S10725   4.123   3.688   9.062  0.6471 -0.2387  0.7492
  105OSM   H13S10726   4.178   3.784   9.060  0.4715 -0.1405  0.5967
  105OSM   H13T10727   4.014   3.711   9.066  0.5776 -0.2857 -0.5838
  105OSM   C14S10728   4.154   3.591   8.945  0.8159 -0.2443  0.3489
  105OSM   H14S10729   4.092   3.498   8.948  0.1799  0.1777  0.4868
  105OSM   H14T10730   4.259   3.561   8.964  1.3770  1.1220 -0.5423
  105OSM   C15S10731   4.147   3.661   8.811 -0.5554 -0.1115 -0.1121
  105OSM   H15S10732   4.204   3.755   8.823 -0.7345  0.0885 -0.7966
  105OSM   H15T10733   4.044   3.702   8.806 -1.6469 -2.3248  2.6124
  105OSM   C16S10734   4.199   3.582   8.695 -0.3547 -0.2886 -0.4663
  105OSM   H16S10735   4.146   3.484   8.686  0.6080 -0.7410 -1.2715
  105OSM   H16T10736   4.305   3.570   8.726  0.1776  2.5522 -1.0998
  105OSM   C17S10737   4.204   3.651   8.561 -0.3188  0.0259 -0.4438
  105OSM   H17S10738   4.244   3.754   8.568  0.6129 -0.2838 -1.1519
  105OSM   H17T10739   4.100   3.660   8.524 -1.1894 -0.1396  1.8458
  105OSM   C18S10740   4.290   3.561   8.464  0.0502 -0.5320 -0.0714
  105OSM   H18S10741   4.395   3.544   8.498  0.6370 -1.0829 -2.0858
  105OSM   H18T10742   4.284   3.616   8.367 -0.4617  1.6648  1.1678
  105OSM   H18U10743   4.242   3.463   8.444 -0.5247 -0.0248 -1.2082
  105OSM    C1F10744   4.229   3.484  10.466  0.4749  0.1967  0.3580
  105OSM     OF10745   4.186   3.379  10.517 -0.6538  0.0888  0.3811
  105OSM    C2F10746   4.378   3.517  10.464  0.2612 -0.0857 -0.2063
  105OSM    H2F10747   4.425   3.454  10.543  2.9758  0.8390 -1.0584
  105OSM    H2G10748   4.383   3.627  10.476  0.8583  0.2006 -2.9105
  105OSM    C3F10749   4.447   3.488  10.328  0.0753 -0.0987 -0.2851
  105OSM    H3F10750   4.444   3.379  10.303 -1.4628 -0.1393  0.0181
  105OSM    H3G10751   4.549   3.530  10.342 -0.7538  1.5786  0.8220
  105OSM    C4F10752   4.387   3.566  10.210 -0.0007 -0.1623 -0.7390
  105OSM    H4F10753   4.374   3.673  10.237  2.3065 -0.0537  0.1299
  105OSM    H4G10754   4.284   3.530  10.191  0.6294 -1.9415 -0.8946
  105OSM    C5F10755   4.469   3.566  10.086 -0.3711  0.6616  0.9237
  105OSM    H5F10756   4.511   3.466  10.064 -2.1089 -0.0606  0.7577
  105OSM    H5G10757   4.553   3.631  10.118  0.3462 -0.5750  1.5954
  105OSM    C6F10758   4.410   3.633   9.956 -0.2855 -1.1153 -0.4201
  105OSM    H6F10759   4.363   3.732   9.968  0.7989 -0.8004  1.5728
  105OSM    H6G10760   4.324   3.570   9.924 -2.2567  1.3854 -0.2245
  105OSM    C7F10761   4.502   3.630   9.832  0.1083  0.6213 -0.6891
  105OSM    H7F10762   4.566   3.539   9.825  1.2213  1.4372 -1.3551
  105OSM    H7G10763   4.564   3.721   9.842  1.3641  0.0005 -2.5194
  105OSM    C8F10764   4.408   3.630   9.712  0.2418 -0.9881 -0.1209
  105OSM    H8F10765   4.325   3.703   9.720  1.5147  0.3409  1.2398
  105OSM    H8G10766   4.352   3.534   9.702 -2.6278  0.8143 -1.8587
  105OSM    C9F10767   4.463   3.667   9.576 -0.4449  0.3974 -0.3397
  105OSM    H9F10768   4.473   3.775   9.558 -0.2127 -0.0013 -2.7828
  105OSM   C10F10769   4.504   3.575   9.480  0.0718 -0.1075  0.2792
  105OSM   H10F10770   4.540   3.617   9.385  3.7891  0.0392  1.6669
  105OSM   C11F10771   4.501   3.427   9.481 -0.2218 -0.4279 -0.2067
  105OSM   H11F10772   4.455   3.384   9.573  1.3840  2.6812  2.1190
  105OSM   H11G10773   4.600   3.377   9.475 -1.3612 -2.9333  0.9723
  105OSM   C12F10774   4.424   3.377   9.360  0.4160  0.7452  0.2014
  105OSM   H12F10775   4.319   3.413   9.365  0.1231 -0.1311  0.4778
  105OSM   H12G10776   4.412   3.267   9.366  1.4259  0.5840 -0.7183
  105OSM   C13F10777   4.488   3.413   9.227 -0.8561  0.1612 -0.0755
  105OSM   H13F10778   4.593   3.377   9.219 -0.3397  1.1849  1.8816
  105OSM   H13G10779   4.485   3.523   9.208  0.4308  0.1205 -0.5954
  105OSM   C14F10780   4.411   3.334   9.117  0.3021 -0.5951 -0.0881
  105OSM   H14F10781   4.304   3.361   9.110  0.6688  0.9551  0.1562
  105OSM   H14G10782   4.402   3.230   9.155  3.1576 -0.0108  2.3347
  105OSM   C15F10783   4.477   3.326   8.983  0.2404 -0.5956  0.6798
  105OSM   H15F10784   4.572   3.271   8.996  1.1531  0.7231 -0.2627
  105OSM   H15G10785   4.498   3.431   8.950 -0.7971 -0.0937  1.5694
  105OSM   C16F10786   4.394   3.248   8.876  0.2696  0.2248  0.4140
  105OSM   H16F10787   4.294   3.295   8.876 -1.0972 -2.5260 -2.0192
  105OSM   H16G10788   4.380   3.141   8.902  0.4683  0.2255  0.5246
  105OSM   C17F10789   4.447   3.250   8.735  0.2227  0.5851  0.2645
  105OSM   H17F10790   4.450   3.360   8.717 -0.5426  0.6165  0.2887
  105OSM   H17G10791   4.376   3.208   8.661 -0.9273  1.8159  0.6449
  105OSM   C18F10792   4.588   3.186   8.719 -0.7217 -0.0814 -0.1473
  105OSM   H18F10793   4.668   3.263   8.721 -1.7257  0.9785 -0.2993
  105OSM   H18G10794   4.607   3.127   8.627  1.9772 -1.2521  1.1323
  105OSM   H18H10795   4.609   3.113   8.800  0.6466 -0.1843 -0.6003
  106OSM      N10796   5.285   1.901  10.976 -0.4464 -0.5102 -0.7929
  106OSM    C1510797   5.380   1.889  11.084  0.4221  0.1156  0.3228
  106OSM   H15A10798   5.412   1.786  11.093 -0.6398 -0.5780 -3.0045
  106OSM   H15B10799   5.341   1.903  11.183  0.2616 -1.4210  0.4846
  106OSM   H15C10800   5.470   1.946  11.068  1.2337 -0.8388  1.4689
  106OSM    C1410801   5.166   1.833  11.026 -0.3962  0.3304  0.3308
  106OSM   H14A10802   5.189   1.727  11.029 -0.5263  0.2657 -0.6909
  106OSM   H14B10803   5.079   1.840  10.962  0.5741 -1.0865 -1.1842
  106OSM   H14C10804   5.145   1.863  11.127  0.0047 -0.8931  0.7865
  106OSM    C1310805   5.243   2.040  10.968  0.2453 -0.4263  0.8428
  106OSM   H13A10806   5.154   2.065  10.914  0.7624  0.4942  0.4012
  106OSM   H13B10807   5.318   2.101  10.920 -0.4207 -0.8898 -0.7862
  106OSM   H13C10808   5.232   2.090  11.063  3.1534  1.3659  0.3193
  106OSM    C1210809   5.330   1.842  10.848 -0.6974  0.2460 -0.1881
  106OSM   H12A10810   5.375   1.747  10.875 -1.0688  1.0318  3.4396
  106OSM   H12B10811   5.409   1.908  10.817 -0.0911 -0.7503 -0.7791
  106OSM    C1110812   5.235   1.830  10.726  0.2398 -0.1729 -0.5377
  106OSM   H11A10813   5.297   1.768  10.658  0.9629 -0.0624  0.0174
  106OSM   H11B10814   5.209   1.935  10.702 -0.3083 -0.2815 -0.4122
  106OSM      P10815   5.092   1.605  10.743  0.1035  0.4048 -0.0649
  106OSM    O1310816   5.204   1.536  10.804  0.1174  0.3710  0.0873
  106OSM    O1410817   4.953   1.577  10.787 -0.3086  0.4275 -0.0919
  106OSM    O1110818   5.099   1.586  10.587  0.1924  0.3045 -0.4158
  106OSM    O1210819   5.110   1.761  10.760 -0.5952  0.1754  0.5597
  106OSM    C1S10820   5.073   1.692  10.492  0.5043 -0.4119  0.5771
  106OSM    H1S10821   5.131   1.786  10.502  0.7092 -0.3354 -1.1013
  106OSM    H1T10822   4.966   1.718  10.506  0.2805 -0.9458 -0.0752
  106OSM     NF10823   5.053   1.759  10.253 -0.3315 -0.3578 -0.3132
  106OSM    HNF10824   4.995   1.735  10.175  0.4872  1.2296 -1.4408
  106OSM    C2S10825   5.088   1.650  10.343  0.1039 -0.0573 -0.3175
  106OSM    H2S10826   5.194   1.620  10.327 -0.9064 -3.1541 -1.7383
  106OSM    C3S10827   5.005   1.521  10.311 -0.2022 -0.8319 -0.4339
  106OSM    H3S10828   4.896   1.539  10.304 -0.3235 -1.5698 -0.4537
  106OSM     O310829   5.024   1.413  10.400 -0.4488  0.0987 -0.3477
  106OSM    HO310830   5.063   1.455  10.477 -0.6333  2.3643 -1.4299
  106OSM    C4S10831   5.049   1.477  10.172 -0.4202  0.2636 -0.0987
  106OSM    H4S10832   5.159   1.473  10.160 -0.5982 -0.2975 -1.6129
  106OSM    C5S10833   4.969   1.449  10.069  0.8718  0.7573 -0.0924
  106OSM    H5S10834   4.864   1.473  10.089  0.4115 -1.2758  0.0892
  106OSM    C6S10835   5.000   1.407   9.928  0.2913 -0.2558 -0.0514
  106OSM    H6S10836   4.915   1.378   9.862  0.3122  1.4600 -0.8493
  106OSM    H6T10837   5.056   1.311   9.929  0.7812  0.0213 -0.6163
  106OSM    C7S10838   5.079   1.501   9.841  0.0050  0.8043 -0.3606
  106OSM    H7S10839   5.169   1.541   9.893 -1.0693  1.8325  0.7559
  106OSM    H7T10840   5.027   1.596   9.814 -1.8679  0.5961  2.3122
  106OSM    C8S10841   5.127   1.454   9.708  0.9335  1.4571 -0.1839
  106OSM    H8S10842   5.045   1.465   9.634  2.8379  0.2887 -2.5198
  106OSM    H8T10843   5.165   1.350   9.712  0.6761  1.4134  2.5439
  106OSM    C9S10844   5.245   1.542   9.660  0.2726 -0.2913 -0.7064
  106OSM    H9S10845   5.325   1.521   9.735 -3.0553 -2.3175  2.4533
  106OSM    H9T10846   5.213   1.648   9.668 -1.8971 -1.0328  1.0921
  106OSM   C10S10847   5.281   1.524   9.515  0.3875  0.0481  0.5941
  106OSM   H10S10848   5.379   1.574   9.497  0.1159  0.7892  1.1480
  106OSM   H10T10849   5.205   1.555   9.439 -0.1561 -0.6394  0.8554
  106OSM   C11S10850   5.315   1.380   9.464 -0.3295  0.0277 -0.1350
  106OSM   H11S10851   5.220   1.321   9.463  0.5679 -1.4358 -1.4712
  106OSM   H11T10852   5.396   1.344   9.531 -0.6869 -3.6743 -1.5512
  106OSM   C12S10853   5.367   1.372   9.323  0.1936  0.4154 -0.2829
  106OSM   H12S10854   5.443   1.451   9.305  1.8149 -1.0270  0.1700
  106OSM   H12T10855   5.285   1.392   9.251 -0.1104 -1.4177 -0.4681
  106OSM   C13S10856   5.426   1.234   9.290  0.3784 -0.1419  0.2786
  106OSM   H13S10857   5.352   1.153   9.306  0.4701 -1.0639 -3.5380
  106OSM   H13T10858   5.515   1.216   9.355  0.4001 -1.4801 -0.1000
  106OSM   C14S10859   5.454   1.210   9.137 -0.0942 -0.4531  0.0520
  106OSM   H14S10860   5.357   1.192   9.086  0.3483 -0.1264 -0.9298
  106OSM   H14T10861   5.509   1.113   9.133  1.8464  0.5832  0.6309
  106OSM   C15S10862   5.539   1.312   9.068 -0.3464  0.2893  0.2057
  106OSM   H15S10863   5.615   1.337   9.145 -0.2491  1.0984 -0.1503
  106OSM   H15T10864   5.494   1.411   9.046 -3.7636 -0.8210  1.7017
  106OSM   C16S10865   5.608   1.254   8.944 -0.6716  0.1186  0.0976
  106OSM   H16S10866   5.527   1.224   8.874 -2.1297 -0.4621  1.9867
  106OSM   H16T10867   5.662   1.161   8.969  1.7345  0.9983 -1.5767
  106OSM   C17S10868   5.700   1.342   8.869 -0.0613 -0.7793  0.3318
  106OSM   H17S10869   5.769   1.384   8.945  3.5339 -0.8212 -2.7702
  106OSM   H17T10870   5.649   1.432   8.828  1.6656 -0.4022 -1.0483
  106OSM   C18S10871   5.785   1.284   8.756 -0.2648  0.3295 -0.0051
  106OSM   H18S10872   5.845   1.199   8.795 -1.8800 -0.6822  0.2903
  106OSM   H18T10873   5.856   1.359   8.713  0.4959 -0.4144 -0.0535
  106OSM   H18U10874   5.714   1.247   8.679  1.5472 -2.3816 -0.4303
  106OSM    C1F10875   5.093   1.885  10.260  0.1798 -0.1018 -0.2096
  106OSM     OF10876   5.191   1.924  10.321 -0.1273  0.1802 -0.0208
  106OSM    C2F10877   5.029   1.978  10.161  0.2242  0.0833  0.6142
  106OSM    H2F10878   4.979   2.049  10.231 -0.8439 -1.7346  1.7183
  106OSM    H2G10879   4.951   1.927  10.101  1.1129  0.2929 -0.7414
  106OSM    C3F10880   5.133   2.045  10.069  0.3461 -0.4427 -0.2021
  106OSM    H3F10881   5.196   2.119  10.124  0.4570  1.0005 -2.2103
  106OSM    H3G10882   5.075   2.106   9.997  1.1594 -0.2392 -0.6827
  106OSM    C4F10883   5.226   1.946   9.994  0.0943  0.1336  0.0189
  106OSM    H4F10884   5.186   1.842   9.985  1.5165 -0.5256  1.0694
  106OSM    H4G10885   5.319   1.938  10.054 -0.2833 -1.4287  0.4302
  106OSM    C5F10886   5.259   2.009   9.854 -0.6717  0.1440 -0.0774
  106OSM    H5F10887   5.294   2.114   9.866 -1.4697  0.3395  0.5454
  106OSM    H5G10888   5.160   2.016   9.806 -0.2130  1.6930 -0.8541
  106OSM    C6F10889   5.358   1.932   9.763 -0.1726 -0.0290  0.1476
  106OSM    H6F10890   5.321   1.828   9.754 -0.2676 -0.2952  3.2309
  106OSM    H6G10891   5.455   1.942   9.816 -0.2179 -0.5763  0.3311
  106OSM    C7F10892   5.371   2.003   9.621 -0.2239  0.5067 -0.9470
  106OSM    H7F10893   5.422   2.100   9.636 -0.8959  1.0174 -1.9315
  106OSM    H7G10894   5.266   2.017   9.587 -0.3061 -0.3310 -1.0606
  106OSM    C8F10895   5.429   1.911   9.518  0.1538 -0.0836 -0.1565
  106OSM    H8F10896   5.387   1.808   9.519  0.1533 -0.0845  1.5347
  106OSM    H8G10897   5.537   1.905   9.541 -0.0652  1.1074  1.2239
  106OSM    C9F10898   5.424   1.969   9.385 -0.4926  0.5862 -0.2042
  106OSM    H9F10899   5.512   2.001   9.328  0.3991 -2.2380 -0.4311
  106OSM   C10F10900   5.312   1.973   9.312 -0.0982 -0.4241 -0.4827
  106OSM   H10F10901   5.311   2.033   9.219 -0.9869  1.7109  0.8635
  106OSM   C11F10902   5.170   1.927   9.344 -1.1787  0.7613  0.2690
  106OSM   H11F10903   5.146   1.981   9.438  0.5947  2.8069 -0.3823
  106OSM   H11G10904   5.174   1.817   9.356  2.1806  0.7416 -0.2726
  106OSM   C12F10905   5.067   1.964   9.238  0.0986  0.6345 -0.3012
  106OSM   H12F10906   5.076   2.066   9.196 -0.8585 -0.2802 -2.7846
  106OSM   H12G10907   4.970   1.966   9.293 -0.0096  0.1649 -0.4795
  106OSM   C13F10908   5.065   1.856   9.123 -0.8367 -0.1549 -0.5124
  106OSM   H13F10909   5.072   1.753   9.164 -1.0053  0.4092  0.9668
  106OSM   H13G10910   5.153   1.890   9.065 -0.2384 -0.2804  0.3067
  106OSM   C14F10911   4.938   1.870   9.034 -0.2064  0.5804  0.1245
  106OSM   H14F10912   4.964   1.953   8.964  2.1066 -0.3164 -0.1333
  106OSM   H14G10913   4.850   1.888   9.098 -0.5705  2.0723 -0.7643
  106OSM   C15F10914   4.916   1.752   8.936  0.4511 -0.1684  0.8322
  106OSM   H15F10915   4.902   1.654   8.987 -1.7990 -0.3048  0.0227
  106OSM   H15G10916   5.006   1.744   8.872  0.5396  0.8607  0.8318
  106OSM   C16F10917   4.797   1.760   8.833  0.1532 -0.0368  0.4858
  106OSM   H16F10918   4.834   1.846   8.774  0.9009  0.0396  1.0639
  106OSM   H16G10919   4.702   1.783   8.886 -0.4408 -2.0100  0.3252
  106OSM   C17F10920   4.785   1.634   8.746  0.7575 -0.9110 -0.3742
  106OSM   H17F10921   4.777   1.544   8.811 -0.5618  0.9916  2.2154
  106OSM   H17G10922   4.879   1.629   8.687  0.5426 -2.2202 -0.6174
  106OSM   C18F10923   4.679   1.637   8.643 -0.7628 -0.5106 -0.7621
  106OSM   H18F10924   4.696   1.719   8.569  1.4295 -0.1455  0.1189
  106OSM   H18G10925   4.582   1.669   8.685  0.7607  3.0301  0.2243
  106OSM   H18H10926   4.672   1.538   8.593  1.9783 -1.4205  0.5307
  107OSM      N10927   5.782   6.776  10.952  0.7147 -0.3626  0.6667
  107OSM    C1510928   5.668   6.862  10.945  0.2162  0.1423 -0.0100
  107OSM   H15A10929   5.678   6.917  10.852  0.1118 -0.0689 -0.1453
  107OSM   H15B10930   5.652   6.935  11.023 -1.1658 -0.8081  0.5988
  107OSM   H15C10931   5.580   6.801  10.937 -1.4495  2.4498  0.0656
  107OSM    C1410932   5.904   6.859  10.953 -0.1297  0.0335 -0.3288
  107OSM   H14A10933   5.994   6.816  10.992  0.2504  0.9573 -0.1664
  107OSM   H14B10934   5.894   6.944  11.020 -1.6901 -0.3031 -0.1129
  107OSM   H14C10935   5.918   6.903  10.855 -0.6251 -0.9715 -0.8617
  107OSM    C1310936   5.768   6.715  11.085 -0.0964 -0.5552 -0.4144
  107OSM   H13A10937   5.672   6.665  11.096 -2.5333  3.6920 -1.1226
  107OSM   H13B10938   5.776   6.787  11.165  0.8976  0.4076 -1.3677
  107OSM   H13C10939   5.847   6.649  11.116  0.5117  0.2216 -0.2944
  107OSM    C1210940   5.778   6.673  10.843 -0.4819  0.3515 -0.0294
  107OSM   H12A10941   5.791   6.718  10.745 -1.5564  2.3555  0.7256
  107OSM   H12B10942   5.678   6.632  10.851 -0.1612 -0.5400 -0.4820
  107OSM    C1110943   5.888   6.562  10.860 -0.0960 -0.1515 -0.8846
  107OSM   H11A10944   5.979   6.625  10.846 -0.5985  0.4577 -1.4892
  107OSM   H11B10945   5.883   6.492  10.774  0.6910 -0.7838 -0.4243
  107OSM      P10946   6.018   6.452  11.064  0.0230  0.1629 -0.2543
  107OSM    O1310947   6.047   6.576  11.146  0.1760  0.4227 -0.1155
  107OSM    O1410948   5.993   6.330  11.141  1.0738  0.1839 -0.2017
  107OSM    O1110949   6.128   6.437  10.949  0.6206  0.4944 -0.0033
  107OSM    O1210950   5.892   6.488  10.983  0.1618 -0.0548 -0.4290
  107OSM    C1S10951   6.118   6.316  10.869 -0.8051  0.0545 -0.6341
  107OSM    H1S10952   6.015   6.290  10.836 -0.3578 -1.1036 -1.1578
  107OSM    H1T10953   6.147   6.220  10.917 -1.9594  0.8109  1.6257
  107OSM     NF10954   6.169   6.216  10.656  0.0381 -0.2172  0.3935
  107OSM    HNF10955   6.230   6.138  10.656 -2.3483 -2.1379  0.5094
  107OSM    C2S10956   6.208   6.325  10.740 -0.1403  0.2088 -0.4080
  107OSM    H2S10957   6.194   6.422  10.688 -0.4628  0.8968  0.9536
  107OSM    C3S10958   6.356   6.329  10.776 -0.1457 -0.1910  0.0457
  107OSM    H3S10959   6.391   6.237  10.827 -1.0608 -0.8610 -0.5083
  107OSM     O310960   6.387   6.422  10.878 -0.0978  0.3133  0.1875
  107OSM    HO310961   6.303   6.453  10.912 -1.2674 -0.2267 -2.1133
  107OSM    C4S10962   6.443   6.361  10.655  0.2287  0.2296  0.5572
  107OSM    H4S10963   6.453   6.270  10.594  1.5458 -0.4063  1.7106
  107OSM    C5S10964   6.500   6.481  10.611 -0.0896 -0.1926 -0.5115
  107OSM    H5S10965   6.475   6.574  10.664  2.0321  0.3759 -0.4562
  107OSM    C6S10966   6.580   6.487  10.484 -0.8545 -0.1857  0.1939
  107OSM    H6S10967   6.682   6.525  10.507  0.2860 -2.8452 -0.2937
  107OSM    H6T10968   6.531   6.559  10.415  1.9490  0.9679 -0.6890
  107OSM    C7S10969   6.615   6.358  10.406  0.5670  0.6772  1.3633
  107OSM    H7S10970   6.530   6.317  10.348  2.4678 -3.6407  1.4131
  107OSM    H7T10971   6.648   6.279  10.476  3.2333  1.2338  0.7928
  107OSM    C8S10972   6.729   6.382  10.305  0.1706  0.2059 -0.3926
  107OSM    H8S10973   6.736   6.287  10.248  1.6154  1.8101 -2.9874
  107OSM    H8T10974   6.827   6.408  10.350  1.8219 -2.0570 -2.5359
  107OSM    C9S10975   6.696   6.472  10.188  1.1562  0.3642  0.6363
  107OSM    H9S10976   6.676   6.576  10.221  1.6151  0.8499 -0.6001
  107OSM    H9T10977   6.602   6.436  10.143  1.6683  0.7503 -0.7599
  107OSM   C10S10978   6.812   6.493  10.092 -0.7347 -0.5159  0.5774
  107OSM   H10S10979   6.864   6.400  10.059  0.7780  1.1355 -1.8269
  107OSM   H10T10980   6.880   6.555  10.153 -1.9226 -1.1697  2.6111
  107OSM   C11S10981   6.769   6.578   9.969 -0.6101 -0.2156  0.3762
  107OSM   H11S10982   6.843   6.650   9.928  0.5924 -1.0073  1.1382
  107OSM   H11T10983   6.681   6.638  10.002 -2.4677 -1.0368 -2.8628
  107OSM   C12S10984   6.715   6.480   9.858  0.7064 -0.3884  0.5134
  107OSM   H12S10985   6.626   6.427   9.899  1.4824 -1.4854  0.8045
  107OSM   H12T10986   6.795   6.405   9.839  2.0946  1.4848 -1.1793
  107OSM   C13S10987   6.688   6.563   9.727 -0.4116 -0.0937 -0.2518
  107OSM   H13S10988   6.775   6.631   9.711  2.0792 -3.2220 -0.4948
  107OSM   H13T10989   6.601   6.632   9.730  0.8467  1.5016  0.8973
  107OSM   C14S10990   6.692   6.473   9.601 -0.3285  1.1359  0.4008
  107OSM   H14S10991   6.600   6.409   9.600 -1.5177  2.8149  0.1419
  107OSM   H14T10992   6.786   6.414   9.605 -0.3232  1.1776  0.9127
  107OSM   C15S10993   6.676   6.568   9.477 -0.1741 -0.7860  0.1536
  107OSM   H15S10994   6.762   6.638   9.468 -2.0097  1.7935  1.8699
  107OSM   H15T10995   6.587   6.634   9.490  0.3830 -0.1239  0.6521
  107OSM   C16S10996   6.647   6.490   9.340 -0.5581 -0.0810 -0.1479
  107OSM   H16S10997   6.544   6.450   9.329  0.6176 -2.7596 -1.9042
  107OSM   H16T10998   6.710   6.401   9.319  0.3736  1.0789 -2.3732
  107OSM   C17S10999   6.659   6.580   9.216 -0.8445 -0.5070 -0.0775
  107OSM   H17S11000   6.758   6.629   9.210 -1.1011  0.0049 -0.2173
  107OSM   H17T11001   6.582   6.660   9.230  0.1698  0.2437  1.3303
  107OSM   C18S11002   6.631   6.504   9.088  0.3116 -0.0449 -0.1495
  107OSM   H18S11003   6.522   6.485   9.091  0.3236  0.0640  1.9178
  107OSM   H18T11004   6.673   6.401   9.081 -1.8507 -0.9845  0.3444
  107OSM   H18U11005   6.666   6.565   9.002  0.1741  0.7456  0.3495
  107OSM    C1F11006   6.050   6.203  10.590 -0.2263 -0.5708 -0.2882
  107OSM     OF11007   5.962   6.286  10.605 -0.0358  0.2168 -0.7147
  107OSM    C2F11008   6.034   6.082  10.502 -0.1401  0.7050 -1.2928
  107OSM    H2F11009   6.097   6.005  10.551 -0.5526 -0.0662 -1.9655
  107OSM    H2G11010   6.072   6.106  10.400  1.2222  0.6932 -0.7996
  107OSM    C3F11011   5.888   6.025  10.503 -0.3114  0.6185 -0.1091
  107OSM    H3F11012   5.819   6.107  10.474 -1.7280 -0.8962 -1.0734
  107OSM    H3G11013   5.851   5.996  10.604 -0.1819  0.4577 -0.1083
  107OSM    C4F11014   5.871   5.912  10.400  0.0751  0.3047 -0.5372
  107OSM    H4F11015   5.763   5.885  10.400  0.9041 -3.2752 -0.5425
  107OSM    H4G11016   5.927   5.821  10.431 -0.5126 -0.2395 -1.0384
  107OSM    C5F11017   5.928   5.952  10.263 -0.3833 -0.7509 -0.2977
  107OSM    H5F11018   6.038   5.951  10.247  0.0443 -0.8060  2.3681
  107OSM    H5G11019   5.895   6.053  10.231  0.5222  0.4970  2.5313
  107OSM    C6F11020   5.874   5.869  10.147 -0.0008  0.5512  0.4058
  107OSM    H6F11021   5.763   5.866  10.152  0.0247  0.0843  0.7442
  107OSM    H6G11022   5.915   5.768  10.169  0.5592  0.8754  0.8567
  107OSM    C7F11023   5.908   5.921  10.008 -0.1832 -0.5300  0.8373
  107OSM    H7F11024   6.009   5.964   9.995  0.2780 -2.2065 -1.3840
  107OSM    H7G11025   5.839   6.008  10.008 -1.4495 -1.5163  1.5342
  107OSM    C8F11026   5.854   5.827   9.892  0.5085  0.8072  0.3511
  107OSM    H8F11027   5.766   5.773   9.934 -0.1775  1.0381 -0.7719
  107OSM    H8G11028   5.939   5.756   9.877 -0.5487 -0.3214 -0.3651
  107OSM    C9F11029   5.826   5.901   9.766  0.7283 -0.7547  0.9295
  107OSM    H9F11030   5.758   5.986   9.779  2.2361  1.1336 -2.9621
  107OSM   C10F11031   5.876   5.889   9.646 -0.3201  0.0421 -0.5707
  107OSM   H10F11032   5.861   5.960   9.564  1.8467  1.5243  0.2929
  107OSM   C11F11033   5.972   5.780   9.594  0.0472 -0.3748 -0.4502
  107OSM   H11F11034   5.950   5.688   9.652 -0.1660 -0.2229 -0.2951
  107OSM   H11G11035   6.075   5.809   9.623 -0.4327 -0.0420  0.9389
  107OSM   C12F11036   5.944   5.757   9.445 -1.1989  0.2169  0.4374
  107OSM   H12F11037   6.030   5.699   9.405 -1.6833 -0.2764  0.1120
  107OSM   H12G11038   5.945   5.854   9.391 -0.1228  1.6215  2.8973
  107OSM   C13F11039   5.819   5.684   9.412 -0.2519  0.1510 -0.0584
  107OSM   H13F11040   5.726   5.738   9.438 -1.5852 -1.2120 -1.9187
  107OSM   H13G11041   5.827   5.583   9.459  0.2029  0.5882  0.8281
  107OSM   C14F11042   5.805   5.646   9.260  0.1987 -0.2035 -0.5355
  107OSM   H14F11043   5.736   5.559   9.253 -2.2931  1.7944 -1.5900
  107OSM   H14G11044   5.903   5.613   9.221  0.0759 -1.6029  0.2753
  107OSM   C15F11045   5.735   5.755   9.175  0.4717  0.4030  0.5343
  107OSM   H15F11046   5.787   5.853   9.170  1.0738  0.1295  1.2965
  107OSM   H15G11047   5.643   5.785   9.230 -0.0309  1.2967 -0.7969
  107OSM   C16F11048   5.704   5.711   9.036  0.1816  0.1296 -0.4755
  107OSM   H16F11049   5.665   5.608   9.049 -2.0708  0.9499 -0.5898
  107OSM   H16G11050   5.801   5.695   8.984 -1.1800 -1.0628 -2.6754
  107OSM   C17F11051   5.594   5.786   8.966  0.6471  0.5097 -0.1021
  107OSM   H17F11052   5.506   5.797   9.033 -0.9874 -0.6797 -1.9642
  107OSM   H17G11053   5.562   5.733   8.874 -0.0106 -1.5317  1.2765
  107OSM   C18F11054   5.630   5.928   8.925  0.6038  0.3120 -0.4435
  107OSM   H18F11055   5.721   5.927   8.862  1.1060 -0.2473  0.2746
  107OSM   H18G11056   5.654   5.990   9.014  1.6086 -0.3410 -0.2530
  107OSM   H18H11057   5.544   5.968   8.867 -1.8834 -3.8884  0.0568
  108OSM      N11058   3.124   4.083  11.173 -1.0142 -0.1562 -0.0472
  108OSM    C1511059   3.226   4.069  11.279  0.2366  0.2533  0.4363
  108OSM   H15A11060   3.274   3.972  11.284 -2.5155 -1.1171  1.0854
  108OSM   H15B11061   3.171   4.073  11.372  0.5101  1.7489  0.5586
  108OSM   H15C11062   3.285   4.160  11.283  0.2470  0.2804 -0.3223
  108OSM    C1411063   3.010   3.994  11.221  0.1208 -0.3731 -1.0475
  108OSM   H14A11064   3.038   3.894  11.249 -0.4585 -0.2350  0.0485
  108OSM   H14B11065   2.940   3.971  11.142 -1.3795  0.1547  0.1082
  108OSM   H14C11066   2.969   4.052  11.302  3.7025 -1.4589  1.6325
  108OSM    C1311067   3.088   4.223  11.170  0.7294 -0.8881 -1.1069
  108OSM   H13A11068   3.007   4.237  11.101 -0.8126  2.1145  1.1708
  108OSM   H13B11069   3.168   4.283  11.130 -0.3406  0.8166 -0.7260
  108OSM   H13C11070   3.062   4.274  11.262 -0.6759 -0.7961 -1.5443
  108OSM    C1211071   3.189   4.047  11.045 -0.5755  0.0278  0.2342
  108OSM   H12A11072   3.256   3.964  11.060 -0.2140 -0.3092 -3.0115
  108OSM   H12B11073   3.254   4.122  11.004  0.5343 -0.9101  0.2719
  108OSM    C1111074   3.106   4.005  10.922  0.1123  0.1024 -0.4433
  108OSM   H11A11075   3.171   4.017  10.832 -1.9788  0.9601 -1.8799
  108OSM   H11B11076   3.026   4.082  10.914 -1.8151 -1.9296 -1.3207
  108OSM      P11077   3.135   3.737  10.900 -0.5725  0.0522  0.2694
  108OSM    O1311078   3.284   3.767  10.901  0.3322 -0.8752 -0.2384
  108OSM    O1411079   3.087   3.632  10.990 -0.1851 -0.1291 -0.4994
  108OSM    O1111080   3.107   3.694  10.750  0.5368  0.6296 -0.0946
  108OSM    O1211081   3.052   3.868  10.930  0.1481 -0.0478 -0.2095
  108OSM    C1S11082   3.096   3.790  10.642 -0.0045  0.0546  0.0508
  108OSM    H1S11083   3.183   3.858  10.641 -0.6152  0.8446 -0.6991
  108OSM    H1T11084   3.006   3.854  10.655  0.7731  1.3200 -0.6892
  108OSM     NF11085   3.112   3.776  10.398  0.6552  0.0571 -0.1892
  108OSM    HNF11086   3.053   3.764  10.318 -0.7692  3.4196  0.3030
  108OSM    C2S11087   3.083   3.705  10.516 -0.2622 -0.1991  0.0289
  108OSM    H2S11088   3.153   3.618  10.521  0.1027  0.1895  2.8641
  108OSM    C3S11089   2.937   3.649  10.519  0.2248  0.9950 -1.1011
  108OSM    H3S11090   2.867   3.735  10.530  0.9243  1.3264  0.9302
  108OSM     O311091   2.911   3.551  10.619 -0.2343  0.0929 -0.0473
  108OSM    HO311092   2.992   3.553  10.669  0.6379  1.0637 -1.4597
  108OSM    C4S11093   2.896   3.586  10.383 -0.2080  0.0142 -0.8188
  108OSM    H4S11094   2.957   3.504  10.343  0.7222  1.4081 -2.2818
  108OSM    C5S11095   2.811   3.638  10.298 -0.0263  0.2452  0.0081
  108OSM    H5S11096   2.765   3.734  10.328 -1.5841 -0.5424  0.1932
  108OSM    C6S11097   2.799   3.577  10.159  0.4184 -0.2390 -0.5891
  108OSM    H6S11098   2.842   3.475  10.150  1.4155 -0.0626  1.8527
  108OSM    H6T11099   2.848   3.647  10.089 -0.8305  2.3392  1.0475
  108OSM    C7S11100   2.642   3.562  10.124  0.1464  0.4760  0.0191
  108OSM    H7S11101   2.587   3.651  10.160  1.4450  0.3193  2.5100
  108OSM    H7T11102   2.603   3.481  10.189  0.9705 -0.2573 -0.3875
  108OSM    C8S11103   2.613   3.518   9.980 -0.7909 -0.2345  0.1415
  108OSM    H8S11104   2.503   3.510   9.964 -0.7570 -1.8053  0.6203
  108OSM    H8T11105   2.652   3.416   9.961  0.4683  0.6822 -2.6224
  108OSM    C9S11106   2.685   3.610   9.875  0.0911  0.5214  0.4390
  108OSM    H9S11107   2.795   3.602   9.893  0.6526  0.7087 -2.6429
  108OSM    H9T11108   2.672   3.719   9.892  1.8146  0.8777 -0.3962
  108OSM   C10S11109   2.666   3.553   9.736  0.1469  0.2072  0.3595
  108OSM   H10S11110   2.662   3.443   9.725 -1.2490  0.3959 -1.2194
  108OSM   H10T11111   2.748   3.590   9.671 -0.3240 -2.5214 -1.8751
  108OSM   C11S11112   2.524   3.589   9.683 -0.4079 -0.2114 -1.0025
  108OSM   H11S11113   2.503   3.676   9.748  2.2158 -1.0286  1.0151
  108OSM   H11T11114   2.450   3.510   9.709  1.7146 -1.1389  2.5339
  108OSM   C12S11115   2.509   3.628   9.540  0.6001 -0.4957  0.0509
  108OSM   H12S11116   2.563   3.724   9.524  0.2754 -0.2620  0.3351
  108OSM   H12T11117   2.401   3.641   9.517  0.5431 -1.2038 -0.0971
  108OSM   C13S11118   2.562   3.520   9.439 -0.0517 -0.6095 -0.0218
  108OSM   H13S11119   2.557   3.423   9.492 -0.4252  0.1132  1.2919
  108OSM   H13T11120   2.669   3.550   9.429 -0.7062  1.9811  0.3153
  108OSM   C14S11121   2.506   3.531   9.300  0.0471 -0.2505  0.1990
  108OSM   H14S11122   2.399   3.506   9.317  0.1402 -0.9990 -0.3242
  108OSM   H14T11123   2.548   3.456   9.230  0.5652  0.6389 -0.4552
  108OSM   C15S11124   2.527   3.675   9.251  0.3969  0.7298  1.0756
  108OSM   H15S11125   2.633   3.698   9.272  0.8089 -0.7361  0.6173
  108OSM   H15T11126   2.469   3.749   9.310 -3.2933 -0.4366 -0.9032
  108OSM   C16S11127   2.494   3.682   9.106 -0.0622 -0.7576 -0.1262
  108OSM   H16S11128   2.526   3.598   9.040 -1.1885  0.6567 -2.5440
  108OSM   H16T11129   2.536   3.774   9.061  0.9154 -1.3899 -0.5204
  108OSM   C17S11130   2.342   3.681   9.083 -0.4364 -0.4429  0.0260
  108OSM   H17S11131   2.299   3.773   9.127 -2.4361 -1.6258  0.5827
  108OSM   H17T11132   2.293   3.592   9.127  1.3246 -1.9914 -1.0258
  108OSM   C18S11133   2.314   3.657   8.933  0.5378 -0.4436 -0.4964
  108OSM   H18S11134   2.203   3.662   8.923  0.3085  0.0380  2.0435
  108OSM   H18T11135   2.342   3.554   8.905 -0.9942 -0.7264 -1.0395
  108OSM   H18U11136   2.363   3.733   8.868 -1.2085  0.9581 -0.2334
  108OSM    C1F11137   3.227   3.838  10.371  0.2294  0.4874 -0.6131
  108OSM     OF11138   3.330   3.827  10.437  0.4194 -0.6841 -0.0172
  108OSM    C2F11139   3.222   3.919  10.241  0.3390 -0.4846 -0.2042
  108OSM    H2F11140   3.213   4.024  10.277 -2.1760 -0.7621  0.0359
  108OSM    H2G11141   3.145   3.877  10.173  0.9087  1.2704 -2.0218
  108OSM    C3F11142   3.348   3.918  10.148 -0.1873  0.2856  0.4602
  108OSM    H3F11143   3.430   3.952  10.214  0.6774 -1.3594  0.2341
  108OSM    H3G11144   3.331   3.989  10.064 -0.3755  0.0941  0.3361
  108OSM    C4F11145   3.382   3.785  10.070  0.1066 -0.6205  0.4816
  108OSM    H4F11146   3.402   3.706  10.146  0.3839 -1.0423 -0.0348
  108OSM    H4G11147   3.475   3.806  10.013 -1.7669  2.7028 -1.5163
  108OSM    C5F11148   3.278   3.733   9.973  0.5725 -0.1402 -0.1696
  108OSM    H5F11149   3.180   3.710  10.020 -0.8504  0.8801 -2.5759
  108OSM    H5G11150   3.314   3.635   9.936 -2.2455 -1.3510  0.1500
  108OSM    C6F11151   3.250   3.833   9.857  0.2133 -0.1317 -0.6623
  108OSM    H6F11152   3.352   3.866   9.825  0.9197 -3.6955 -2.3215
  108OSM    H6G11153   3.205   3.929   9.889  4.0041  1.7628 -0.7453
  108OSM    C7F11154   3.177   3.781   9.738 -0.8570 -0.4873  0.1117
  108OSM    H7F11155   3.206   3.675   9.724 -2.3797 -0.5932 -2.4527
  108OSM    H7G11156   3.207   3.837   9.647  0.4401  1.1910  1.5278
  108OSM    C8F11157   3.021   3.785   9.750  0.3849 -0.1866 -0.1504
  108OSM    H8F11158   2.992   3.724   9.838 -2.2708  1.1712 -0.0095
  108OSM    H8G11159   2.967   3.736   9.666  0.6020 -1.3419  0.3746
  108OSM    C9F11160   2.963   3.924   9.757  0.1418  0.3229 -0.4277
  108OSM    H9F11161   2.947   3.963   9.859  0.4149  0.4917 -0.4505
  108OSM   C10F11162   2.921   4.003   9.660  0.0711 -0.0925 -0.0867
  108OSM   H10F11163   2.882   4.102   9.690 -0.2714 -0.0568 -0.6551
  108OSM   C11F11164   2.924   3.969   9.511 -0.1687 -0.0151 -0.0841
  108OSM   H11F11165   2.978   3.876   9.482  0.2439  0.2619 -0.2060
  108OSM   H11G11166   2.994   4.040   9.461  0.2478 -1.0246 -0.9781
  108OSM   C12F11167   2.782   3.981   9.456 -0.3786  0.3958 -0.2433
  108OSM   H12F11168   2.735   4.076   9.488 -0.4667 -0.3191  1.8117
  108OSM   H12G11169   2.716   3.903   9.500  0.8604 -1.5670 -1.7234
  108OSM   C13F11170   2.777   3.985   9.300  0.3880 -0.2949 -0.6044
  108OSM   H13F11171   2.835   4.072   9.263  0.5858 -1.1946 -2.4530
  108OSM   H13G11172   2.670   4.001   9.276  0.2170  1.4284  1.1485
  108OSM   C14F11173   2.830   3.849   9.237  0.0351 -0.3174 -0.9863
  108OSM   H14F11174   2.756   3.825   9.158 -2.9264  1.3458  1.1687
  108OSM   H14G11175   2.840   3.760   9.303 -0.4683  0.9444  0.8297
  108OSM   C15F11176   2.969   3.865   9.168 -0.6900 -0.4568 -0.6126
  108OSM   H15F11177   3.049   3.866   9.245 -1.8850  0.0585  0.6383
  108OSM   H15G11178   2.961   3.967   9.125  1.8497  0.3219  0.6598
  108OSM   C16F11179   2.995   3.762   9.053 -0.4577  0.4635 -0.2789
  108OSM   H16F11180   2.995   3.659   9.096  2.6431  0.9684  1.0857
  108OSM   H16G11181   3.086   3.786   8.994 -0.3245  0.5915 -0.0197
  108OSM   C17F11182   2.883   3.752   8.950  1.0164 -0.4353 -0.0756
  108OSM   H17F11183   2.872   3.857   8.915 -0.4379 -0.4579  0.3179
  108OSM   H17G11184   2.788   3.707   8.984  0.5046  1.5407  1.2532
  108OSM   C18F11185   2.934   3.662   8.833  0.2618 -0.0935 -0.1524
  108OSM   H18F11186   3.006   3.707   8.762 -0.1905  1.1794  0.1975
  108OSM   H18G11187   2.847   3.636   8.770  0.3172 -0.7799  0.0416
  108OSM   H18H11188   2.982   3.570   8.874 -2.9094 -0.5929  2.6253
  109OSM      N11189   3.482   4.668  10.737  0.2066  0.3382  0.2564
  109OSM    C1511190   3.442   4.639  10.592  1.2179 -0.0536 -0.6328
  109OSM   H15A11191   3.493   4.708  10.526 -2.6745  2.8425 -0.7985
  109OSM   H15B11192   3.338   4.665  10.576  0.6414 -1.6446  0.5326
  109OSM   H15C11193   3.462   4.541  10.552  1.7322  0.3778 -1.4419
  109OSM    C1411194   3.381   4.595  10.836  0.3054 -0.2196  0.5172
  109OSM   H14A11195   3.399   4.607  10.942  0.5899  0.1873  0.4242
  109OSM   H14B11196   3.409   4.490  10.828  2.9013  0.5960 -2.3729
  109OSM   H14C11197   3.279   4.610  10.806  0.7208  1.1876 -0.2529
  109OSM    C1311198   3.616   4.616  10.767 -0.2186 -0.0681 -0.5819
  109OSM   H13A11199   3.692   4.685  10.733 -1.0972  0.2943 -1.8605
  109OSM   H13B11200   3.636   4.519  10.724  0.8238 -0.3872  0.6266
  109OSM   H13C11201   3.628   4.610  10.874  0.2086 -1.1449 -0.6851
  109OSM    C1211202   3.476   4.818  10.751 -0.0689 -0.3788 -0.6079
  109OSM   H12A11203   3.499   4.856  10.849 -0.0405 -1.8031 -0.0533
  109OSM   H12B11204   3.375   4.845  10.723 -0.3038 -2.5810 -1.9866
  109OSM    C1111205   3.567   4.898  10.653 -0.8199 -0.6048 -0.0111
  109OSM   H11A11206   3.527   5.001  10.670  0.8331  0.0079  0.2374
  109OSM   H11B11207   3.556   4.883  10.543  0.7001  0.9388 -0.3946
  109OSM      P11208   3.778   4.952  10.816 -0.0686 -0.4503  0.4980
  109OSM    O1311209   3.680   4.977  10.925  0.7108  0.3233 -0.0807
  109OSM    O1411210   3.897   4.870  10.852  0.0400  0.8634  0.3760
  109OSM    O1111211   3.831   5.087  10.743  0.5132  0.6878  0.2023
  109OSM    O1211212   3.701   4.881  10.700 -0.8367 -0.1309  0.1840
  109OSM    C1S11213   3.911   5.064  10.627 -0.1192 -0.3860  0.0661
  109OSM    H1S11214   3.959   4.964  10.626  2.9045  1.0115  0.1086
  109OSM    H1T11215   3.990   5.141  10.632 -2.0439  1.6419  0.1143
  109OSM     NF11216   3.929   5.072  10.379  0.2501  0.2082 -0.2172
  109OSM    HNF11217   3.931   5.154  10.324  0.2589  0.1232 -0.3431
  109OSM    C2S11218   3.836   5.081  10.489 -0.2046 -0.1185  0.0723
  109OSM    H2S11219   3.764   4.996  10.487 -1.1866  0.7210 -0.2371
  109OSM    C3S11220   3.745   5.207  10.486  0.6565  0.3093 -0.4598
  109OSM    H3S11221   3.801   5.303  10.495  0.1467  0.5091  0.6336
  109OSM     O311222   3.660   5.231  10.599 -0.1099 -0.1276 -0.3567
  109OSM    HO311223   3.706   5.193  10.674  0.6737  1.5629  0.0670
  109OSM    C4S11224   3.668   5.202  10.361  0.1828  0.0449  0.2414
  109OSM    H4S11225   3.726   5.232  10.272  0.1493 -2.3139 -0.6142
  109OSM    C5S11226   3.544   5.155  10.348  0.8436  0.4415  0.3127
  109OSM    H5S11227   3.500   5.103  10.435 -2.6551  1.8085 -0.5353
  109OSM    C6S11228   3.465   5.141  10.229 -0.0642 -0.0222 -1.0386
  109OSM    H6S11229   3.376   5.205  10.240  0.2136  0.3443 -0.9230
  109OSM    H6T11230   3.432   5.035  10.234 -1.7980  0.5518  0.0584
  109OSM    C7S11231   3.529   5.173  10.089  0.5442 -0.1375  0.2006
  109OSM    H7S11232   3.614   5.102  10.076 -0.3222 -1.0875 -0.3833
  109OSM    H7T11233   3.577   5.272  10.075  0.4268 -0.1234 -0.1204
  109OSM    C8S11234   3.443   5.140   9.970 -0.4727 -0.0561 -0.2682
  109OSM    H8S11235   3.344   5.190   9.976  0.1325  0.9542  2.1829
  109OSM    H8T11236   3.427   5.030   9.966  0.6758 -0.3675  2.5588
  109OSM    C9S11237   3.513   5.173   9.839  0.0876 -0.2724  0.4023
  109OSM    H9S11238   3.618   5.136   9.833 -0.0847 -0.6350 -0.4362
  109OSM    H9T11239   3.520   5.284   9.834  0.5626 -0.2886  0.7033
  109OSM   C10S11240   3.431   5.124   9.721 -0.5135 -0.1583 -0.6518
  109OSM   H10S11241   3.328   5.157   9.746 -0.4909  0.1490 -0.9532
  109OSM   H10T11242   3.426   5.013   9.719  1.5110 -0.2648 -1.6168
  109OSM   C11S11243   3.493   5.167   9.584  0.2606  0.0768 -0.6034
  109OSM   H11S11244   3.602   5.155   9.598  0.2756  0.8395  0.0071
  109OSM   H11T11245   3.471   5.274   9.562 -0.3811  0.3306  1.2030
  109OSM   C12S11246   3.449   5.089   9.463 -0.0359 -0.1323 -0.3152
  109OSM   H12S11247   3.338   5.099   9.466 -0.0307 -0.1605 -0.0718
  109OSM   H12T11248   3.476   4.982   9.465  2.2274  0.4284  0.3497
  109OSM   C13S11249   3.500   5.157   9.338 -0.6963  0.7442 -0.1086
  109OSM   H13S11250   3.610   5.157   9.347 -0.6427 -1.6483 -0.3939
  109OSM   H13T11251   3.463   5.261   9.326  1.1288  1.3187 -0.7381
  109OSM   C14S11252   3.455   5.083   9.202  0.1752  0.9589 -0.3193
  109OSM   H14S11253   3.348   5.106   9.180 -0.1420 -2.7622 -3.1594
  109OSM   H14T11254   3.460   4.973   9.219  1.7839  1.1462  0.5331
  109OSM   C15S11255   3.529   5.121   9.074  0.1027  0.1871  0.4739
  109OSM   H15S11256   3.637   5.123   9.099  0.1998 -0.1168  0.0864
  109OSM   H15T11257   3.498   5.224   9.046 -0.1153 -0.1755 -0.6445
  109OSM   C16S11258   3.512   5.008   8.967 -0.4034 -0.4870 -0.5801
  109OSM   H16S11259   3.403   4.999   8.949 -0.4252  0.7105 -1.1575
  109OSM   H16T11260   3.544   4.908   9.004 -1.1242  0.4970  2.8778
  109OSM   C17S11261   3.587   5.049   8.843 -0.8692  1.1576 -0.0581
  109OSM   H17S11262   3.607   4.953   8.790  0.4569  0.6176  1.4078
  109OSM   H17T11263   3.687   5.087   8.875  0.4423 -1.5740 -0.7352
  109OSM   C18S11264   3.526   5.156   8.754 -0.4325 -0.3193 -0.4241
  109OSM   H18S11265   3.518   5.257   8.799 -0.2826  0.4219 -2.0496
  109OSM   H18T11266   3.438   5.113   8.700 -0.6294 -0.0673 -0.3071
  109OSM   H18U11267   3.598   5.166   8.670 -0.6994 -1.0474 -0.7468
  109OSM    C1F11268   4.002   4.961  10.353  0.2261  0.6162 -0.1272
  109OSM     OF11269   3.996   4.862  10.425 -0.4532  0.1268 -0.5479
  109OSM    C2F11270   4.077   4.955  10.225  0.4254 -0.4369  0.0195
  109OSM    H2F11271   4.137   4.862  10.214  1.1765  0.2291 -1.8740
  109OSM    H2G11272   4.156   5.033  10.219  2.6328 -2.7783 -3.1612
  109OSM    C3F11273   3.977   4.973  10.103  0.4034 -0.0813  0.2196
  109OSM    H3F11274   3.941   5.077  10.089  3.3380  1.3457  2.8194
  109OSM    H3G11275   3.887   4.907  10.111  0.2575  0.4388  3.9045
  109OSM    C4F11276   4.042   4.931   9.974 -0.1776  0.0636 -0.5344
  109OSM    H4F11277   4.098   4.837   9.998  1.6259  1.3194  0.3273
  109OSM    H4G11278   4.122   5.000   9.940 -0.0249  0.3619  0.4086
  109OSM    C5F11279   3.954   4.916   9.855 -0.2973 -0.4985 -0.6045
  109OSM    H5F11280   3.870   4.989   9.856  0.5481  0.4852 -0.4863
  109OSM    H5G11281   3.915   4.812   9.855 -1.3566 -0.1155  0.0079
  109OSM    C6F11282   4.023   4.945   9.713  0.3987  0.6313  0.5046
  109OSM    H6F11283   4.111   4.879   9.692 -0.3496 -0.9205  2.0881
  109OSM    H6G11284   4.057   5.051   9.711  2.5735 -0.0402 -0.5029
  109OSM    C7F11285   3.931   4.917   9.590 -0.9006  0.9447 -0.5308
  109OSM    H7F11286   3.836   4.969   9.615  0.0824  2.6653 -0.2986
  109OSM    H7G11287   3.925   4.807   9.575  2.6355  0.4258  1.2174
  109OSM    C8F11288   3.990   4.984   9.462 -1.2264  0.0669  0.0070
  109OSM    H8F11289   4.082   4.930   9.429 -0.7500  0.9081 -0.0635
  109OSM    H8G11290   4.037   5.081   9.488  0.5086 -0.7220 -0.1066
  109OSM    C9F11291   3.885   5.005   9.355  0.1345  0.2347 -0.5792
  109OSM    H9F11292   3.809   5.081   9.380  1.3037  1.7551 -1.5974
  109OSM   C10F11293   3.871   4.955   9.229  0.2715 -0.3998  0.2697
  109OSM   H10F11294   3.783   4.982   9.169  0.7467 -0.3133 -0.3914
  109OSM   C11F11295   3.959   4.859   9.154 -0.2962 -0.2783 -0.2187
  109OSM   H11F11296   3.964   4.757   9.196 -0.9261 -0.8326 -1.4640
  109OSM   H11G11297   4.058   4.909   9.163 -1.3162  1.6717  0.5394
  109OSM   C12F11298   3.915   4.842   9.009 -0.2480  0.2359 -0.5754
  109OSM   H12F11299   3.902   4.947   8.975 -4.5780 -0.2089 -0.6413
  109OSM   H12G11300   3.821   4.783   9.002  0.6629 -1.4424  0.8854
  109OSM   C13F11301   4.008   4.777   8.913  0.2702  0.3165 -0.0621
  109OSM   H13F11302   4.017   4.672   8.949  0.9287  0.0976 -0.8714
  109OSM   H13G11303   4.113   4.812   8.904  0.9082 -1.7450 -0.7096
  109OSM   C14F11304   3.958   4.776   8.766  0.0854 -0.2278  0.3501
  109OSM   H14F11305   3.934   4.884   8.752  2.0148  0.1648  0.0254
  109OSM   H14G11306   3.865   4.717   8.749  0.1507 -0.2876  0.1979
  109OSM   C15F11307   4.078   4.740   8.669 -0.2689 -0.3588  0.0503
  109OSM   H15F11308   4.100   4.632   8.676 -0.0140 -0.4445 -1.7342
  109OSM   H15G11309   4.172   4.794   8.695 -0.6975 -0.6694  2.3429
  109OSM   C16F11310   4.049   4.785   8.520  0.2669 -0.2700  0.2916
  109OSM   H16F11311   4.135   4.751   8.458  0.0918  0.6844 -0.4919
  109OSM   H16G11312   4.060   4.895   8.508 -0.3404 -0.4869 -2.4837
  109OSM   C17F11313   3.915   4.734   8.455 -0.0058  0.0992 -0.6321
  109OSM   H17F11314   3.827   4.777   8.508 -1.8250 -3.1415 -0.9159
  109OSM   H17G11315   3.909   4.623   8.461 -0.8727  0.1629 -0.2651
  109OSM   C18F11316   3.898   4.766   8.311  0.0864  0.3531  0.6758
  109OSM   H18F11317   3.793   4.772   8.277  0.3961  2.5099 -0.0115
  109OSM   H18G11318   3.957   4.702   8.241  1.6709  0.7822  1.5959
  109OSM   H18H11319   3.936   4.868   8.289  0.5230 -0.7350 -4.3589
  110OSM      N11320   5.505   4.105  10.850 -0.3554 -0.5942 -0.1367
  110OSM    C1511321   5.576   4.236  10.878  1.5116 -0.2904  0.2576
  110OSM   H15A11322   5.499   4.307  10.903  0.5198 -1.0698 -0.5911
  110OSM   H15B11323   5.633   4.271  10.793 -0.4202  0.0146 -0.9393
  110OSM   H15C11324   5.634   4.229  10.969 -0.4670 -0.4540  1.5219
  110OSM    C1411325   5.610   4.002  10.855 -0.3056  0.0661 -0.0066
  110OSM   H14A11326   5.673   4.010  10.768 -1.2661 -0.3978 -0.7600
  110OSM   H14B11327   5.564   3.904  10.851  0.7070 -0.3842 -0.8474
  110OSM   H14C11328   5.663   3.999  10.949  0.3533  0.2082 -0.3705
  110OSM    C1311329   5.407   4.074  10.958 -0.4496 -0.4684 -0.6385
  110OSM   H13A11330   5.352   3.983  10.938  1.2756 -1.2551 -1.9138
  110OSM   H13B11331   5.344   4.161  10.972  0.4653  0.2335 -0.8206
  110OSM   H13C11332   5.463   4.064  11.050  2.3213  1.9169 -1.9707
  110OSM    C1211333   5.425   4.114  10.722 -0.3788 -0.3409 -0.6039
  110OSM   H12A11334   5.487   4.153  10.643 -1.2790 -0.2052 -1.2653
  110OSM   H12B11335   5.347   4.188  10.735 -0.8695 -0.7675 -1.0615
  110OSM    C1111336   5.339   3.993  10.667  0.1086  0.6416 -0.0036
  110OSM   H11A11337   5.391   3.897  10.690  2.2475  1.8275  0.2174
  110OSM   H11B11338   5.323   4.014  10.559  1.8460 -3.2568 -1.1179
  110OSM      P11339   5.093   4.076  10.701  0.3619 -0.2171  0.2571
  110OSM    O1311340   5.007   4.062  10.819 -0.5449 -0.0409  0.2393
  110OSM    O1411341   5.140   4.214  10.666  0.0802  0.4013  0.5629
  110OSM    O1111342   5.029   4.017  10.571  0.4291  0.2897  0.1249
  110OSM    O1211343   5.217   3.990  10.735 -0.8113  0.0082  0.0179
  110OSM    C1S11344   4.899   4.065  10.533  0.4890 -0.3357 -0.3458
  110OSM    H1S11345   4.904   4.175  10.544  3.0062 -0.5782  1.6422
  110OSM    H1T11346   4.816   4.028  10.597  0.0727  1.5627  0.2291
  110OSM     NF11347   4.743   4.054  10.333 -0.4205 -0.4844  0.0248
  110OSM    HNF11348   4.674   3.981  10.333  0.5068 -1.4744  3.4360
  110OSM    C2S11349   4.875   4.013  10.391  0.0874  0.6062  0.3096
  110OSM    H2S11350   4.960   4.065  10.343  0.0982  2.7798  2.5784
  110OSM    C3S11351   4.904   3.862  10.374 -0.1612 -0.0003 -0.0485
  110OSM    H3S11352   4.858   3.798  10.452  0.4245  0.1188  0.4010
  110OSM     O311353   5.048   3.835  10.386 -0.3747  0.4568  0.2312
  110OSM    HO311354   5.071   3.911  10.439  4.7790 -0.5362 -0.3102
  110OSM    C4S11355   4.861   3.827  10.231 -0.7221  0.1400 -0.4354
  110OSM    H4S11356   4.775   3.759  10.216 -1.0117  0.3843  0.0989
  110OSM    C5S11357   4.914   3.872  10.116  0.0883 -0.1930 -0.4746
  110OSM    H5S11358   4.999   3.942  10.120  1.0935 -1.4146 -0.1781
  110OSM    C6S11359   4.861   3.832   9.983  0.2214  0.1546 -0.0312
  110OSM    H6S11360   4.851   3.927   9.926  1.1088  1.8530  2.5525
  110OSM    H6T11361   4.755   3.798   9.986  0.1167  0.3826 -1.0756
  110OSM    C7S11362   4.948   3.731   9.913  0.3345  0.0036  0.7838
  110OSM    H7S11363   4.945   3.635   9.969  0.7002 -0.1268  0.5862
  110OSM    H7T11364   5.049   3.776   9.907 -0.3441  1.3597 -0.7547
  110OSM    C8S11365   4.884   3.710   9.773 -0.1320  0.4592 -0.0632
  110OSM    H8S11366   4.878   3.804   9.713 -0.2107  0.2141 -0.4400
  110OSM    H8T11367   4.782   3.667   9.779 -0.5538  1.4773  0.0810
  110OSM    C9S11368   4.979   3.610   9.701 -0.1816 -0.7855  0.6172
  110OSM    H9S11369   4.994   3.521   9.765  1.1499 -0.1025  1.2670
  110OSM    H9T11370   5.077   3.661   9.686  0.0660 -1.0080  1.4772
  110OSM   C10S11371   4.920   3.555   9.570 -0.2178  0.7455 -0.0388
  110OSM   H10S11372   4.818   3.518   9.594  0.1195 -0.6183 -0.7039
  110OSM   H10T11373   4.983   3.469   9.540  0.0809  1.6084 -2.0033
  110OSM   C11S11374   4.916   3.658   9.456  0.0424  0.0560 -0.1838
  110OSM   H11S11375   5.021   3.669   9.423  0.1397 -1.0445 -0.2562
  110OSM   H11T11376   4.873   3.754   9.491  1.4639  0.9693 -0.9064
  110OSM   C12S11377   4.843   3.619   9.332 -0.3751  0.1039 -0.0733
  110OSM   H12S11378   4.734   3.610   9.353 -0.4615  0.1114 -0.5075
  110OSM   H12T11379   4.871   3.517   9.300 -0.0132 -0.1415  1.0181
  110OSM   C13S11380   4.853   3.710   9.208  0.3911 -0.5111  0.8920
  110OSM   H13S11381   4.955   3.754   9.197 -0.2524  1.1195  1.3967
  110OSM   H13T11382   4.785   3.795   9.227  0.6769 -0.0588 -0.0936
  110OSM   C14S11383   4.814   3.633   9.080  0.0079  0.0925  0.2405
  110OSM   H14S11384   4.714   3.587   9.093 -0.0958  0.9669  2.8792
  110OSM   H14T11385   4.894   3.560   9.060 -1.1542 -0.8127 -1.1582
  110OSM   C15S11386   4.803   3.735   8.969  0.3349 -0.5663  0.0683
  110OSM   H15S11387   4.896   3.793   8.984 -0.6076  0.5595  1.7858
  110OSM   H15T11388   4.713   3.797   8.990 -1.5076 -2.6848 -1.3659
  110OSM   C16S11389   4.766   3.682   8.831 -0.1663 -0.1367  0.3502
  110OSM   H16S11390   4.769   3.769   8.762  1.7178 -1.5357 -1.3898
  110OSM   H16T11391   4.664   3.637   8.835  0.4854 -1.6260  0.5041
  110OSM   C17S11392   4.866   3.572   8.781 -0.3124 -0.3187 -0.1011
  110OSM   H17S11393   4.855   3.480   8.842 -1.2169 -0.6951 -0.8250
  110OSM   H17T11394   4.973   3.600   8.788 -0.4311 -0.0787  0.8922
  110OSM   C18S11395   4.832   3.541   8.637  0.0162  0.6054  0.2589
  110OSM   H18S11396   4.749   3.467   8.635  0.0618  0.4649  2.1578
  110OSM   H18T11397   4.921   3.486   8.600  0.2318 -0.8591  2.7976
  110OSM   H18U11398   4.819   3.622   8.562 -1.9336  0.2028  0.1338
  110OSM    C1F11399   4.695   4.180  10.319  0.2124 -1.0308 -0.0010
  110OSM     OF11400   4.762   4.280  10.344 -0.4864 -0.3880 -0.0516
  110OSM    C2F11401   4.552   4.192  10.267 -1.2537 -0.4493 -0.1847
  110OSM    H2F11402   4.496   4.250  10.344  2.4231  1.2918  1.3142
  110OSM    H2G11403   4.526   4.085  10.255  0.2823 -0.7966 -0.4407
  110OSM    C3F11404   4.538   4.283  10.142 -0.1588 -0.6385  0.6554
  110OSM    H3F11405   4.562   4.386  10.175 -0.1418 -1.0625  2.0056
  110OSM    H3G11406   4.438   4.294  10.094  0.4626  1.2799 -0.2301
  110OSM    C4F11407   4.642   4.231  10.041  0.0674 -0.1896 -0.5586
  110OSM    H4F11408   4.629   4.121  10.042 -1.0248 -0.0521  0.8996
  110OSM    H4G11409   4.746   4.259  10.070 -0.4112  1.7380 -0.5987
  110OSM    C5F11410   4.613   4.294   9.903 -0.3597  0.3391  0.2384
  110OSM    H5F11411   4.635   4.403   9.897 -0.0164  0.2922  0.6580
  110OSM    H5G11412   4.512   4.265   9.868 -0.7540  0.1081  1.5282
  110OSM    C6F11413   4.695   4.234   9.790 -0.2548  0.2146  0.0675
  110OSM    H6F11414   4.674   4.126   9.773  3.5837 -0.4986 -0.5812
  110OSM    H6G11415   4.801   4.228   9.823 -0.8847 -0.6276  2.0084
  110OSM    C7F11416   4.688   4.320   9.662 -0.6973  0.8224 -0.3475
  110OSM    H7F11417   4.708   4.428   9.678  3.7535  0.3753 -2.2882
  110OSM    H7G11418   4.589   4.307   9.613  0.0400 -3.2791 -1.0065
  110OSM    C8F11419   4.787   4.267   9.552  0.0163 -0.4066  0.1945
  110OSM    H8F11420   4.776   4.157   9.537 -0.1361 -0.4938  0.9204
  110OSM    H8G11421   4.886   4.280   9.602 -0.6451 -1.6258  1.8924
  110OSM    C9F11422   4.770   4.343   9.423  0.3965  0.0751  0.1517
  110OSM    H9F11423   4.774   4.453   9.428  1.1491 -0.0073  1.7528
  110OSM   C10F11424   4.744   4.299   9.303 -0.7107 -0.5482 -0.0669
  110OSM   H10F11425   4.719   4.375   9.228 -3.3704 -1.3174  0.0202
  110OSM   C11F11426   4.723   4.151   9.263 -0.5623 -0.5513 -0.3957
  110OSM   H11F11427   4.703   4.104   9.361  2.4032  2.1612  1.5909
  110OSM   H11G11428   4.819   4.108   9.227 -2.1309 -1.6228 -3.4779
  110OSM   C12F11429   4.608   4.106   9.178  0.5108 -0.0683  0.2199
  110OSM   H12F11430   4.515   4.151   9.217  1.1836  2.8600 -1.4283
  110OSM   H12G11431   4.601   3.996   9.191  2.4803 -0.2581 -0.0876
  110OSM   C13F11432   4.618   4.146   9.027 -0.3237 -0.1159 -1.0089
  110OSM   H13F11433   4.716   4.112   8.987 -0.5837 -1.0745 -0.8380
  110OSM   H13G11434   4.616   4.257   9.019  0.1735  0.0066  0.3871
  110OSM   C14F11435   4.502   4.091   8.947 -0.5341 -0.2610  0.0851
  110OSM   H14F11436   4.405   4.126   8.988 -0.7385 -0.0167 -0.5954
  110OSM   H14G11437   4.502   3.982   8.969 -1.4053 -0.1757  0.5524
  110OSM   C15F11438   4.521   4.120   8.800 -0.0752  0.9750  0.4851
  110OSM   H15F11439   4.629   4.129   8.775 -0.0964 -0.6791 -0.2736
  110OSM   H15G11440   4.455   4.209   8.791  0.1528  1.8794  6.2682
  110OSM   C16F11441   4.454   4.017   8.711 -0.2759  0.5798  0.0726
  110OSM   H16F11442   4.362   3.981   8.761  0.0186 -1.1775 -0.6280
  110OSM   H16G11443   4.523   3.930   8.714 -1.3277 -0.2856 -0.4796
  110OSM   C17F11444   4.430   4.048   8.561  0.0079 -0.1202  0.6759
  110OSM   H17F11445   4.346   4.120   8.552 -0.1390 -0.6446 -2.8915
  110OSM   H17G11446   4.393   3.952   8.519 -0.1945  0.5083 -0.6267
  110OSM   C18F11447   4.561   4.096   8.493 -0.6591 -0.0897 -0.2620
  110OSM   H18F11448   4.632   4.142   8.564 -0.4890 -1.0819  0.2169
  110OSM   H18G11449   4.543   4.166   8.409  0.4449 -0.0189 -0.4382
  110OSM   H18H11450   4.603   4.005   8.445 -0.5616 -0.2831  0.1826
  111OSM      N11451   6.228   0.879  11.213  0.1680  0.1514 -0.5882
  111OSM    C1511452   6.241   0.961  11.333 -0.6633  0.3682 -0.3287
  111OSM   H15A11453   6.147   0.966  11.386  0.3281  0.5788  1.4305
  111OSM   H15B11454   6.280   1.056  11.301 -0.8270 -0.6599 -3.7343
  111OSM   H15C11455   6.315   0.937  11.407  1.5872  0.6181 -2.4278
  111OSM    C1411456   6.372   0.859  11.166 -0.9402  0.2340  0.4950
  111OSM   H14A11457   6.382   0.790  11.083  1.3693 -1.1485  1.8877
  111OSM   H14B11458   6.437   0.824  11.245 -2.7424  1.6368  2.6774
  111OSM   H14C11459   6.415   0.952  11.132  2.3199 -1.7335 -0.8961
  111OSM    C1311460   6.172   0.754  11.264  0.0845  0.4682  0.1557
  111OSM   H13A11461   6.082   0.764  11.324 -0.4337 -1.2778 -0.2969
  111OSM   H13B11462   6.247   0.702  11.321  1.5372 -0.9919 -3.0273
  111OSM   H13C11463   6.137   0.696  11.180  0.2399 -0.5215  0.7724
  111OSM    C1211464   6.140   0.945  11.103 -0.2634  0.4374  0.2727
  111OSM   H12A11465   6.181   1.044  11.087 -1.2939  0.7213 -0.6938
  111OSM   H12B11466   6.038   0.951  11.139 -1.2036  1.4696 -2.4312
  111OSM    C1111467   6.137   0.875  10.967  0.4246  0.0220  0.3279
  111OSM   H11A11468   6.239   0.858  10.926 -0.3269  1.7680 -2.4726
  111OSM   H11B11469   6.096   0.947  10.893  1.0168 -0.0152 -0.0368
  111OSM      P11470   5.919   0.737  10.969  0.0656  0.1132  0.5781
  111OSM    O1311471   5.886   0.593  10.983 -0.1237 -0.2062  0.0992
  111OSM    O1411472   5.874   0.827  11.079 -0.4378  0.0701  0.1108
  111OSM    O1111473   5.887   0.803  10.826 -0.2247  0.3498 -0.1938
  111OSM    O1211474   6.076   0.746  10.969  0.2209 -0.3854  0.5783
  111OSM    C1S11475   5.909   0.717  10.708  0.3653  0.9477  0.3488
  111OSM    H1S11476   5.863   0.620  10.733 -1.3669  1.2071 -1.6933
  111OSM    H1T11477   6.018   0.700  10.696  0.4002 -0.7448  2.7350
  111OSM     NF11478   5.871   0.663  10.475  0.1702  0.0705  0.0004
  111OSM    HNF11479   5.952   0.670  10.417 -0.0991 -1.4397 -0.5835
  111OSM    C2S11480   5.850   0.767  10.577 -0.4114  0.0366 -0.2218
  111OSM    H2S11481   5.741   0.783  10.589 -0.5674  0.4567 -1.9865
  111OSM    C3S11482   5.916   0.909  10.544  0.3996 -0.0752  0.5813
  111OSM    H3S11483   6.023   0.880  10.536  1.0471  0.6943  4.9338
  111OSM     O311484   5.908   1.005  10.648 -0.3585 -0.8940 -0.2959
  111OSM    HO311485   5.922   0.951  10.726  1.6922 -0.6152 -0.4601
  111OSM    C4S11486   5.866   0.955  10.412  0.6483 -0.1601  0.2150
  111OSM    H4S11487   5.927   0.907  10.333  0.6812 -0.2880  0.3187
  111OSM    C5S11488   5.762   1.035  10.377 -0.8687  0.1489  0.2035
  111OSM    H5S11489   5.700   1.084  10.453 -0.8958 -1.0905  0.9852
  111OSM    C6S11490   5.735   1.068  10.229  0.1102  0.5451  0.6092
  111OSM    H6S11491   5.724   1.178  10.217  1.3965  0.4994 -1.2116
  111OSM    H6T11492   5.645   1.022  10.183  0.0158  1.8408 -0.5355
  111OSM    C7S11493   5.850   1.037  10.127  0.8460 -0.1891 -0.0067
  111OSM    H7S11494   5.863   0.927  10.132 -0.5574 -0.3845 -0.3803
  111OSM    H7T11495   5.939   1.089  10.168 -0.3755  1.5092  0.5228
  111OSM    C8S11496   5.822   1.072   9.984  0.3018  0.0220 -0.3113
  111OSM    H8S11497   5.799   1.180   9.977  0.9151  0.2475  1.0221
  111OSM    H8T11498   5.728   1.021   9.955 -0.0855 -0.5097  1.8512
  111OSM    C9S11499   5.925   1.022   9.883 -0.0756 -0.4412  0.0981
  111OSM    H9S11500   5.933   0.911   9.888  1.5764 -0.2623  2.6542
  111OSM    H9T11501   6.025   1.058   9.915  0.0294  0.8216 -1.6304
  111OSM   C10S11502   5.909   1.067   9.732  0.8605 -0.6258  0.2420
  111OSM   H10S11503   5.909   1.178   9.727  0.8166 -0.6687 -0.6938
  111OSM   H10T11504   5.808   1.042   9.694 -0.1372  1.9120  1.0739
  111OSM   C11S11505   6.006   0.998   9.640  0.1557  0.3481 -0.3359
  111OSM   H11S11506   6.003   0.887   9.649 -3.8622  0.4178  0.2252
  111OSM   H11T11507   6.105   1.033   9.674 -0.7520  2.3992  0.2946
  111OSM   C12S11508   5.984   1.032   9.493 -0.2648  0.6824  0.0051
  111OSM   H12S11509   6.059   1.105   9.454  1.0234 -1.6591 -2.0010
  111OSM   H12T11510   5.893   1.091   9.470 -1.2147 -0.5231  0.6818
  111OSM   C13S11511   5.983   0.917   9.395 -0.2617  0.0460  0.1688
  111OSM   H13S11512   5.903   0.846   9.425 -0.8412  0.5329 -0.2255
  111OSM   H13T11513   6.084   0.870   9.392 -0.1280  0.1133  2.6556
  111OSM   C14S11514   5.949   0.965   9.251  0.9407  0.1914 -0.4205
  111OSM   H14S11515   6.020   1.048   9.226  3.0394 -1.9080 -1.6248
  111OSM   H14T11516   5.841   0.989   9.243  0.6152 -1.0060  0.2625
  111OSM   C15S11517   5.980   0.842   9.157 -0.2622  0.1208  0.1106
  111OSM   H15S11518   5.906   0.766   9.192 -0.2486  0.2664  0.4528
  111OSM   H15T11519   6.087   0.814   9.168 -0.1770  0.8781  1.2828
  111OSM   C16S11520   5.946   0.863   9.008 -0.8415 -0.7943 -0.7634
  111OSM   H16S11521   5.949   0.767   8.952  0.6450 -0.9790 -0.3888
  111OSM   H16T11522   6.024   0.928   8.962 -1.4043 -0.2983 -1.0280
  111OSM   C17S11523   5.808   0.923   8.987 -0.0283 -0.5644  0.0003
  111OSM   H17S11524   5.791   1.019   9.040 -0.5678 -1.4438  1.4746
  111OSM   H17T11525   5.738   0.850   9.032 -1.8297  0.1293 -1.6023
  111OSM   C18S11526   5.771   0.925   8.835 -0.3618 -0.3236 -0.0010
  111OSM   H18S11527   5.695   1.004   8.817 -0.7726 -0.6350  0.3481
  111OSM   H18T11528   5.734   0.823   8.809 -1.6462  0.6040 -1.9422
  111OSM   H18U11529   5.858   0.942   8.769 -0.8744  1.6115 -0.1915
  111OSM    C1F11530   5.797   0.549  10.470 -0.3776 -0.0549  0.3836
  111OSM     OF11531   5.742   0.505  10.570 -0.5375  0.1576  0.4016
  111OSM    C2F11532   5.806   0.475  10.341  0.3627  0.2029  0.3505
  111OSM    H2F11533   5.904   0.493  10.291 -1.0722  1.8720 -1.9278
  111OSM    H2G11534   5.734   0.517  10.267  0.9027  1.2199  0.3886
  111OSM    C3F11535   5.796   0.322  10.354 -0.0453  1.0281  0.5564
  111OSM    H3F11536   5.695   0.287  10.382 -0.7831  1.8507 -1.0063
  111OSM    H3G11537   5.872   0.269  10.415  1.2026 -0.9212 -2.5769
  111OSM    C4F11538   5.833   0.259  10.217 -0.4299  1.5194  0.3062
  111OSM    H4F11539   5.932   0.301  10.188  0.5122 -0.5981  0.3862
  111OSM    H4G11540   5.768   0.295  10.135 -0.3778 -0.3655 -0.5724
  111OSM    C5F11541   5.836   0.107  10.226  0.7715 -0.0842  0.2306
  111OSM    H5F11542   5.729   0.080  10.239  0.6464  0.3872  0.2037
  111OSM    H5G11543   5.884   0.074  10.320  2.2547 -1.6123 -1.0333
  111OSM    C6F11544   5.886   0.042  10.098 -0.0735  0.0072 -0.2536
  111OSM    H6F11545   5.994   0.062  10.087 -0.1182  1.6891  2.0776
  111OSM    H6G11546   5.841   0.093  10.009 -0.7174  0.7446  0.4864
  111OSM    C7F11547   5.840  -0.104  10.071 -0.4295 -0.8364 -0.2894
  111OSM    H7F11548   5.749  -0.121  10.133  0.5376  0.7340  1.6149
  111OSM    H7G11549   5.914  -0.180  10.105 -1.0466 -1.2026  0.2492
  111OSM    C8F11550   5.806  -0.129   9.919 -0.1380 -0.1128 -0.2375
  111OSM    H8F11551   5.732  -0.048   9.902 -1.0659 -1.1958 -1.4669
  111OSM    H8G11552   5.761  -0.230   9.907 -0.4997 -0.0064  0.2220
  111OSM    C9F11553   5.921  -0.125   9.831 -0.3731 -0.0460  0.5679
  111OSM    H9F11554   6.008  -0.186   9.862  0.5222  0.6897 -0.4642
  111OSM   C10F11555   5.946  -0.044   9.728 -0.1493  0.0955  0.4288
  111OSM   H10F11556   6.034  -0.041   9.661 -1.0417  0.9315 -0.7499
  111OSM   C11F11557   5.844   0.051   9.676  0.0246 -0.9261  0.6943
  111OSM   H11F11558   5.892   0.137   9.624 -0.8991 -0.3627  0.7681
  111OSM   H11G11559   5.778   0.087   9.758 -0.1538 -0.9509  0.5641
  111OSM   C12F11560   5.746  -0.020   9.578 -0.5990 -0.1985  0.0465
  111OSM   H12F11561   5.658   0.043   9.556 -0.0616  0.5205 -0.0606
  111OSM   H12G11562   5.719  -0.115   9.629  2.8149  0.5208  3.3911
  111OSM   C13F11563   5.823  -0.061   9.445 -0.0742 -0.2761  0.3734
  111OSM   H13F11564   5.884  -0.150   9.472 -0.6021 -0.7239  0.1233
  111OSM   H13G11565   5.886   0.023   9.408  0.8428  0.1661  2.8955
  111OSM   C14F11566   5.719  -0.107   9.337  0.1343 -0.1913  0.9119
  111OSM   H14F11567   5.633  -0.036   9.332 -0.0800 -0.4906  0.2987
  111OSM   H14G11568   5.682  -0.211   9.354  0.7711 -0.9027 -1.8220
  111OSM   C15F11569   5.777  -0.112   9.198 -0.4264  0.2754 -0.0721
  111OSM   H15F11570   5.858  -0.187   9.201 -0.1084  0.6755  1.8060
  111OSM   H15G11571   5.818  -0.014   9.165  0.4438  0.5787  1.8237
  111OSM   C16F11572   5.675  -0.145   9.079 -0.0379 -0.6739 -0.0701
  111OSM   H16F11573   5.585  -0.087   9.109  0.9854  1.8382 -1.6978
  111OSM   H16G11574   5.656  -0.254   9.090 -1.4823 -0.2601  1.8245
  111OSM   C17F11575   5.727  -0.117   8.934  0.5741 -0.2738 -0.8598
  111OSM   H17F11576   5.828  -0.163   8.926  0.7878 -0.7539  3.5509
  111OSM   H17G11577   5.736  -0.008   8.913 -1.2185 -0.4264 -2.5356
  111OSM   C18F11578   5.645  -0.188   8.833 -0.0660 -0.2159 -0.3270
  111OSM   H18F11579   5.684  -0.186   8.729 -2.1559 -1.6333 -1.1808
  111OSM   H18G11580   5.539  -0.155   8.836 -0.0525  0.0564 -2.3690
  111OSM   H18H11581   5.638  -0.297   8.852  2.8841 -0.3704  0.1722
  112OSM      N11582   0.058   4.997  11.103 -0.4196 -0.2432 -0.1246
  112OSM    C1511583  -0.061   4.920  11.135 -0.1820 -0.8879 -0.1284
  112OSM   H15A11584  -0.122   4.947  11.220 -0.9771  2.1319 -1.5643
  112OSM   H15B11585  -0.039   4.815  11.140 -0.9261 -1.0446 -0.0683
  112OSM   H15C11586  -0.135   4.935  11.058  0.3700 -1.9849 -0.8742
  112OSM    C1411587   0.170   4.961  11.200  1.0160  0.3132  0.2937
  112OSM   H14A11588   0.179   4.853  11.203  0.5902  0.2422 -0.7774
  112OSM   H14B11589   0.161   4.998  11.301 -0.2776 -1.0893  0.7128
  112OSM   H14C11590   0.260   4.997  11.154  0.1460  2.4318  0.1931
  112OSM    C1311591   0.107   4.956  10.969  0.4374 -1.1142  0.0293
  112OSM   H13A11592   0.123   4.849  10.966  1.8154 -0.8865 -2.3562
  112OSM   H13B11593   0.195   5.007  10.932 -0.4818  1.2121  0.9508
  112OSM   H13C11594   0.036   4.979  10.890 -0.4723  1.6120  1.5928
  112OSM    C1211595   0.044   5.152  11.110  0.7118  0.4120  0.0679
  112OSM   H12A11596   0.144   5.193  11.109  1.1516 -0.5835  1.8419
  112OSM   H12B11597   0.011   5.176  11.210  0.4728  1.1712 -0.1907
  112OSM    C1111598  -0.035   5.230  11.001  0.3511 -1.0688  0.1944
  112OSM   H11A11599   0.031   5.233  10.912 -1.8782 -0.7127 -1.5023
  112OSM   H11B11600  -0.046   5.333  11.041  1.3763 -0.5411 -0.8749
  112OSM      P11601  -0.296   5.194  11.043  0.0112  0.0544  0.1054
  112OSM    O1311602  -0.356   5.068  11.086  0.2019  0.0700 -0.2963
  112OSM    O1411603  -0.272   5.294  11.151 -0.1184  0.0032 -0.3364
  112OSM    O1111604  -0.382   5.256  10.932 -0.0482  0.1872  0.3395
  112OSM    O1211605  -0.166   5.163  10.966 -0.7630 -0.5771 -0.6505
  112OSM    C1S11606  -0.334   5.335  10.824  0.4619 -0.5255 -0.3258
  112OSM    H1S11607  -0.226   5.363  10.823  0.6025 -1.0160  0.9334
  112OSM    H1T11608  -0.384   5.433  10.813 -0.1827 -0.7450  0.6209
  112OSM     NF11609  -0.305   5.341  10.570 -0.4558  0.3716 -0.1384
  112OSM    HNF11610  -0.366   5.406  10.526 -0.4353  0.0937 -0.5729
  112OSM    C2S11611  -0.369   5.268  10.683 -0.8006  0.1141  0.4573
  112OSM    H2S11612  -0.325   5.166  10.682 -1.0310  0.0207 -0.5866
  112OSM    C3S11613  -0.521   5.246  10.666  0.8633 -0.0134 -0.5364
  112OSM    H3S11614  -0.575   5.340  10.686  0.5751 -0.7864  2.6700
  112OSM     O311615  -0.574   5.159  10.767 -0.2951 -0.0057  0.6677
  112OSM    HO311616  -0.505   5.171  10.833 -0.0764  0.5337  0.3394
  112OSM    C4S11617  -0.567   5.163  10.543 -0.0577 -0.7714  0.3053
  112OSM    H4S11618  -0.575   5.057  10.568  2.1664 -0.5675  2.0735
  112OSM    C5S11619  -0.617   5.224  10.433 -0.1263  0.6480  0.6544
  112OSM    H5S11620  -0.612   5.333  10.424 -1.4498  0.7757  1.3514
  112OSM    C6S11621  -0.671   5.156  10.309 -0.5652  0.6417 -0.7729
  112OSM    H6S11622  -0.586   5.116  10.249  1.2973  1.9499  0.9242
  112OSM    H6T11623  -0.719   5.234  10.246  1.4150  2.2670 -0.3007
  112OSM    C7S11624  -0.757   5.038  10.354 -0.5424 -0.0129  0.1549
  112OSM    H7S11625  -0.821   5.061  10.442  0.1243  1.0742  0.3797
  112OSM    H7T11626  -0.687   4.956  10.381 -2.1780 -1.6941 -0.7183
  112OSM    C8S11627  -0.832   4.984  10.236 -0.6459 -0.0206  0.5529
  112OSM    H8S11628  -0.879   5.068  10.180  0.0202 -1.5922 -2.4413
  112OSM    H8T11629  -0.909   4.913  10.273 -2.3059  2.2347  1.6139
  112OSM    C9S11630  -0.745   4.913  10.130  0.1034 -0.0824  0.0889
  112OSM    H9S11631  -0.696   4.829  10.184  0.6463 -0.6352 -1.2353
  112OSM    H9T11632  -0.669   4.986  10.094  0.4321 -0.9277 -0.9327
  112OSM   C10S11633  -0.826   4.859  10.014 -0.8315  0.6900 -0.1831
  112OSM   H10S11634  -0.909   4.925   9.982 -2.0027 -0.8069 -0.2863
  112OSM   H10T11635  -0.871   4.764  10.050  0.4808  0.0145 -0.2756
  112OSM   C11S11636  -0.729   4.812   9.910 -0.1818  0.3222  0.6431
  112OSM   H11S11637  -0.656   4.893   9.889  2.0396 -1.3457  1.7434
  112OSM   H11T11638  -0.778   4.797   9.811  1.5311  0.3513 -0.2239
  112OSM   C12S11639  -0.658   4.680   9.950 -0.1960  0.4295  0.1007
  112OSM   H12S11640  -0.736   4.604   9.974 -0.2509  0.6201  0.5220
  112OSM   H12T11641  -0.611   4.689  10.050  0.3327 -0.0739 -0.0929
  112OSM   C13S11642  -0.555   4.631   9.850  0.3327  0.2646  0.1795
  112OSM   H13S11643  -0.505   4.543   9.895  1.0692  0.8396  0.4811
  112OSM   H13T11644  -0.478   4.702   9.812  0.3568 -1.0153 -2.3170
  112OSM   C14S11645  -0.627   4.563   9.727 -0.1409  0.3138  0.7693
  112OSM   H14S11646  -0.682   4.632   9.658  0.3829 -0.0042  0.0293
  112OSM   H14T11647  -0.709   4.512   9.782 -1.4246  1.6361  0.1233
  112OSM   C15S11648  -0.542   4.472   9.642 -0.5782 -1.5765 -0.3550
  112OSM   H15S11649  -0.499   4.393   9.707  1.2889 -1.1034 -0.9838
  112OSM   H15T11650  -0.457   4.530   9.601 -0.7531  0.6756  2.2886
  112OSM   C16S11651  -0.618   4.397   9.534  1.3172 -0.2480 -0.2232
  112OSM   H16S11652  -0.631   4.457   9.441  0.2665 -0.5091 -0.2457
  112OSM   H16T11653  -0.714   4.359   9.573  0.9968  0.3441 -0.4196
  112OSM   C17S11654  -0.546   4.275   9.478 -0.3718 -0.2190 -0.3248
  112OSM   H17S11655  -0.592   4.242   9.383 -0.4270  0.8393 -0.6688
  112OSM   H17T11656  -0.560   4.192   9.551 -0.6589 -1.2544 -1.5467
  112OSM   C18S11657  -0.400   4.296   9.461  0.1421 -0.4137  0.3004
  112OSM   H18S11658  -0.349   4.198   9.475  2.2453  0.7039  0.7801
  112OSM   H18T11659  -0.344   4.359   9.534  0.5294  1.5280 -1.6177
  112OSM   H18U11660  -0.375   4.318   9.355  1.3191  1.8858  1.0268
  112OSM    C1F11661  -0.178   5.347  10.543 -0.0350 -0.3208 -0.5688
  112OSM     OF11662  -0.103   5.282  10.615  0.6022 -0.0353 -0.8839
  112OSM    C2F11663  -0.126   5.437  10.432  0.0051  0.4219  0.7616
  112OSM    H2F11664  -0.037   5.484  10.478  2.2472 -3.9898  1.2734
  112OSM    H2G11665  -0.209   5.504  10.400  0.3121  0.4111 -0.0789
  112OSM    C3F11666  -0.073   5.339  10.328  0.6505  0.0201  0.1828
  112OSM    H3F11667  -0.150   5.265  10.298  1.4950 -0.5473 -0.5915
  112OSM    H3G11668   0.019   5.293  10.370  1.1221 -0.0856 -0.9541
  112OSM    C4F11669  -0.035   5.407  10.195  0.1027 -1.0689  0.1665
  112OSM    H4F11670   0.003   5.326  10.129  0.9189 -1.3911  1.0239
  112OSM    H4G11671   0.053   5.471  10.217 -1.2674  0.6665  0.7070
  112OSM    C5F11672  -0.140   5.486  10.121  0.6455  0.6641  0.2894
  112OSM    H5F11673  -0.149   5.586  10.168  1.6880  0.5444  0.7399
  112OSM    H5G11674  -0.238   5.433  10.125  0.6697  0.6524  0.7866
  112OSM    C6F11675  -0.126   5.502   9.969  0.1707 -0.3744  0.5325
  112OSM    H6F11676  -0.218   5.549   9.928  0.8145  1.9117  1.6021
  112OSM    H6G11677  -0.100   5.401   9.930  2.2309  0.9495 -1.6087
  112OSM    C7F11678  -0.004   5.591   9.925  0.9662 -0.4026  0.4650
  112OSM    H7F11679   0.083   5.525   9.945 -0.0857 -2.1687 -0.6622
  112OSM    H7G11680  -0.004   5.674  10.000  0.1476  0.4252 -0.4312
  112OSM    C8F11681  -0.017   5.630   9.774 -0.0904 -0.2161 -0.7639
  112OSM    H8F11682   0.070   5.694   9.752 -0.3581 -0.6836 -3.4035
  112OSM    H8G11683  -0.108   5.692   9.760  0.5006  1.4508  2.2681
  112OSM    C9F11684  -0.003   5.510   9.685  1.2433  0.1243 -0.4566
  112OSM    H9F11685   0.094   5.459   9.695  1.6419  0.5356 -2.1063
  112OSM   C10F11686  -0.084   5.465   9.588  0.2366  0.1164  0.4441
  112OSM   H10F11687  -0.048   5.387   9.519 -0.8115  0.4326 -0.4902
  112OSM   C11F11688  -0.211   5.540   9.551  0.1196  0.0777  0.1092
  112OSM   H11F11689  -0.195   5.643   9.591  2.1768  0.1035 -0.7135
  112OSM   H11G11690  -0.306   5.498   9.589 -0.2419 -0.2143 -1.1224
  112OSM   C12F11691  -0.218   5.559   9.396 -0.9426  0.3051 -0.6579
  112OSM   H12F11692  -0.223   5.456   9.355 -2.1581  0.9942 -2.3030
  112OSM   H12G11693  -0.128   5.616   9.363 -1.5181  1.0329 -1.0000
  112OSM   C13F11694  -0.338   5.628   9.344 -0.2595  0.1580 -0.0632
  112OSM   H13F11695  -0.327   5.736   9.363 -1.0371  0.4418 -1.1180
  112OSM   H13G11696  -0.428   5.585   9.392  2.0993 -1.9610  2.6345
  112OSM   C14F11697  -0.347   5.625   9.194 -0.1508 -0.0570  0.5592
  112OSM   H14F11698  -0.369   5.522   9.159  2.3316 -0.2310 -0.5890
  112OSM   H14G11699  -0.254   5.654   9.140  0.3400 -1.9010  0.3940
  112OSM   C15F11700  -0.469   5.711   9.159 -0.2324 -0.1468  0.4602
  112OSM   H15F11701  -0.460   5.808   9.212 -0.4417  0.2682 -0.2612
  112OSM   H15G11702  -0.560   5.661   9.199 -0.4568  1.5095  2.0840
  112OSM   C16F11703  -0.505   5.719   9.011 -0.2895 -0.0955 -0.4052
  112OSM   H16F11704  -0.504   5.620   8.960 -0.2583  0.5078 -1.6017
  112OSM   H16G11705  -0.437   5.790   8.960 -0.4720 -0.2987 -0.9347
  112OSM   C17F11706  -0.646   5.763   8.982 -0.2895  0.2100  1.0659
  112OSM   H17F11707  -0.676   5.851   9.043 -1.3742  0.5894 -0.0137
  112OSM   H17G11708  -0.714   5.677   9.001  2.5267 -1.8331  2.3493
  112OSM   C18F11709  -0.655   5.795   8.830  0.3726 -0.4462  0.3484
  112OSM   H18F11710  -0.662   5.702   8.770 -0.6047  1.0270 -1.8296
  112OSM   H18G11711  -0.564   5.850   8.797 -0.4904  0.9000  0.2026
  112OSM   H18H11712  -0.739   5.854   8.789  2.1993  2.8537  1.1556
  113OSM      N11713   3.546   1.548  10.978  0.1366 -0.0549  0.0204
  113OSM    C1511714   3.590   1.653  11.085  0.7401  0.3319  0.3634
  113OSM   H15A11715   3.677   1.707  11.053  0.9009 -1.2997 -2.0413
  113OSM   H15B11716   3.620   1.603  11.176 -1.2894 -0.4368  0.6318
  113OSM   H15C11717   3.507   1.720  11.101  1.7951  1.4594  1.2103
  113OSM    C1411718   3.640   1.437  10.952 -0.2166  1.2291 -0.7928
  113OSM   H14A11719   3.601   1.371  10.876  2.7156  0.8866 -2.0547
  113OSM   H14B11720   3.659   1.378  11.041 -0.0075 -0.8655 -2.1997
  113OSM   H14C11721   3.736   1.477  10.923  1.1862 -1.2638  0.2856
  113OSM    C1311722   3.416   1.478  11.018  0.8655  0.3440  0.2515
  113OSM   H13A11723   3.336   1.545  11.044  0.3397 -0.1581 -0.0776
  113OSM   H13B11724   3.440   1.403  11.092  0.7636 -0.2460 -0.3105
  113OSM   H13C11725   3.379   1.423  10.933 -2.3228  1.0989  1.0782
  113OSM    C1211726   3.522   1.615  10.844 -0.1914  0.8465 -0.4790
  113OSM   H12A11727   3.502   1.537  10.772 -2.4996 -1.0291  2.0857
  113OSM   H12B11728   3.615   1.654  10.808 -0.6563  1.1621 -1.3584
  113OSM    C1111729   3.420   1.726  10.832  0.1459  0.4746  0.3740
  113OSM   H11A11730   3.317   1.688  10.853  0.8147 -0.9066  1.2822
  113OSM   H11B11731   3.431   1.741  10.723 -0.6400 -2.1091 -0.1084
  113OSM      P11732   3.366   1.926  10.988  0.4038 -0.2444  0.2085
  113OSM    O1311733   3.334   1.848  11.107  0.9968 -0.3995  0.0434
  113OSM    O1411734   3.435   2.057  11.020  0.3691 -0.1183  0.1250
  113OSM    O1111735   3.244   1.958  10.896 -0.1377 -0.2833  0.4880
  113OSM    O1211736   3.464   1.843  10.897 -0.7764 -0.1459 -0.3633
  113OSM    C1S11737   3.280   1.999  10.764  0.4068 -0.4106  0.3165
  113OSM    H1S11738   3.293   1.912  10.697  0.2028 -0.5045  0.3989
  113OSM    H1T11739   3.373   2.058  10.750 -0.5233  1.3322  1.3711
  113OSM     NF11740   3.224   2.131  10.562 -0.3223  0.1363  0.0893
  113OSM    HNF11741   3.263   2.223  10.556  2.1447 -0.7282  2.0537
  113OSM    C2S11742   3.181   2.100  10.696  0.0557  0.4212  0.0203
  113OSM    H2S11743   3.085   2.049  10.673 -1.3976  3.1966 -0.2173
  113OSM    C3S11744   3.146   2.213  10.792 -0.1346  0.2020 -0.3293
  113OSM    H3S11745   3.239   2.268  10.817  0.1273  0.1673 -1.2019
  113OSM     O311746   3.078   2.171  10.912  0.4067  0.0388 -0.2052
  113OSM    HO311747   3.108   2.080  10.926  2.8767  0.8433 -0.0252
  113OSM    C4S11748   3.046   2.303  10.721  0.1853 -0.9374 -0.7073
  113OSM    H4S11749   2.959   2.254  10.674 -0.6872 -0.8184  0.7386
  113OSM    C5S11750   3.041   2.442  10.723  0.9040 -0.1200  0.2499
  113OSM    H5S11751   3.113   2.498  10.784  1.3597 -0.1136 -0.2950
  113OSM    C6S11752   2.946   2.532  10.645  0.1417 -0.4834 -0.1616
  113OSM    H6S11753   3.000   2.592  10.569 -0.6025  1.7149  0.9918
  113OSM    H6T11754   2.906   2.607  10.717 -2.0646 -1.6248 -0.1575
  113OSM    C7S11755   2.819   2.465  10.582 -0.0002 -0.8648 -0.7795
  113OSM    H7S11756   2.765   2.411  10.663 -1.6256  0.1617 -1.1485
  113OSM    H7T11757   2.838   2.398  10.496 -1.2504  0.0567 -1.7965
  113OSM    C8S11758   2.736   2.583  10.518  0.7899 -0.2853  0.4776
  113OSM    H8S11759   2.725   2.659  10.598  1.3197 -1.5627  1.8003
  113OSM    H8T11760   2.640   2.538  10.486  0.5029 -0.9668  2.2356
  113OSM    C9S11761   2.793   2.661  10.401  0.2422  0.0334  0.2795
  113OSM    H9S11762   2.868   2.731  10.443  0.4331 -0.2780  0.4496
  113OSM    H9T11763   2.710   2.718  10.352  1.3432  0.4023 -1.1999
  113OSM   C10S11764   2.841   2.566  10.289 -0.0899  0.6383 -0.5583
  113OSM   H10S11765   2.750   2.511  10.256 -0.4617  0.9031  0.0108
  113OSM   H10T11766   2.917   2.498  10.333  0.4713  1.1018 -0.8064
  113OSM   C11S11767   2.905   2.621  10.165 -0.5001  0.3976 -0.4247
  113OSM   H11S11768   3.011   2.649  10.183 -0.8624  3.0934 -2.0957
  113OSM   H11T11769   2.858   2.719  10.139 -1.4071 -0.5624 -2.4698
  113OSM   C12S11770   2.900   2.536  10.036  0.3913  0.5093  0.5421
  113OSM   H12S11771   2.795   2.510  10.009  0.1433  2.3854 -0.3482
  113OSM   H12T11772   2.935   2.433  10.055 -0.5031 -0.1185 -1.1115
  113OSM   C13S11773   2.965   2.591   9.912  0.7564  1.0267 -0.4472
  113OSM   H13S11774   3.072   2.597   9.944  1.0415  0.8463 -1.3500
  113OSM   H13T11775   2.924   2.691   9.885 -0.9384  0.4520 -0.0200
  113OSM   C14S11776   2.959   2.492   9.790  0.0595 -0.2012 -0.0199
  113OSM   H14S11777   2.850   2.469   9.778  0.7242 -2.2827 -2.5952
  113OSM   H14T11778   3.009   2.395   9.810 -2.0070 -1.3089 -0.0169
  113OSM   C15S11779   3.003   2.555   9.660 -0.4339 -0.6923 -0.0270
  113OSM   H15S11780   2.940   2.645   9.643  1.1364  0.3970 -0.1429
  113OSM   H15T11781   2.979   2.481   9.580  0.3234 -1.4446  0.4336
  113OSM   C16S11782   3.149   2.597   9.658 -1.0077  0.3413 -0.7640
  113OSM   H16S11783   3.209   2.503   9.654  2.5222  2.4776  0.0092
  113OSM   H16T11784   3.177   2.645   9.754 -1.6081 -1.0476  0.1322
  113OSM   C17S11785   3.181   2.671   9.529 -0.5935  0.1238  0.0091
  113OSM   H17S11786   3.149   2.612   9.440  0.5048  0.0549 -0.3447
  113OSM   H17T11787   3.292   2.679   9.526 -0.7230  2.1432  0.1848
  113OSM   C18S11788   3.120   2.814   9.522  0.4854  0.4459  0.0999
  113OSM   H18S11789   3.121   2.861   9.422  2.0201  1.9689  0.8009
  113OSM   H18T11790   3.152   2.887   9.599  2.7145 -1.1887  0.7767
  113OSM   H18U11791   3.010   2.814   9.542  0.9374  3.5419  3.1560
  113OSM    C1F11792   3.223   2.048  10.459 -0.2710  0.0640  0.0925
  113OSM     OF11793   3.165   1.937  10.459  0.3480  0.1537 -0.2971
  113OSM    C2F11794   3.304   2.090  10.341  0.5907  0.1747  0.1505
  113OSM    H2F11795   3.405   2.081  10.386  0.2197 -1.7815  0.6536
  113OSM    H2G11796   3.279   2.197  10.326  2.0201  0.8759  2.5248
  113OSM    C3F11797   3.276   1.998  10.219  0.1078 -0.8403 -0.4329
  113OSM    H3F11798   3.169   1.987  10.191 -0.5238 -0.2720  1.6181
  113OSM    H3G11799   3.301   1.894  10.248 -0.0729 -1.1275 -1.3015
  113OSM    C4F11800   3.371   2.024  10.099 -0.3882  0.0667  0.1143
  113OSM    H4F11801   3.374   1.934  10.034  1.5035 -0.2269  0.5619
  113OSM    H4G11802   3.478   2.032  10.129  0.2256 -1.4391 -1.6163
  113OSM    C5F11803   3.329   2.147  10.010  0.3290  0.0873 -0.5549
  113OSM    H5F11804   3.422   2.177   9.957  0.0327  0.4352 -0.8772
  113OSM    H5G11805   3.319   2.237  10.075  1.1992  0.2723 -0.6626
  113OSM    C6F11806   3.219   2.113   9.914  0.0502  0.4854  0.5769
  113OSM    H6F11807   3.193   2.210   9.867  1.6812 -0.8429 -3.2579
  113OSM    H6G11808   3.125   2.084   9.964 -0.3926 -1.0063 -1.0739
  113OSM    C7F11809   3.249   2.019   9.799  0.0860 -0.1122 -0.3333
  113OSM    H7F11810   3.156   2.000   9.741 -0.3946  0.0231  0.3862
  113OSM    H7G11811   3.273   1.925   9.853 -1.0387  1.0656  2.2973
  113OSM    C8F11812   3.366   2.047   9.709 -0.1337  0.8297 -0.5796
  113OSM    H8F11813   3.456   2.053   9.774 -1.6164  0.8450  1.5350
  113OSM    H8G11814   3.352   2.144   9.658  1.4810  0.2281 -2.2242
  113OSM    C9F11815   3.368   1.921   9.627 -0.8084 -0.5688 -0.1562
  113OSM    H9F11816   3.377   1.830   9.687  0.5578 -0.4436 -0.1621
  113OSM   C10F11817   3.368   1.915   9.493 -0.4145  0.3600 -0.6763
  113OSM   H10F11818   3.378   1.813   9.454 -1.7618  0.1235 -0.4185
  113OSM   C11F11819   3.360   2.031   9.393 -0.2310  0.3023  0.2462
  113OSM   H11F11820   3.454   2.064   9.345  0.0576 -2.0779 -0.9103
  113OSM   H11G11821   3.316   2.123   9.437  0.6103  0.8888 -0.1185
  113OSM   C12F11822   3.264   1.995   9.277  0.2359  0.2497  0.4303
  113OSM   H12F11823   3.164   1.983   9.323  0.6467 -0.2242  1.2169
  113OSM   H12G11824   3.296   1.899   9.230  0.7557  1.4058 -1.6631
  113OSM   C13F11825   3.270   2.097   9.166  0.3337  0.3086  0.9045
  113OSM   H13F11826   3.371   2.113   9.124  1.1376 -2.6992  1.5481
  113OSM   H13G11827   3.238   2.195   9.208 -1.9717 -1.1224  2.6397
  113OSM   C14F11828   3.178   2.050   9.054  0.1630 -0.5381  0.2815
  113OSM   H14F11829   3.086   2.011   9.103  1.2391 -0.3527  2.4998
  113OSM   H14G11830   3.221   1.964   8.999 -1.4401 -1.1264 -0.0963
  113OSM   C15F11831   3.127   2.159   8.948  0.6511  0.4650 -0.1442
  113OSM   H15F11832   3.217   2.185   8.889  0.3469 -0.5486 -1.0718
  113OSM   H15G11833   3.107   2.253   9.004  0.5872 -0.3150  1.1750
  113OSM   C16F11834   3.021   2.089   8.872  0.2724  0.6249  0.0405
  113OSM   H16F11835   2.943   2.052   8.942  0.5183  1.3666  0.7186
  113OSM   H16G11836   3.070   2.007   8.815  2.1075  2.0040 -0.4091
  113OSM   C17F11837   2.934   2.168   8.774  0.3511  0.2707  0.2884
  113OSM   H17F11838   2.891   2.254   8.829 -1.2594 -1.3737  1.6610
  113OSM   H17G11839   2.854   2.101   8.738 -0.4740  1.5375 -0.2585
  113OSM   C18F11840   2.994   2.230   8.651 -0.5871 -0.2985  0.4390
  113OSM   H18F11841   2.914   2.263   8.581  0.1888 -0.3995 -0.5070
  113OSM   H18G11842   3.068   2.163   8.602  0.9672  1.6643  0.0435
  113OSM   H18H11843   3.030   2.327   8.690  0.3435 -2.2261  4.6103
  114OSM      N11844   4.229   5.013  10.938  0.0791  0.1468  0.2406
  114OSM    C1511845   4.368   5.018  10.992  0.4119  0.4232  0.6579
  114OSM   H15A11846   4.423   4.961  10.918  0.8613  1.1219  0.4479
  114OSM   H15B11847   4.377   4.968  11.087  0.1882 -2.5135 -0.7693
  114OSM   H15C11848   4.410   5.117  10.995  1.2006  0.0475  3.5302
  114OSM    C1411849   4.135   5.091  11.031  0.0769  0.4244  0.0829
  114OSM   H14A11850   4.160   5.194  11.052  0.6210  0.3241 -0.0760
  114OSM   H14B11851   4.136   5.054  11.132  1.3083  1.2947  0.4020
  114OSM   H14C11852   4.031   5.093  11.003  0.7341 -0.8268 -2.6223
  114OSM    C1311853   4.219   5.068  10.801  0.2148 -0.0843  0.6858
  114OSM   H13A11854   4.253   5.170  10.790  3.5506 -1.1906  0.1503
  114OSM   H13B11855   4.118   5.060  10.763  0.3773  0.7865  0.0760
  114OSM   H13C11856   4.282   5.011  10.734 -0.8493  0.7612 -1.0694
  114OSM    C1211857   4.184   4.863  10.933  0.3802  0.4335  0.2634
  114OSM   H12A11858   4.077   4.863  10.918  0.5079  2.5590 -0.8857
  114OSM   H12B11859   4.195   4.821  11.032  1.5424 -3.3791 -1.4152
  114OSM    C1111860   4.249   4.757  10.842  0.0184 -0.1485  1.1239
  114OSM   H11A11861   4.226   4.793  10.740  1.3764  3.0267  1.8823
  114OSM   H11B11862   4.194   4.661  10.851 -2.4187  1.1845  0.8661
  114OSM      P11863   4.468   4.661  10.970 -0.0914  0.1002 -0.0003
  114OSM    O1311864   4.475   4.738  11.100  0.2439 -0.4397  0.3796
  114OSM    O1411865   4.413   4.531  10.975  0.6126  0.5792  0.4419
  114OSM    O1111866   4.612   4.655  10.923 -0.1238 -0.3471 -0.3692
  114OSM    O1211867   4.395   4.744  10.853 -0.2638  0.3089  0.3783
  114OSM    C1S11868   4.656   4.618  10.798  0.4428 -0.0178  0.8008
  114OSM    H1S11869   4.576   4.586  10.728  0.3583  0.5274  0.6416
  114OSM    H1T11870   4.721   4.528  10.803  0.8815  0.2898  0.7492
  114OSM     NF11871   4.757   4.705  10.589  0.5709  0.2301  0.7322
  114OSM    HNF11872   4.836   4.645  10.574 -1.5243 -2.0009 -2.0887
  114OSM    C2S11873   4.744   4.727  10.731  0.4320  0.1674  0.0910
  114OSM    H2S11874   4.688   4.821  10.754 -0.9697 -0.7258  0.3983
  114OSM    C3S11875   4.872   4.741  10.801 -0.7705 -0.2542 -1.0607
  114OSM    H3S11876   4.924   4.645  10.783 -1.5283 -0.2314 -3.6137
  114OSM     O311877   4.863   4.754  10.944 -0.7255  0.2740  0.1325
  114OSM    HO311878   4.787   4.705  10.974  1.5081 -2.5860  1.3524
  114OSM    C4S11879   4.957   4.851  10.753 -0.4946 -0.5944 -0.8344
  114OSM    H4S11880   4.913   4.950  10.769 -1.4453 -0.8837 -1.6038
  114OSM    C5S11881   5.073   4.830  10.687  0.1881  0.0902  0.1491
  114OSM    H5S11882   5.107   4.731  10.654  0.3803 -0.3522  1.6596
  114OSM    C6S11883   5.157   4.943  10.634 -0.9899 -0.0796  0.2916
  114OSM    H6S11884   5.116   5.033  10.685 -1.4910  0.6744 -1.3928
  114OSM    H6T11885   5.142   4.961  10.525  1.0282  1.1556  0.1867
  114OSM    C7S11886   5.308   4.941  10.663 -0.2828  0.1083 -0.0833
  114OSM    H7S11887   5.325   4.959  10.771  1.3080 -0.8825 -0.1535
  114OSM    H7T11888   5.365   5.021  10.611  0.5106 -0.5759 -0.2891
  114OSM    C8S11889   5.377   4.808  10.623  0.4557  0.2060 -0.3349
  114OSM    H8S11890   5.359   4.728  10.698 -1.0328  0.0144 -0.8837
  114OSM    H8T11891   5.487   4.815  10.632  0.4046 -0.4911  1.0768
  114OSM    C9S11892   5.343   4.753  10.488  0.4848 -0.3423  0.3478
  114OSM    H9S11893   5.234   4.769  10.475  0.0811 -1.9305  1.6101
  114OSM    H9T11894   5.358   4.643  10.495 -0.2052 -0.3586  1.9656
  114OSM   C10S11895   5.422   4.837  10.376 -0.3117  0.5497  0.1459
  114OSM   H10S11896   5.529   4.838  10.408 -0.4747 -0.5558  0.7844
  114OSM   H10T11897   5.382   4.940  10.377 -0.6470  0.4792 -2.8942
  114OSM   C11S11898   5.389   4.787  10.232 -0.2940 -0.2690 -0.3564
  114OSM   H11S11899   5.278   4.789  10.229 -0.2775  1.5026 -0.5187
  114OSM   H11T11900   5.427   4.683  10.222 -0.4218 -0.2863 -0.6641
  114OSM   C12S11901   5.439   4.881  10.121 -0.2639  0.1847 -0.2641
  114OSM   H12S11902   5.548   4.896  10.133 -0.3344  0.4489  0.0957
  114OSM   H12T11903   5.398   4.982  10.144 -0.5807 -0.0747  0.3530
  114OSM   C13S11904   5.395   4.832   9.981 -0.6079 -0.2870  0.6891
  114OSM   H13S11905   5.287   4.807   9.988 -1.0336  2.1621  3.7011
  114OSM   H13T11906   5.445   4.734   9.964 -0.3690 -0.2626  1.2479
  114OSM   C14S11907   5.428   4.937   9.867  0.2777 -0.3510  0.1864
  114OSM   H14S11908   5.536   4.962   9.857  0.0467 -0.0544 -1.8829
  114OSM   H14T11909   5.377   5.035   9.881  0.1316  0.0804 -2.8380
  114OSM   C15S11910   5.370   4.906   9.729  0.0448  0.1958  0.0327
  114OSM   H15S11911   5.392   4.991   9.660  0.1722  0.1508  0.0196
  114OSM   H15T11912   5.259   4.899   9.734 -0.2254  1.3312 -3.1532
  114OSM   C16S11913   5.437   4.783   9.662 -0.4669  0.6431  0.2841
  114OSM   H16S11914   5.442   4.709   9.746  0.0284 -1.1417 -1.2789
  114OSM   H16T11915   5.543   4.793   9.631 -0.4614  0.5271  0.2649
  114OSM   C17S11916   5.349   4.723   9.550 -0.7810 -0.3392 -0.4660
  114OSM   H17S11917   5.246   4.726   9.590 -0.1913  1.7153  1.0297
  114OSM   H17T11918   5.383   4.618   9.541  0.1594 -0.0926  0.0831
  114OSM   C18S11919   5.368   4.795   9.420 -0.1091 -0.4258  0.3622
  114OSM   H18S11920   5.310   4.890   9.428 -2.1761 -1.6268  0.1724
  114OSM   H18T11921   5.319   4.742   9.335  2.6630 -1.3381 -0.7395
  114OSM   H18U11922   5.474   4.801   9.388 -0.5432  3.1679 -0.5784
  114OSM    C1F11923   4.666   4.720  10.496 -0.1519 -0.2050  0.2660
  114OSM     OF11924   4.557   4.764  10.518  0.0968  0.2369  0.1227
  114OSM    C2F11925   4.699   4.650  10.364 -0.0289  0.3745 -0.7054
  114OSM    H2F11926   4.608   4.593  10.334 -0.6835  1.2530 -0.4192
  114OSM    H2G11927   4.764   4.563  10.384  0.7265 -0.0368 -4.5862
  114OSM    C3F11928   4.761   4.734  10.247  0.4324  0.9923  0.1937
  114OSM    H3F11929   4.855   4.773  10.292 -0.6686  1.4203  2.1765
  114OSM    H3G11930   4.697   4.824  10.236  0.9524  1.2577 -0.7143
  114OSM    C4F11931   4.765   4.655  10.111 -0.2294  0.3707  0.3611
  114OSM    H4F11932   4.670   4.602  10.090  0.5804 -1.5086  1.3758
  114OSM    H4G11933   4.835   4.569  10.117  0.4531  0.8837 -0.1565
  114OSM    C5F11934   4.816   4.745   9.997  0.0040  0.4394 -0.0998
  114OSM    H5F11935   4.912   4.799  10.012  0.4717 -0.4222  0.0137
  114OSM    H5G11936   4.738   4.823   9.980 -2.4391 -1.5291  1.6995
  114OSM    C6F11937   4.826   4.658   9.871  0.3564  0.0690 -0.2453
  114OSM    H6F11938   4.723   4.624   9.848  0.5298  0.8072 -2.2048
  114OSM    H6G11939   4.889   4.567   9.873 -0.1878 -0.3604 -2.0223
  114OSM    C7F11940   4.871   4.754   9.755  0.3823  0.5233  0.3718
  114OSM    H7F11941   4.957   4.807   9.801 -2.0608  2.2449  3.1786
  114OSM    H7G11942   4.797   4.837   9.747 -1.1171 -0.5461  2.8305
  114OSM    C8F11943   4.896   4.681   9.620 -0.8937 -0.4776  1.1265
  114OSM    H8F11944   4.810   4.633   9.571 -0.0984  0.4282 -1.1998
  114OSM    H8G11945   4.970   4.601   9.640 -0.0458 -0.3557 -1.3824
  114OSM    C9F11946   4.959   4.767   9.514 -0.1755  0.0447  0.0721
  114OSM    H9F11947   4.936   4.874   9.522  0.3642  0.2478 -0.9986
  114OSM   C10F11948   5.031   4.725   9.404  0.0225 -0.2815 -0.6606
  114OSM   H10F11949   5.070   4.799   9.333 -0.3618  1.3701  0.8258
  114OSM   C11F11950   5.067   4.580   9.369 -0.1732  0.1619  0.5721
  114OSM   H11F11951   5.008   4.508   9.430 -0.1606 -0.2203  0.1323
  114OSM   H11G11952   5.170   4.567   9.409  0.0380  1.8652  0.6236
  114OSM   C12F11953   5.076   4.552   9.217  0.7214  0.0624  0.0695
  114OSM   H12F11954   5.117   4.450   9.198 -1.5056 -0.4688 -2.1204
  114OSM   H12G11955   5.150   4.623   9.173  0.4433 -0.0560 -0.5928
  114OSM   C13F11956   4.938   4.554   9.134 -0.1392 -0.5981  0.7732
  114OSM   H13F11957   4.920   4.657   9.098  3.1785 -0.6888 -1.3107
  114OSM   H13G11958   4.857   4.532   9.207  0.1495 -0.7819  1.0413
  114OSM   C14F11959   4.950   4.461   9.014 -0.2801 -0.0129  0.2076
  114OSM   H14F11960   4.972   4.357   9.047  0.0283 -0.5447 -1.6039
  114OSM   H14G11961   5.032   4.498   8.949 -0.2920 -1.1995 -0.4909
  114OSM   C15F11962   4.819   4.468   8.923 -0.0849 -0.4729  0.2247
  114OSM   H15F11963   4.790   4.574   8.905 -1.2256 -0.6458  1.0348
  114OSM   H15G11964   4.749   4.407   8.983  1.1534 -0.4151  1.7432
  114OSM   C16F11965   4.839   4.401   8.782  0.2215 -0.1278 -0.2693
  114OSM   H16F11966   4.909   4.465   8.724 -0.2982  1.1368  0.4642
  114OSM   H16G11967   4.740   4.401   8.731 -0.5588 -1.0047  1.2043
  114OSM   C17F11968   4.907   4.263   8.796  0.1749  0.2177  0.4158
  114OSM   H17F11969   4.844   4.207   8.868 -1.0878  0.0269 -0.8239
  114OSM   H17G11970   5.011   4.278   8.834  0.4177  2.2299 -0.9535
  114OSM   C18F11971   4.929   4.204   8.659  0.1753  1.1923 -0.0075
  114OSM   H18F11972   4.996   4.115   8.666 -2.8307 -1.0166  2.0868
  114OSM   H18G11973   4.981   4.278   8.594  0.5436  1.7036  0.8614
  114OSM   H18H11974   4.837   4.179   8.602  1.4383 -2.1267 -0.7142
  115OSM      N11975   2.172   4.553  11.053 -0.7712 -0.8092 -0.0538
  115OSM    C1511976   2.099   4.645  11.147  0.0085  0.5921 -0.3375
  115OSM   H15A11977   2.078   4.742  11.103  0.6938  0.6148 -0.6180
  115OSM   H15B11978   2.149   4.660  11.241  0.4667  0.4430 -0.5574
  115OSM   H15C11979   1.997   4.615  11.165 -0.1590  2.1305  1.4860
  115OSM    C1411980   2.086   4.530  10.930 -0.0524 -0.4761 -0.1548
  115OSM   H14A11981   2.007   4.466  10.967  0.3681 -0.7473  0.2968
  115OSM   H14B11982   2.153   4.472  10.868 -0.9292 -2.8015  1.0057
  115OSM   H14C11983   2.053   4.624  10.890  1.3791 -0.4412 -1.2715
  115OSM    C1311984   2.295   4.626  10.998  0.3942 -0.9575 -0.6278
  115OSM   H13A11985   2.274   4.726  10.966  0.0414 -0.2974  1.5566
  115OSM   H13B11986   2.331   4.574  10.911  2.9528  1.6911 -1.2203
  115OSM   H13C11987   2.375   4.646  11.068  0.9301 -1.6766 -1.0330
  115OSM    C1211988   2.212   4.419  11.114  0.0865 -0.0619 -0.0387
  115OSM   H12A11989   2.124   4.383  11.164  0.0883 -1.4819 -1.0164
  115OSM   H12B11990   2.276   4.433  11.200  2.4287 -2.3625 -1.3329
  115OSM    C1111991   2.255   4.301  11.022  0.6081  0.5472 -0.1530
  115OSM   H11A11992   2.283   4.226  11.099  1.0744 -0.8320 -1.6288
  115OSM   H11B11993   2.343   4.338  10.965  0.3797  0.9498 -0.2442
  115OSM      P11994   2.040   4.155  10.976  0.3212  0.3065  0.4466
  115OSM    O1311995   2.082   4.033  11.047  0.9311 -0.6929  0.1349
  115OSM    O1411996   1.932   4.241  11.037 -0.1470  0.3284  0.4204
  115OSM    O1111997   1.985   4.109  10.834 -0.3940 -0.1358  0.1841
  115OSM    O1211998   2.158   4.254  10.930  0.1480  0.2676 -0.6589
  115OSM    C1S11999   1.927   4.193  10.736  0.3004  0.3158  0.2009
  115OSM    H1S12000   1.984   4.284  10.709 -0.2216  0.2648 -1.1205
  115OSM    H1T12001   1.831   4.238  10.767 -0.5256  0.2630 -2.1816
  115OSM     NF12002   1.893   4.240  10.505 -0.3237 -0.4075  0.4783
  115OSM    HNF12003   1.805   4.273  10.471  0.2841  1.6610  0.7973
  115OSM    C2S12004   1.892   4.127  10.598  0.6092  0.1999 -0.2241
  115OSM    H2S12005   1.967   4.049  10.576 -2.0753 -2.1092 -1.4602
  115OSM    C3S12006   1.749   4.067  10.617 -0.5284  0.0570  0.6534
  115OSM    H3S12007   1.688   4.157  10.636 -0.5467 -0.1540  1.6405
  115OSM     O312008   1.730   3.986  10.731  0.5701  0.3531  0.5909
  115OSM    HO312009   1.815   3.996  10.775  0.7144  0.5584  0.2724
  115OSM    C4S12010   1.716   4.002  10.484  0.0247 -0.4272  0.3553
  115OSM    H4S12011   1.680   4.070  10.405 -0.2144 -1.5131 -0.4881
  115OSM    C5S12012   1.750   3.881  10.432 -0.8907  0.1290  0.5264
  115OSM    H5S12013   1.808   3.808  10.490 -0.8906 -1.6050 -1.5927
  115OSM    C6S12014   1.716   3.823  10.295  0.5205 -0.5259 -0.2515
  115OSM    H6S12015   1.785   3.737  10.280  1.5866 -0.1991  2.4610
  115OSM    H6T12016   1.729   3.897  10.213  3.2665  0.0678  0.6644
  115OSM    C7S12017   1.576   3.758  10.292 -0.1925  0.0675  0.3684
  115OSM    H7S12018   1.522   3.791  10.201 -1.4308  2.0970  1.8015
  115OSM    H7T12019   1.518   3.809  10.372  0.2249 -0.0512  0.7499
  115OSM    C8S12020   1.570   3.610  10.303 -0.1758  0.4058  0.4449
  115OSM    H8S12021   1.463   3.583  10.315  0.1339 -1.8866 -1.4627
  115OSM    H8T12022   1.618   3.572  10.396 -0.0086 -0.7615 -0.1063
  115OSM    C9S12023   1.628   3.539  10.182  0.4772  0.5170  0.9667
  115OSM    H9S12024   1.598   3.432  10.185  0.8591  0.2099 -2.8425
  115OSM    H9T12025   1.739   3.538  10.192  0.4889 -2.6603  0.9341
  115OSM   C10S12026   1.585   3.599  10.049 -0.1572  0.1520  0.2575
  115OSM   H10S12027   1.603   3.709  10.044  0.7314  0.1418  2.8206
  115OSM   H10T12028   1.476   3.578  10.040  0.1753 -1.3556 -0.4881
  115OSM   C11S12029   1.645   3.532   9.918  0.4733 -0.4081  0.8918
  115OSM   H11S12030   1.631   3.424   9.936  1.9685 -0.3103  2.9568
  115OSM   H11T12031   1.754   3.549   9.908 -0.1918  3.9052  0.0787
  115OSM   C12S12032   1.565   3.581   9.795  0.0233  0.3415  0.1790
  115OSM   H12S12033   1.581   3.686   9.765 -0.5703 -0.1337 -1.8783
  115OSM   H12T12034   1.458   3.562   9.818 -0.5183 -0.0803 -2.5374
  115OSM   C13S12035   1.591   3.481   9.681 -0.2186  1.1322  0.3741
  115OSM   H13S12036   1.561   3.376   9.704 -3.2826  1.7622 -0.4017
  115OSM   H13T12037   1.701   3.472   9.677 -0.3546 -0.4318 -0.3160
  115OSM   C14S12038   1.526   3.521   9.550  1.3383  0.7481 -0.2988
  115OSM   H14S12039   1.485   3.624   9.559 -1.2168  0.0786 -3.2555
  115OSM   H14T12040   1.433   3.467   9.520  1.4776  0.8602 -0.9378
  115OSM   C15S12041   1.618   3.525   9.422 -0.1468  0.1551  0.3973
  115OSM   H15S12042   1.621   3.416   9.400 -1.6108  0.1343  0.2606
  115OSM   H15T12043   1.711   3.580   9.448  0.8233 -1.0748 -0.4336
  115OSM   C16S12044   1.558   3.599   9.293  0.4966  0.4029  0.2508
  115OSM   H16S12045   1.621   3.575   9.205  1.2450  3.5713 -0.1330
  115OSM   H16T12046   1.563   3.709   9.309  0.2341  0.4322  0.1312
  115OSM   C17S12047   1.413   3.562   9.252 -0.1704  0.2041  0.2651
  115OSM   H17S12048   1.336   3.602   9.323 -0.0140  0.9357  0.0253
  115OSM   H17T12049   1.399   3.452   9.257  1.5898 -0.1513 -2.0740
  115OSM   C18S12050   1.379   3.594   9.113  0.1987  0.1629  0.2826
  115OSM   H18S12051   1.279   3.560   9.079  0.0954  3.0886 -2.5740
  115OSM   H18T12052   1.458   3.560   9.042  0.5272  1.3097  0.0875
  115OSM   H18U12053   1.375   3.705   9.106 -1.6611  0.1391  0.8491
  115OSM    C1F12054   2.006   4.290  10.453 -0.3959  0.7850 -0.1324
  115OSM     OF12055   2.113   4.280  10.508  0.0118  0.6375  0.1449
  115OSM    C2F12056   1.989   4.362  10.327 -0.4199  0.3867  0.5561
  115OSM    H2F12057   1.984   4.472  10.343  1.4000  0.4463  0.8549
  115OSM    H2G12058   1.912   4.316  10.262 -0.0194  0.1201  0.2673
  115OSM    C3F12059   2.117   4.327  10.236  0.0656 -0.4415  0.1137
  115OSM    H3F12060   2.150   4.222  10.248  2.4982  0.3693  1.0324
  115OSM    H3G12061   2.205   4.389  10.266 -0.4796  1.0149 -1.2449
  115OSM    C4F12062   2.085   4.351  10.088 -0.7015  0.2326 -0.7361
  115OSM    H4F12063   2.002   4.283  10.063 -1.4811  0.2145  1.7266
  115OSM    H4G12064   2.176   4.323  10.031 -0.5626 -1.4169  0.2633
  115OSM    C5F12065   2.053   4.491  10.046  0.1485 -0.5473  0.4184
  115OSM    H5F12066   2.139   4.558  10.064  0.5553 -0.8973 -0.2047
  115OSM    H5G12067   1.961   4.530  10.095  0.7374 -0.3724  1.4102
  115OSM    C6F12068   2.047   4.495   9.892 -0.5050  0.3801  0.2243
  115OSM    H6F12069   1.968   4.429   9.850 -0.1347 -1.0663  1.7328
  115OSM    H6G12070   2.142   4.457   9.848 -0.1986  1.7542 -0.2994
  115OSM    C7F12071   2.021   4.642   9.866 -0.0029  0.4805 -0.3361
  115OSM    H7F12072   2.116   4.699   9.858  0.9383 -0.9335  0.5998
  115OSM    H7G12073   1.962   4.679   9.952  1.9150 -0.4472  1.4336
  115OSM    C8F12074   1.955   4.673   9.728  0.3758  0.8769 -0.0606
  115OSM    H8F12075   1.949   4.783   9.714 -0.0660  0.8612 -0.0140
  115OSM    H8G12076   1.853   4.632   9.744  0.2444  0.8887 -0.8287
  115OSM    C9F12077   2.033   4.603   9.612 -0.2047 -0.4602  0.5009
  115OSM    H9F12078   2.140   4.594   9.639 -0.4988 -1.7614  1.2988
  115OSM   C10F12079   1.986   4.543   9.498  0.1452  0.7008 -0.1544
  115OSM   H10F12080   2.056   4.510   9.420  0.2921  0.2434  0.1724
  115OSM   C11F12081   1.839   4.546   9.459  0.2775  0.3638  0.0240
  115OSM   H11F12082   1.838   4.601   9.363  1.8177 -0.5868 -0.5446
  115OSM   H11G12083   1.781   4.611   9.529 -0.1070 -2.3398  2.3101
  115OSM   C12F12084   1.789   4.402   9.422 -0.0911  0.0136 -0.8116
  115OSM   H12F12085   1.683   4.396   9.389 -0.9549 -0.5132  1.9284
  115OSM   H12G12086   1.804   4.348   9.518  1.1086 -0.2028 -1.1105
  115OSM   C13F12087   1.868   4.328   9.311  0.6546 -0.9424  0.6192
  115OSM   H13F12088   1.858   4.217   9.320 -1.2924 -0.7079  1.6781
  115OSM   H13G12089   1.975   4.356   9.321  0.5759 -0.6276  0.5694
  115OSM   C14F12090   1.820   4.369   9.169 -0.2131  0.3824 -0.0618
  115OSM   H14F12091   1.891   4.337   9.090 -0.3442  1.5970 -0.6796
  115OSM   H14G12092   1.800   4.478   9.167 -0.9879  0.2609  0.7159
  115OSM   C15F12093   1.681   4.303   9.129 -0.5555 -0.5591 -0.7446
  115OSM   H15F12094   1.609   4.349   9.200 -0.7197 -0.1362 -1.1789
  115OSM   H15G12095   1.686   4.193   9.140  0.5811 -0.7143 -2.5139
  115OSM   C16F12096   1.612   4.343   8.991 -0.3452 -0.4413 -0.4089
  115OSM   H16F12097   1.518   4.284   8.985 -1.0578  0.8060 -1.7650
  115OSM   H16G12098   1.681   4.306   8.912  1.9720  1.3109  0.6991
  115OSM   C17F12099   1.578   4.489   8.971 -0.6033 -0.3167  0.4485
  115OSM   H17F12100   1.559   4.507   8.863 -0.7137 -0.2342  0.4828
  115OSM   H17G12101   1.661   4.556   9.003 -1.7140  1.0927  0.4376
  115OSM   C18F12102   1.454   4.534   9.053 -0.7473 -0.8970 -0.1428
  115OSM   H18F12103   1.470   4.533   9.163 -2.0404  2.2171  0.1245
  115OSM   H18G12104   1.375   4.462   9.021 -1.6958 -0.1149  0.4135
  115OSM   H18H12105   1.417   4.636   9.029  0.2419 -0.6979 -0.8357
  116OSM      N12106   5.474   0.735  11.506 -0.3467  0.2072 -0.3226
  116OSM    C1512107   5.383   0.851  11.523 -0.4736  0.1048 -0.6933
  116OSM   H15A12108   5.347   0.856  11.625  1.3283 -1.1827  0.0284
  116OSM   H15B12109   5.295   0.839  11.460 -1.1098  0.9674  0.0065
  116OSM   H15C12110   5.423   0.947  11.494  0.1943 -0.0023 -0.1398
  116OSM    C1412111   5.586   0.756  11.605 -0.8322  0.1403 -0.3219
  116OSM   H14A12112   5.620   0.858  11.611  2.1888 -0.8492 -0.0594
  116OSM   H14B12113   5.668   0.686  11.596  0.2776  1.2486  0.8895
  116OSM   H14C12114   5.534   0.740  11.699  1.6691 -0.7179  0.9513
  116OSM    C1312115   5.403   0.602  11.521 -0.7769 -0.1840  0.4460
  116OSM   H13A12116   5.356   0.598  11.619  0.5054 -0.1701  1.0672
  116OSM   H13B12117   5.476   0.523  11.524 -0.7493 -0.1774 -0.0660
  116OSM   H13C12118   5.329   0.580  11.445  0.3877  1.0256 -1.0658
  116OSM    C1212119   5.523   0.740  11.356  0.8112 -0.3749  0.1990
  116OSM   H12A12120   5.614   0.682  11.345  1.7939  1.2979 -0.8343
  116OSM   H12B12121   5.550   0.843  11.336  0.8730 -0.7742 -1.9615
  116OSM    C1112122   5.416   0.704  11.243 -0.2276 -0.3430 -0.3815
  116OSM   H11A12123   5.458   0.745  11.149  0.8422  2.2216  1.1843
  116OSM   H11B12124   5.324   0.763  11.263  0.4369  0.6446 -0.2080
  116OSM      P12125   5.417   0.460  11.148 -0.2866  0.0003 -0.0915
  116OSM    O1312126   5.561   0.420  11.166 -0.1967 -0.1927 -0.1403
  116OSM    O1412127   5.322   0.353  11.151  0.2357 -0.6614 -0.1837
  116OSM    O1112128   5.414   0.541  11.012 -0.0690 -0.0534 -0.0305
  116OSM    O1212129   5.379   0.566  11.251 -0.1141  0.1687  0.4806
  116OSM    C1S12130   5.461   0.485  10.890  0.1465  0.2863 -0.0457
  116OSM    H1S12131   5.389   0.408  10.856  0.2075  1.1382 -2.1864
  116OSM    H1T12132   5.562   0.438  10.903  0.9264  1.5181 -1.5558
  116OSM     NF12133   5.472   0.527  10.648  0.1766  0.0879 -0.0676
  116OSM    HNF12134   5.564   0.509  10.611 -1.0788 -1.6015 -2.5208
  116OSM    C2S12135   5.456   0.592  10.778 -0.2374  0.1918  0.3765
  116OSM    H2S12136   5.352   0.629  10.779 -0.2261  0.3493 -1.9561
  116OSM    C3S12137   5.557   0.697  10.801 -0.2394 -0.3816  0.6179
  116OSM    H3S12138   5.658   0.664  10.767  0.1666  0.3672  1.0954
  116OSM     O312139   5.575   0.734  10.936 -0.5730  0.0380 -0.3326
  116OSM    HO312140   5.525   0.667  10.984  0.7757 -1.1520 -0.5398
  116OSM    C4S12141   5.523   0.819  10.722 -0.0870  0.3131 -0.0945
  116OSM    H4S12142   5.551   0.807  10.616 -2.2483  0.4926 -0.7078
  116OSM    C5S12143   5.446   0.921  10.755  0.1362  0.3439 -0.5208
  116OSM    H5S12144   5.382   0.913  10.843  2.3940  0.3784  1.1582
  116OSM    C6S12145   5.431   1.038  10.659  0.4836 -0.4182 -0.0079
  116OSM    H6S12146   5.525   1.091  10.633 -1.1694  2.6257  0.0839
  116OSM    H6T12147   5.370   1.115  10.712 -1.4619 -2.3582  0.6533
  116OSM    C7S12148   5.369   1.022  10.517 -0.4784  0.2038  0.1797
  116OSM    H7S12149   5.274   0.964  10.519 -0.0194 -0.5408  0.5084
  116OSM    H7T12150   5.424   0.950  10.453 -2.1672 -0.8023 -0.1741
  116OSM    C8S12151   5.357   1.155  10.442  0.2857 -0.0546  0.0165
  116OSM    H8S12152   5.450   1.209  10.469  0.4211 -1.0960  1.7235
  116OSM    H8T12153   5.272   1.215  10.478 -0.3374  0.0653 -1.6144
  116OSM    C9S12154   5.351   1.132  10.291  1.1102 -0.1473 -0.1632
  116OSM    H9S12155   5.258   1.076  10.270  2.2121 -2.2646  0.4319
  116OSM    H9T12156   5.442   1.073  10.269  2.3344  1.6249  0.0285
  116OSM   C10S12157   5.354   1.257  10.204  0.2964 -0.3328 -0.6912
  116OSM   H10S12158   5.450   1.310  10.222  0.8970 -1.9619  1.0244
  116OSM   H10T12159   5.266   1.311  10.247 -0.0019 -2.1749  1.0678
  116OSM   C11S12160   5.331   1.239  10.064  0.7514  0.2806 -0.1809
  116OSM   H11S12161   5.308   1.331  10.007  0.1011 -0.7979 -1.6945
  116OSM   H11T12162   5.245   1.172  10.038  2.4776 -2.4812  0.9169
  116OSM   C12S12163   5.447   1.175  10.005 -0.4549  0.3860  0.4055
  116OSM   H12S12164   5.472   1.074  10.044  1.0621  1.2627  1.7913
  116OSM   H12T12165   5.538   1.229  10.039  0.6496 -0.5471 -1.0241
  116OSM   C13S12166   5.452   1.177   9.847  0.2434 -0.1197 -0.2088
  116OSM   H13S12167   5.536   1.243   9.814 -0.6632  1.8356  1.2828
  116OSM   H13T12168   5.358   1.218   9.804  0.1814 -1.3992 -1.2993
  116OSM   C14S12169   5.477   1.034   9.794 -0.0364 -0.1883  0.0546
  116OSM   H14S12170   5.383   0.979   9.816 -0.3543  0.2026 -0.3352
  116OSM   H14T12171   5.563   0.994   9.853  1.1915  0.8782 -0.9739
  116OSM   C15S12172   5.500   1.033   9.636  0.1309  0.0346 -0.4628
  116OSM   H15S12173   5.592   1.091   9.612 -0.3756  0.7913 -0.6184
  116OSM   H15T12174   5.415   1.084   9.584  2.3240  3.3198 -1.0006
  116OSM   C16S12175   5.537   0.899   9.568  0.6900  0.6753  0.3260
  116OSM   H16S12176   5.456   0.823   9.570 -0.2389  1.5813 -1.4265
  116OSM   H16T12177   5.633   0.867   9.615  1.2600 -0.4652 -1.5643
  116OSM   C17S12178   5.564   0.913   9.421 -0.2896  0.5545 -0.5785
  116OSM   H17S12179   5.665   0.957   9.406  0.5118 -1.2633 -0.6174
  116OSM   H17T12180   5.493   0.987   9.379  0.4245  1.4462 -0.2351
  116OSM   C18S12181   5.565   0.784   9.342  0.0284  0.4155 -0.0287
  116OSM   H18S12182   5.614   0.698   9.393 -0.0354 -0.3802 -1.2915
  116OSM   H18T12183   5.621   0.793   9.247  1.4174  1.0610  0.8485
  116OSM   H18U12184   5.460   0.748   9.329  0.4651 -1.1720  0.6546
  116OSM    C1F12185   5.372   0.464  10.591  0.3188  0.4216  0.6676
  116OSM     OF12186   5.252   0.468  10.624 -0.0892  0.5155  0.0007
  116OSM    C2F12187   5.413   0.395  10.463 -0.2280  0.6423  0.0156
  116OSM    H2F12188   5.516   0.354  10.467  0.1499  1.4758 -1.0571
  116OSM    H2G12189   5.425   0.465  10.378  2.2687  0.8504  0.5173
  116OSM    C3F12190   5.318   0.277  10.422  0.9469 -0.0141 -0.6437
  116OSM    H3F12191   5.231   0.320  10.368  0.2570 -0.7387 -0.1098
  116OSM    H3G12192   5.286   0.233  10.518 -0.5907  1.1427 -0.6079
  116OSM    C4F12193   5.392   0.179  10.332 -0.5075  0.5073 -0.0327
  116OSM    H4F12194   5.319   0.102  10.299 -0.6552  1.1713 -1.2621
  116OSM    H4G12195   5.480   0.125  10.374  0.5527  0.7893 -1.8412
  116OSM    C5F12196   5.436   0.237  10.200 -0.3317  0.0548  0.1849
  116OSM    H5F12197   5.536   0.282  10.219 -0.3137  0.3319 -0.5671
  116OSM    H5G12198   5.368   0.318  10.167 -0.1024  0.6633  1.1678
  116OSM    C6F12199   5.459   0.127  10.091 -0.3528 -0.0739 -0.8569
  116OSM    H6F12200   5.370   0.060  10.094  1.8016 -2.9306  2.4271
  116OSM    H6G12201   5.551   0.072  10.119  1.1595  1.3198 -2.9761
  116OSM    C7F12202   5.485   0.192   9.961  0.3286  0.7493 -0.4410
  116OSM    H7F12203   5.554   0.125   9.905 -0.4641  1.7167 -2.6048
  116OSM    H7G12204   5.532   0.293   9.967  2.0502 -0.0953  0.8138
  116OSM    C8F12205   5.358   0.212   9.881 -0.1025  0.0320 -0.0331
  116OSM    H8F12206   5.284   0.283   9.924 -2.1585 -1.5294 -0.9433
  116OSM    H8G12207   5.305   0.115   9.871  1.0147 -0.5050 -0.8680
  116OSM    C9F12208   5.403   0.248   9.738 -0.1279  0.4548 -0.5989
  116OSM    H9F12209   5.489   0.187   9.706 -0.4756  0.0680 -0.8056
  116OSM   C10F12210   5.359   0.347   9.664 -0.2124  0.7669  0.0758
  116OSM   H10F12211   5.405   0.355   9.565  2.3254 -0.7941  1.1076
  116OSM   C11F12212   5.259   0.460   9.702  0.1613 -1.0205 -0.4212
  116OSM   H11F12213   5.297   0.556   9.661  1.4666 -1.4117 -0.1239
  116OSM   H11G12214   5.242   0.479   9.810 -2.9379 -0.4937 -0.9558
  116OSM   C12F12215   5.116   0.453   9.639 -0.9105  0.0804  1.3260
  116OSM   H12F12216   5.066   0.552   9.642  2.7951  2.1090 -0.2237
  116OSM   H12G12217   5.050   0.386   9.698 -2.0813  0.0688  0.0505
  116OSM   C13F12218   5.110   0.410   9.487  0.8077 -0.4070  0.0594
  116OSM   H13F12219   5.077   0.304   9.475  1.7612 -0.7197  0.2264
  116OSM   H13G12220   5.207   0.425   9.435 -0.6796  0.6568 -2.5211
  116OSM   C14F12221   5.016   0.505   9.411  1.4132  0.2280  0.0305
  116OSM   H14F12222   5.014   0.495   9.301  1.7430  3.0267 -0.2745
  116OSM   H14G12223   5.049   0.608   9.439  0.5753  0.8514 -1.2370
  116OSM   C15F12224   4.871   0.485   9.449  0.4194  0.3208 -0.5434
  116OSM   H15F12225   4.855   0.499   9.558 -0.4963 -2.7057 -0.2388
  116OSM   H15G12226   4.855   0.378   9.426 -1.9422  0.4867  0.2487
  116OSM   C16F12227   4.783   0.590   9.377  0.2309  0.0292 -0.3863
  116OSM   H16F12228   4.843   0.651   9.305 -0.1844  1.8319  0.7609
  116OSM   H16G12229   4.736   0.654   9.454 -0.6543 -1.8932  0.7086
  116OSM   C17F12230   4.661   0.523   9.303 -0.6989  0.3557  0.0905
  116OSM   H17F12231   4.610   0.452   9.372  0.5396 -1.2999 -0.6727
  116OSM   H17G12232   4.692   0.450   9.226 -1.1513 -0.8005  0.9706
  116OSM   C18F12233   4.550   0.621   9.257  0.1923 -0.1353 -0.2580
  116OSM   H18F12234   4.468   0.581   9.194  0.3447 -0.3317 -0.3329
  116OSM   H18G12235   4.606   0.707   9.214  4.1479 -1.6373  1.5537
  116OSM   H18H12236   4.494   0.651   9.349 -0.0446  0.0301 -0.4562
  117OSM      N12237   2.937   1.969  11.196  0.3393  0.5756  0.5584
  117OSM    C1512238   2.887   1.854  11.276  0.2570 -0.3741  0.5681
  117OSM   H15A12239   2.780   1.856  11.290  0.2091  1.1869  0.1061
  117OSM   H15B12240   2.941   1.837  11.368  1.0719 -0.3660  0.0964
  117OSM   H15C12241   2.894   1.766  11.214 -2.2604  0.6914 -1.3251
  117OSM    C1412242   2.869   2.083  11.253 -0.7431  0.1362  0.0236
  117OSM   H14A12243   2.762   2.065  11.245 -0.5759 -0.8522 -0.1291
  117OSM   H14B12244   2.886   2.162  11.182  3.7985 -0.4965  0.2843
  117OSM   H14C12245   2.901   2.119  11.349 -0.1393 -0.2778 -0.0173
  117OSM    C1312246   3.088   1.972  11.213  0.0320  0.2418  0.3842
  117OSM   H13A12247   3.133   1.889  11.162  0.6478  0.2721  0.8745
  117OSM   H13B12248   3.124   1.966  11.315 -1.3900 -1.5728  0.8042
  117OSM   H13C12249   3.130   2.061  11.169 -2.1126  0.9157 -0.3643
  117OSM    C1212250   2.888   1.949  11.048  0.0304 -0.7786 -0.0493
  117OSM   H12A12251   2.911   2.037  10.990  1.2282 -1.0677 -0.0202
  117OSM   H12B12252   2.780   1.940  11.052 -0.2013  1.8603  0.3674
  117OSM    C1112253   2.947   1.838  10.974  0.6860  0.6193  0.2105
  117OSM   H11A12254   3.058   1.846  10.979  0.8315 -0.0526 -1.4921
  117OSM   H11B12255   2.918   1.854  10.868 -0.7462  0.6541  0.6020
  117OSM      P12256   2.936   1.573  10.974  0.1349  0.4107 -0.1120
  117OSM    O1312257   3.071   1.551  11.029  0.9149  0.2344  0.3548
  117OSM    O1412258   2.826   1.471  10.999 -0.2694 -0.9271  0.1428
  117OSM    O1112259   2.945   1.605  10.814 -0.0188  0.0492 -0.0110
  117OSM    O1212260   2.887   1.717  11.022 -0.0238 -0.3670 -0.0749
  117OSM    C1S12261   3.062   1.643  10.742 -0.3064  0.6676 -0.7190
  117OSM    H1S12262   3.145   1.582  10.784 -1.8198 -2.1792 -1.7723
  117OSM    H1T12263   3.089   1.749  10.762 -0.9206  0.6336  0.3477
  117OSM     NF12264   3.172   1.671  10.513  0.5570  0.2214 -0.3751
  117OSM    HNF12265   3.169   1.768  10.489  2.0404  0.0436 -1.2858
  117OSM    C2S12266   3.052   1.622  10.587  0.1505  0.2896  0.7208
  117OSM    H2S12267   3.027   1.515  10.567  2.8061 -0.3051  0.4692
  117OSM    C3S12268   2.927   1.712  10.541  0.5271 -0.2846 -0.2082
  117OSM    H3S12269   2.957   1.815  10.566 -0.3523  0.0044 -0.3298
  117OSM     O312270   2.800   1.698  10.614  0.3960 -0.0950 -0.2210
  117OSM    HO312271   2.827   1.644  10.689  1.7816  0.2775 -0.4276
  117OSM    C4S12272   2.907   1.713  10.394  0.3935  0.1740  0.3665
  117OSM    H4S12273   2.988   1.767  10.343 -0.7783  1.9674  0.3879
  117OSM    C5S12274   2.823   1.633  10.324 -0.4180  0.9712 -0.1273
  117OSM    H5S12275   2.758   1.564  10.379  0.1609 -0.1473 -0.8231
  117OSM    C6S12276   2.803   1.609  10.175  0.3450 -0.3318 -0.9867
  117OSM    H6S12277   2.704   1.646  10.142  0.6823  0.8427 -0.7166
  117OSM    H6T12278   2.809   1.499  10.166  1.6650 -0.5106  1.5014
  117OSM    C7S12279   2.895   1.671  10.077 -0.1451 -0.5431  0.2124
  117OSM    H7S12280   3.000   1.663  10.111 -0.0113  0.2876  0.0165
  117OSM    H7T12281   2.881   1.781  10.077  1.2827 -0.2558 -3.7967
  117OSM    C8S12282   2.875   1.622   9.937 -0.4607  0.8212  0.3581
  117OSM    H8S12283   2.768   1.634   9.910 -0.0180  3.1233 -0.5209
  117OSM    H8T12284   2.894   1.513   9.933  1.6230  1.2200 -2.4143
  117OSM    C9S12285   2.960   1.695   9.831  0.1891  0.0468 -0.1162
  117OSM    H9S12286   3.066   1.704   9.859 -0.4064  1.9305  1.5967
  117OSM    H9T12287   2.929   1.801   9.828  0.6373  0.2445  1.5713
  117OSM   C10S12288   2.948   1.621   9.699  0.3011  0.1599 -0.1078
  117OSM   H10S12289   2.845   1.582   9.689  0.3019  0.4331 -1.3528
  117OSM   H10T12290   3.017   1.534   9.705  1.7817  1.1031 -2.4919
  117OSM   C11S12291   2.987   1.704   9.575 -0.8257 -0.0419 -0.3286
  117OSM   H11S12292   3.096   1.727   9.575 -0.6621 -0.7339 -2.3082
  117OSM   H11T12293   2.928   1.797   9.562 -0.8487  0.0222  0.2200
  117OSM   C12S12294   2.954   1.629   9.441  0.6898  0.3027  0.3384
  117OSM   H12S12295   2.847   1.600   9.437  0.4732  1.0849  0.3344
  117OSM   H12T12296   3.005   1.531   9.437  2.0601  0.9816  0.9413
  117OSM   C13S12297   3.010   1.694   9.315 -0.2834 -0.3349  0.0408
  117OSM   H13S12298   3.120   1.684   9.324  0.2262  2.9496 -1.8732
  117OSM   H13T12299   2.974   1.799   9.308  0.1117 -0.2478 -0.7334
  117OSM   C14S12300   2.951   1.624   9.187 -0.2768 -0.1143 -0.0710
  117OSM   H14S12301   2.840   1.622   9.194 -0.2323 -0.5587  0.5289
  117OSM   H14T12302   2.986   1.520   9.174 -0.4290 -0.3012  0.9891
  117OSM   C15S12303   2.967   1.705   9.059 -0.3529  0.4320 -0.3981
  117OSM   H15S12304   3.074   1.717   9.031  0.1324  2.5637  2.1746
  117OSM   H15T12305   2.928   1.808   9.076 -0.4456  0.2021  0.7929
  117OSM   C16S12306   2.886   1.647   8.943 -0.6481 -0.9794  0.0606
  117OSM   H16S12307   2.776   1.651   8.958 -1.1445  0.8280 -3.4067
  117OSM   H16T12308   2.919   1.542   8.936  0.8016 -0.5541  0.3315
  117OSM   C17S12309   2.919   1.696   8.799  0.3117 -0.3549 -0.0809
  117OSM   H17S12310   3.028   1.684   8.783  0.2494  1.2770 -1.9718
  117OSM   H17T12311   2.892   1.804   8.796 -0.3970 -0.4841  1.1653
  117OSM   C18S12312   2.849   1.613   8.687 -0.1540  0.1509 -0.5087
  117OSM   H18S12313   2.909   1.521   8.669  1.3267  0.8454  0.7262
  117OSM   H18T12314   2.857   1.669   8.591 -1.8570 -0.7475 -1.1906
  117OSM   H18U12315   2.739   1.608   8.699  0.0823 -3.0650  0.7966
  117OSM    C1F12316   3.283   1.587  10.507  0.4315 -0.3815  0.2147
  117OSM     OF12317   3.276   1.471  10.553 -0.5943 -0.5612  0.2270
  117OSM    C2F12318   3.404   1.628  10.436  0.0254 -0.1336 -0.6276
  117OSM    H2F12319   3.475   1.642  10.521  0.9373 -0.9628 -1.2432
  117OSM    H2G12320   3.390   1.729  10.392 -3.0074  0.0251  0.5756
  117OSM    C3F12321   3.453   1.529  10.333  0.2398  0.2150 -0.2033
  117OSM    H3F12322   3.475   1.430  10.378  0.4384  1.5564  2.7220
  117OSM    H3G12323   3.549   1.563  10.288 -0.4859  1.0473 -1.1522
  117OSM    C4F12324   3.362   1.516  10.205 -0.2992  0.0864 -0.0379
  117OSM    H4F12325   3.253   1.523  10.227  0.1419 -1.0601  2.7019
  117OSM    H4G12326   3.384   1.413  10.170 -0.2380 -0.5939  1.9222
  117OSM    C5F12327   3.406   1.614  10.090  0.1633  0.1573 -0.8420
  117OSM    H5F12328   3.505   1.581  10.050  0.4111 -0.8662  0.5925
  117OSM    H5G12329   3.428   1.714  10.135  1.1711 -0.2394 -0.4380
  117OSM    C6F12330   3.313   1.634   9.970  0.3855  0.3999  0.0489
  117OSM    H6F12331   3.362   1.684   9.884  0.5772 -0.9488 -0.6295
  117OSM    H6G12332   3.224   1.677  10.023 -0.4331 -1.0725 -0.0949
  117OSM    C7F12333   3.261   1.508   9.913 -0.0642 -0.2911 -0.1956
  117OSM    H7F12334   3.200   1.532   9.822  1.8562  0.8185 -1.2105
  117OSM    H7G12335   3.185   1.465   9.982 -0.4368 -0.3675 -0.6473
  117OSM    C8F12336   3.371   1.401   9.870 -0.7413 -0.2258 -0.0530
  117OSM    H8F12337   3.393   1.351   9.967 -1.4667 -0.3018  0.0757
  117OSM    H8G12338   3.461   1.460   9.842 -1.0650  0.2569 -0.0797
  117OSM    C9F12339   3.338   1.290   9.767 -0.0285 -0.1148 -0.5247
  117OSM    H9F12340   3.291   1.211   9.827 -1.2498  0.9140 -0.0965
  117OSM   C10F12341   3.349   1.294   9.635 -0.4348  0.1568 -0.0031
  117OSM   H10F12342   3.325   1.210   9.569 -2.0938  0.4865  0.1551
  117OSM   C11F12343   3.407   1.415   9.566  0.2102 -0.1419  0.4550
  117OSM   H11F12344   3.517   1.403   9.561  0.1301 -0.1319 -1.6688
  117OSM   H11G12345   3.393   1.504   9.631  0.6453 -0.7398  1.3757
  117OSM   C12F12346   3.348   1.465   9.432  0.1975 -0.4053 -0.2367
  117OSM   H12F12347   3.380   1.570   9.417 -1.4172  0.1436  0.0459
  117OSM   H12G12348   3.237   1.469   9.435  0.2646  1.8350  0.1473
  117OSM   C13F12349   3.397   1.377   9.312  0.2617 -0.4584 -0.3844
  117OSM   H13F12350   3.378   1.268   9.327 -2.7797  0.0519 -0.2320
  117OSM   H13G12351   3.507   1.385   9.298  0.1609  0.9732 -0.4043
  117OSM   C14F12352   3.309   1.413   9.189 -0.0870  0.1966 -0.1766
  117OSM   H14F12353   3.312   1.522   9.168 -2.4606  0.7270  1.9338
  117OSM   H14G12354   3.204   1.391   9.221 -0.7845  0.2776 -2.3371
  117OSM   C15F12355   3.361   1.347   9.064  0.0996 -0.5457 -0.5750
  117OSM   H15F12356   3.353   1.240   9.094  1.7001 -0.0882  1.6393
  117OSM   H15G12357   3.470   1.357   9.044  0.4163  0.7493  1.6561
  117OSM   C16F12358   3.286   1.377   8.936 -0.3288 -0.3213 -0.6701
  117OSM   H16F12359   3.262   1.485   8.933  0.5959 -0.1130 -0.8439
  117OSM   H16G12360   3.195   1.315   8.942  0.2176 -1.0397  0.4141
  117OSM   C17F12361   3.347   1.330   8.803 -0.1788 -0.3636 -0.9093
  117OSM   H17F12362   3.354   1.219   8.793 -3.7620 -0.7245  0.0730
  117OSM   H17G12363   3.449   1.375   8.800 -0.6700  0.9765  1.3495
  117OSM   C18F12364   3.257   1.386   8.692  0.3614 -0.1225  0.2159
  117OSM   H18F12365   3.249   1.496   8.704 -2.1303 -0.4653  2.0628
  117OSM   H18G12366   3.158   1.337   8.689  1.1847 -1.7046 -1.8583
  117OSM   H18H12367   3.301   1.363   8.593 -2.1757  0.6091 -1.0923
  118OSM      N12368   2.572   2.402  11.148  0.4438 -0.5405 -0.6066
  118OSM    C1512369   2.426   2.394  11.195 -0.3345  0.1079 -0.0583
  118OSM   H15A12370   2.420   2.329  11.281  2.1645  0.6735  0.6032
  118OSM   H15B12371   2.372   2.356  11.109 -1.8328  0.5161  0.6954
  118OSM   H15C12372   2.387   2.488  11.231 -0.4396  0.3631 -0.8217
  118OSM    C1412373   2.663   2.458  11.254  0.2154  0.2658 -0.0512
  118OSM   H14A12374   2.634   2.561  11.267 -0.9145 -0.2871  2.1044
  118OSM   H14B12375   2.765   2.454  11.219  0.5197 -1.7741  1.0127
  118OSM   H14C12376   2.654   2.423  11.356  1.9462 -0.3831 -0.1071
  118OSM    C1312377   2.615   2.267  11.104  1.3305 -0.3070  0.0669
  118OSM   H13A12378   2.627   2.200  11.188  0.2134  1.0134  1.3168
  118OSM   H13B12379   2.706   2.263  11.047  0.7065 -0.9930 -0.8997
  118OSM   H13C12380   2.545   2.217  11.038  3.4499 -1.3033 -1.4705
  118OSM    C1212381   2.576   2.501  11.034 -0.1296 -0.1506 -0.6337
  118OSM   H12A12382   2.530   2.593  11.066 -0.1224  0.3260 -1.9306
  118OSM   H12B12383   2.509   2.470  10.955  0.9547 -1.8526 -0.9115
  118OSM    C1112384   2.711   2.528  10.967  0.3582  0.3566 -0.6873
  118OSM   H11A12385   2.674   2.594  10.886  2.2995  1.3169 -0.8316
  118OSM   H11B12386   2.750   2.435  10.919  0.9219  0.0969  0.2640
  118OSM      P12387   2.838   2.744  11.057  0.0539  0.0905 -0.0730
  118OSM    O1312388   2.726   2.814  11.126  0.0686 -0.3125 -0.1785
  118OSM    O1412389   2.976   2.753  11.116 -0.2373 -0.1410 -0.0998
  118OSM    O1112390   2.836   2.795  10.909  0.3088 -0.3669 -0.4445
  118OSM    O1212391   2.803   2.590  11.050  0.1238  0.8211 -0.1356
  118OSM    C1S12392   2.840   2.942  10.892 -0.4633  0.1081  0.5325
  118OSM    H1S12393   2.924   2.983  10.953 -0.1199 -0.6833  0.5957
  118OSM    H1T12394   2.751   2.996  10.930  0.0904  1.5345 -0.1742
  118OSM     NF12395   2.949   3.090  10.712  0.6998 -0.5195  0.6918
  118OSM    HNF12396   2.907   3.180  10.700 -2.4265 -1.6253  2.5905
  118OSM    C2S12397   2.854   2.980  10.744 -0.0772  0.6129  0.4006
  118OSM    H2S12398   2.897   2.898  10.683  1.3891  0.3910  1.7103
  118OSM    C3S12399   2.708   3.010  10.691  0.0502 -0.4602  0.1433
  118OSM    H3S12400   2.658   3.094  10.744  0.5718  1.5257 -2.3899
  118OSM     O312401   2.629   2.893  10.713  0.0592 -0.6741  0.4115
  118OSM    HO312402   2.688   2.840  10.768  1.5346 -2.0011 -2.3175
  118OSM    C4S12403   2.708   3.028  10.542  0.4271 -0.6320 -0.0549
  118OSM    H4S12404   2.703   2.928  10.497  2.7341  0.2359 -2.4002
  118OSM    C5S12405   2.707   3.139  10.470  0.9630 -0.0797  0.4810
  118OSM    H5S12406   2.729   3.231  10.525 -0.6681  0.4810  0.2420
  118OSM    C6S12407   2.718   3.153  10.320 -0.1420 -0.3054 -0.2216
  118OSM    H6S12408   2.811   3.210  10.298 -2.0686  3.3161  0.6069
  118OSM    H6T12409   2.633   3.211  10.277 -1.1220 -0.1548  1.8721
  118OSM    C7S12410   2.736   3.022  10.238 -0.2045 -0.6241 -0.0487
  118OSM    H7S12411   2.633   2.980  10.236 -0.4169 -0.2239  1.6198
  118OSM    H7T12412   2.807   2.951  10.286  0.6031  0.3458  0.2214
  118OSM    C8S12413   2.776   3.062  10.099 -0.1008 -0.2109  0.7449
  118OSM    H8S12414   2.885   3.082  10.088  0.0189 -1.4082 -0.4129
  118OSM    H8T12415   2.730   3.160  10.072 -0.3998  0.0384  2.1263
  118OSM    C9S12416   2.755   2.948   9.989  0.2835  0.0665 -0.4965
  118OSM    H9S12417   2.651   2.916  10.007 -0.0220  0.3317 -1.7390
  118OSM    H9T12418   2.814   2.854   9.989  1.9452  1.0725  1.1566
  118OSM   C10S12419   2.780   2.997   9.841 -0.2917 -0.0627 -0.7450
  118OSM   H10S12420   2.888   2.999   9.812  0.7143 -0.2651  2.7796
  118OSM   H10T12421   2.732   3.097   9.833 -1.2907 -0.3041  1.8304
  118OSM   C11S12422   2.715   2.907   9.739 -0.6901 -0.3349  0.6574
  118OSM   H11S12423   2.609   2.899   9.771 -0.9676 -0.3169 -0.2460
  118OSM   H11T12424   2.767   2.809   9.729  0.3198  0.2774 -0.2511
  118OSM   C12S12425   2.733   2.960   9.603 -0.4631 -0.2832  0.5630
  118OSM   H12S12426   2.741   2.871   9.537  1.8631 -0.5734  1.1839
  118OSM   H12T12427   2.822   3.023   9.580 -1.2892  1.1985  1.3364
  118OSM   C13S12428   2.604   3.038   9.561 -0.8689  0.4108 -0.1882
  118OSM   H13S12429   2.620   3.136   9.611 -0.1276  0.0409  0.3173
  118OSM   H13T12430   2.509   2.988   9.590 -1.4409  2.0082  0.7765
  118OSM   C14S12431   2.586   3.044   9.409  0.4476  0.1848  0.0500
  118OSM   H14S12432   2.484   3.084   9.389  0.2123 -1.1102 -1.4154
  118OSM   H14T12433   2.582   2.941   9.368  1.2743  0.2255 -0.1355
  118OSM   C15S12434   2.700   3.119   9.335 -0.5504  0.2065 -0.0035
  118OSM   H15S12435   2.791   3.069   9.376 -1.0309 -1.3599 -0.8122
  118OSM   H15T12436   2.705   3.222   9.376 -3.8322  1.2935 -2.2063
  118OSM   C16S12437   2.685   3.109   9.180 -0.2849 -0.3582 -0.0715
  118OSM   H16S12438   2.613   3.176   9.130 -2.1289 -1.4987  0.9952
  118OSM   H16T12439   2.649   3.004   9.176 -4.9051  1.1044  0.6894
  118OSM   C17S12440   2.810   3.133   9.094 -0.8116 -0.3934 -0.0493
  118OSM   H17S12441   2.833   3.241   9.110  1.5343 -1.1566  2.0269
  118OSM   H17T12442   2.789   3.125   8.985 -1.3705  1.9563 -0.1460
  118OSM   C18S12443   2.934   3.039   9.121 -0.0319 -0.2004  0.1525
  118OSM   H18S12444   3.021   3.074   9.062 -1.5696  1.9864 -0.8999
  118OSM   H18T12445   2.906   2.933   9.100  1.5620 -0.1484 -2.5290
  118OSM   H18U12446   2.964   3.047   9.228  2.6084  1.7470 -0.6839
  118OSM    C1F12447   3.083   3.091  10.731  1.0654  0.1783  0.8725
  118OSM     OF12448   3.139   2.992  10.771  0.3130  0.6537 -0.2521
  118OSM    C2F12449   3.160   3.217  10.688  0.1338  0.0301  0.2578
  118OSM    H2F12450   3.246   3.205  10.758  2.2601  0.5801 -2.1745
  118OSM    H2G12451   3.102   3.306  10.720  0.6809  0.6720 -0.5115
  118OSM    C3F12452   3.216   3.208  10.546 -0.9323 -0.1249 -0.3644
  118OSM    H3F12453   3.282   3.121  10.524 -1.5790 -0.7937  0.3012
  118OSM    H3G12454   3.278   3.300  10.541 -1.0918 -0.0224 -0.4403
  118OSM    C4F12455   3.112   3.231  10.436  0.3765 -0.9955  0.3112
  118OSM    H4F12456   3.048   3.312  10.477  0.3296 -0.4059 -0.9232
  118OSM    H4G12457   3.035   3.150  10.428  1.5445 -2.1354  0.5038
  118OSM    C5F12458   3.176   3.264  10.303 -0.6660  0.2117  0.5912
  118OSM    H5F12459   3.261   3.196  10.281  1.3006  1.6852  3.2996
  118OSM    H5G12460   3.235   3.358  10.302  0.2882 -0.3431 -3.0843
  118OSM    C6F12461   3.075   3.281  10.188  0.7481 -0.1193 -0.3471
  118OSM    H6F12462   2.992   3.347  10.221  2.2452  1.4059  0.4780
  118OSM    H6G12463   3.030   3.183  10.162  2.6374 -0.9179 -0.6936
  118OSM    C7F12464   3.147   3.355  10.067 -0.5722 -0.6661 -0.4283
  118OSM    H7F12465   3.240   3.298  10.046  0.5504  0.8598  0.2886
  118OSM    H7G12466   3.190   3.452  10.098 -0.6633 -2.1056  4.5225
  118OSM    C8F12467   3.056   3.354   9.941 -0.5246  0.2168  0.0407
  118OSM    H8F12468   2.962   3.410   9.958  0.1590  1.7168 -1.0679
  118OSM    H8G12469   3.038   3.247   9.917  0.6276 -0.2065  0.9893
  118OSM    C9F12470   3.107   3.421   9.817  0.2405 -0.4162  0.2150
  118OSM    H9F12471   3.114   3.531   9.822 -2.5917 -0.1439 -0.7569
  118OSM   C10F12472   3.138   3.360   9.699  0.3817  0.3177  0.5522
  118OSM   H10F12473   3.179   3.420   9.616 -0.5595  0.7178  0.3680
  118OSM   C11F12474   3.133   3.210   9.675  0.2104 -0.0448  0.0407
  118OSM   H11F12475   3.037   3.171   9.634 -0.7133  0.5197  1.6374
  118OSM   H11G12476   3.162   3.156   9.767 -2.4321 -1.4610  0.0881
  118OSM   C12F12477   3.235   3.184   9.562  0.8071 -0.2884  0.5132
  118OSM   H12F12478   3.264   3.076   9.559  0.5765 -0.3547  0.6482
  118OSM   H12G12479   3.335   3.232   9.574  1.8814 -2.6746  1.5251
  118OSM   C13F12480   3.180   3.209   9.419  0.4059 -0.3085 -0.5150
  118OSM   H13F12481   3.069   3.218   9.425  0.3040 -1.8286 -0.1038
  118OSM   H13G12482   3.207   3.122   9.357  0.1299 -0.0606 -0.9941
  118OSM   C14F12483   3.252   3.324   9.345 -0.0787  0.0217 -0.2342
  118OSM   H14F12484   3.355   3.298   9.311 -0.6346  0.2211 -2.1287
  118OSM   H14G12485   3.274   3.411   9.410 -0.6988  0.6039 -0.8019
  118OSM   C15F12486   3.182   3.372   9.217 -0.2540 -0.4283 -0.0018
  118OSM   H15F12487   3.096   3.441   9.233 -0.6202 -1.1230  1.0417
  118OSM   H15G12488   3.141   3.285   9.162 -0.7049 -2.0143  2.7682
  118OSM   C16F12489   3.287   3.454   9.139  0.2564 -0.5863  0.5488
  118OSM   H16F12490   3.391   3.425   9.166  1.2933  0.8465 -1.7111
  118OSM   H16G12491   3.271   3.560   9.168 -1.8406  0.1372 -3.0130
  118OSM   C17F12492   3.276   3.448   8.992 -0.2189 -0.2098  0.5405
  118OSM   H17F12493   3.177   3.450   8.941  0.4644 -2.8170 -0.9362
  118OSM   H17G12494   3.298   3.341   8.973 -0.5262 -0.0813 -0.5860
  118OSM   C18F12495   3.378   3.531   8.918 -0.2071  0.5546 -0.9151
  118OSM   H18F12496   3.476   3.481   8.934  0.3309  1.4039 -1.4759
  118OSM   H18G12497   3.374   3.637   8.950  0.1068 -0.0909  1.3215
  118OSM   H18H12498   3.358   3.531   8.809  0.2134  1.0902 -0.9958
  119OSM      N12499   4.302   1.697  11.285  0.3618 -0.3284  0.2233
  119OSM    C1512500   4.398   1.806  11.274  0.4107 -0.2979 -0.7326
  119OSM   H15A12501   4.351   1.883  11.214 -1.1509  0.5405  1.4976
  119OSM   H15B12502   4.494   1.770  11.242  0.9005 -0.6446  1.0756
  119OSM   H15C12503   4.411   1.851  11.371 -1.3463 -0.7837 -0.2546
  119OSM    C1412504   4.257   1.656  11.151 -0.1616  0.3240 -0.3890
  119OSM   H14A12505   4.216   1.743  11.103 -1.2633 -0.0673 -0.1667
  119OSM   H14B12506   4.179   1.581  11.153  0.4115 -0.2675  1.1382
  119OSM   H14C12507   4.329   1.610  11.085 -0.0933  0.0500 -0.1278
  119OSM    C1312508   4.373   1.588  11.355 -0.0141  0.0974  0.0520
  119OSM   H13A12509   4.399   1.633  11.449 -1.4697 -0.5663  0.7907
  119OSM   H13B12510   4.464   1.550  11.312  0.8430 -0.1396  2.0241
  119OSM   H13C12511   4.305   1.509  11.383  1.2260 -0.8940  0.3129
  119OSM    C1212512   4.176   1.733  11.369 -0.2527  0.7225  0.0404
  119OSM   H12A12513   4.205   1.738  11.473  1.5223  1.7080 -0.4835
  119OSM   H12B12514   4.107   1.650  11.365 -1.0702  1.4009 -0.1415
  119OSM    C1112515   4.112   1.867  11.346 -1.1339 -1.2058 -0.2662
  119OSM   H11A12516   4.176   1.943  11.396 -4.2445  2.4938 -1.6191
  119OSM   H11B12517   4.025   1.871  11.416  1.8755  0.0405  3.5973
  119OSM      P12518   3.954   1.858  11.130 -0.1835 -0.3075  0.0065
  119OSM    O1312519   3.903   1.731  11.185  0.9342  0.1448 -0.4002
  119OSM    O1412520   3.863   1.976  11.137 -0.2243  0.5550 -0.6138
  119OSM    O1112521   3.999   1.841  10.985 -0.4023 -0.3126  0.6729
  119OSM    O1212522   4.091   1.906  11.207 -0.1319  0.8383  0.0813
  119OSM    C1S12523   3.965   1.726  10.903  0.9062 -0.2631  0.6326
  119OSM    H1S12524   3.856   1.713  10.915  0.8478  0.0426  0.4316
  119OSM    H1T12525   4.008   1.630  10.940  0.1510  0.2612  2.9398
  119OSM     NF12526   3.967   1.625  10.680 -0.5319 -0.5154 -0.3450
  119OSM    HNF12527   4.038   1.557  10.662  0.8030  1.0203 -1.0783
  119OSM    C2S12528   3.998   1.748  10.749  0.7246  0.0860  0.3511
  119OSM    H2S12529   3.935   1.830  10.710  1.8205  0.3000 -1.0319
  119OSM    C3S12530   4.139   1.792  10.729 -0.7372  0.2010 -0.1894
  119OSM    H3S12531   4.215   1.731  10.782  0.8146  2.2174 -0.0553
  119OSM     O312532   4.162   1.922  10.783  0.1675 -1.0328  0.2136
  119OSM    HO312533   4.091   1.918  10.848 -1.2517 -2.8306 -1.4097
  119OSM    C4S12534   4.187   1.797  10.593 -0.3130 -0.5449  0.6198
  119OSM    H4S12535   4.276   1.741  10.561  1.4773  1.8118  1.3839
  119OSM    C5S12536   4.129   1.870  10.493  0.6425  0.6688 -0.5593
  119OSM    H5S12537   4.045   1.934  10.524  1.1379 -0.1309  2.6677
  119OSM    C6S12538   4.181   1.881  10.357  0.1310 -0.3242 -0.6033
  119OSM    H6S12539   4.291   1.894  10.350  0.4212 -1.4534  1.4835
  119OSM    H6T12540   4.143   1.968  10.299 -0.5025  2.1068  3.2702
  119OSM    C7S12541   4.150   1.763  10.263  0.3225  0.5018 -0.1805
  119OSM    H7S12542   4.041   1.749  10.251  0.2209  0.5556  0.7075
  119OSM    H7T12543   4.207   1.673  10.294  0.3522  0.1614 -1.1836
  119OSM    C8S12544   4.214   1.783  10.126 -0.4389  0.2134  0.3390
  119OSM    H8S12545   4.312   1.835  10.133 -0.1701 -0.1288 -0.7963
  119OSM    H8T12546   4.151   1.854  10.067  1.3687 -0.1234 -2.0864
  119OSM    C9S12547   4.223   1.653  10.050 -0.4059 -0.9865 -0.7512
  119OSM    H9S12548   4.119   1.616  10.039 -0.3945 -0.9192 -1.0928
  119OSM    H9T12549   4.274   1.572  10.107  1.6769 -0.0401 -1.2276
  119OSM   C10S12550   4.286   1.680   9.909 -0.4703  0.0686 -0.5783
  119OSM   H10S12551   4.346   1.594   9.875  0.1206  0.6037 -0.8872
  119OSM   H10T12552   4.356   1.766   9.912  1.0762 -1.1974 -0.0950
  119OSM   C11S12553   4.183   1.715   9.798 -0.7193 -0.7832 -0.6609
  119OSM   H11S12554   4.114   1.798   9.822 -1.5244 -1.5133 -0.4446
  119OSM   H11T12555   4.130   1.619   9.781  0.6840 -1.3251 -2.0646
  119OSM   C12S12556   4.270   1.752   9.672  0.0857 -0.3470 -0.0641
  119OSM   H12S12557   4.349   1.678   9.649 -2.1339 -2.3271 -1.5336
  119OSM   H12T12558   4.321   1.850   9.685  0.1814 -0.4733  0.5185
  119OSM   C13S12559   4.180   1.763   9.539  0.1078  0.5625  0.9227
  119OSM   H13S12560   4.102   1.841   9.542 -0.3627  0.0603  1.7502
  119OSM   H13T12561   4.112   1.675   9.536 -1.2278  1.6049 -0.0526
  119OSM   C14S12562   4.268   1.778   9.419  0.2315  0.1079  0.0722
  119OSM   H14S12563   4.324   1.684   9.401 -3.3278 -2.4616  1.7932
  119OSM   H14T12564   4.339   1.864   9.426  0.7186 -0.1750 -1.3627
  119OSM   C15S12565   4.206   1.796   9.279 -0.1831  0.2234 -0.0972
  119OSM   H15S12566   4.186   1.905   9.272 -0.1182  0.2550  0.2146
  119OSM   H15T12567   4.105   1.751   9.271  0.6202 -2.0829  2.0138
  119OSM   C16S12568   4.316   1.772   9.170 -0.5681 -0.3808  0.6239
  119OSM   H16S12569   4.336   1.665   9.151  3.2253 -0.0224  2.1396
  119OSM   H16T12570   4.410   1.818   9.207 -0.4184 -0.3209  0.1745
  119OSM   C17S12571   4.296   1.830   9.034 -0.2433  0.1506 -1.1284
  119OSM   H17S12572   4.296   1.941   9.034 -1.7788  0.1552 -0.5090
  119OSM   H17T12573   4.196   1.797   8.998  0.2658  0.3826 -2.8348
  119OSM   C18S12574   4.406   1.787   8.935 -0.5070  0.3309 -0.4160
  119OSM   H18S12575   4.501   1.815   8.985 -0.7678 -0.8347  0.7277
  119OSM   H18T12576   4.391   1.839   8.837 -0.6412  2.6882  0.8033
  119OSM   H18U12577   4.414   1.678   8.917  1.5026  0.4329 -0.2566
  119OSM    C1F12578   3.844   1.594  10.655 -0.8252 -0.3921 -0.1248
  119OSM     OF12579   3.748   1.666  10.679  0.1759 -0.3113 -0.1757
  119OSM    C2F12580   3.831   1.452  10.596 -0.1546  0.6787 -0.5443
  119OSM    H2F12581   3.722   1.429  10.589 -0.8052  2.4403  2.5262
  119OSM    H2G12582   3.880   1.389  10.673  1.0161 -0.4098 -2.1438
  119OSM    C3F12583   3.911   1.429  10.469 -0.0550  0.0569 -0.2758
  119OSM    H3F12584   3.903   1.327  10.426 -1.1826 -0.2724  0.6784
  119OSM    H3G12585   4.018   1.440  10.497 -0.3440  3.4562 -0.3418
  119OSM    C4F12586   3.880   1.527  10.356 -0.0397  0.1065 -0.3741
  119OSM    H4F12587   3.921   1.627  10.383 -3.1800  1.2995  0.1652
  119OSM    H4G12588   3.770   1.540  10.354 -0.1700 -0.7751  0.5482
  119OSM    C5F12589   3.916   1.473  10.213 -0.9444 -0.1859 -0.0974
  119OSM    H5F12590   3.908   1.362  10.212 -0.9936 -0.2847  3.6597
  119OSM    H5G12591   4.019   1.504  10.185 -0.0388 -2.1205  0.9892
  119OSM    C6F12592   3.814   1.518  10.102  0.9522  0.0344  0.3095
  119OSM    H6F12593   3.799   1.628  10.104 -1.4175 -0.2722  2.8256
  119OSM    H6G12594   3.718   1.464  10.122 -0.6870  1.6987 -2.7855
  119OSM    C7F12595   3.859   1.487   9.952 -0.1310  0.0433 -0.6096
  119OSM    H7F12596   3.911   1.391   9.974 -0.5746  0.4086  2.1222
  119OSM    H7G12597   3.945   1.555   9.934 -0.3434  0.5428  0.2444
  119OSM    C8F12598   3.748   1.480   9.849  0.4261 -0.1977 -0.5040
  119OSM    H8F12599   3.680   1.567   9.855  0.3240 -0.4171  2.0502
  119OSM    H8G12600   3.687   1.391   9.876 -1.0150  1.1369  0.6770
  119OSM    C9F12601   3.805   1.448   9.712  0.7668  0.2441 -0.3808
  119OSM    H9F12602   3.839   1.345   9.694  0.5899  0.6837 -3.4719
  119OSM   C10F12603   3.814   1.529   9.605  0.1464 -0.6386  0.1722
  119OSM   H10F12604   3.844   1.478   9.513  1.5226  1.9331 -0.8446
  119OSM   C11F12605   3.785   1.677   9.599  0.2330 -0.3302  0.2527
  119OSM   H11F12606   3.865   1.737   9.551 -0.5796  1.2981  0.8781
  119OSM   H11G12607   3.771   1.717   9.702 -2.1502  1.5908 -0.7652
  119OSM   C12F12608   3.662   1.704   9.509 -0.0382  0.6650  0.0329
  119OSM   H12F12609   3.645   1.813   9.524  1.6583  0.9649 -0.1522
  119OSM   H12G12610   3.579   1.652   9.561  2.1696 -2.2508  0.7983
  119OSM   C13F12611   3.686   1.668   9.362 -0.3529 -0.1700  0.1795
  119OSM   H13F12612   3.658   1.561   9.352 -0.7391 -0.1758  1.2309
  119OSM   H13G12613   3.791   1.684   9.331 -0.3668 -1.4093 -0.5292
  119OSM   C14F12614   3.593   1.744   9.269 -0.7893 -0.3696 -1.2276
  119OSM   H14F12615   3.628   1.850   9.270 -0.4481 -0.4821 -1.0275
  119OSM   H14G12616   3.494   1.735   9.319 -0.2763  0.9841  0.0834
  119OSM   C15F12617   3.600   1.686   9.122  0.3878 -0.6556 -0.0366
  119OSM   H15F12618   3.560   1.582   9.114 -0.5576 -0.1893 -1.8336
  119OSM   H15G12619   3.706   1.704   9.095  0.1371  0.7587 -0.1079
  119OSM   C16F12620   3.518   1.773   9.033  0.4335 -0.4544 -0.1614
  119OSM   H16F12621   3.556   1.877   9.034  1.8119 -0.9322 -1.1042
  119OSM   H16G12622   3.411   1.777   9.066  0.7160 -1.2222  0.8753
  119OSM   C17F12623   3.529   1.726   8.881  0.4813 -1.2864  0.2045
  119OSM   H17F12624   3.463   1.638   8.869  1.9272 -2.1786 -1.3920
  119OSM   H17G12625   3.635   1.706   8.854 -0.3437 -4.3464 -0.9946
  119OSM   C18F12626   3.470   1.823   8.779  0.2711 -0.0612  0.2996
  119OSM   H18F12627   3.476   1.787   8.674  1.5377 -0.3642  0.4668
  119OSM   H18G12628   3.528   1.918   8.784 -2.0413  1.3774  0.5227
  119OSM   H18H12629   3.365   1.842   8.811  0.4495  0.4979  0.5588
  120OSM      N12630   2.349   5.171  10.535  0.2732 -0.0528 -0.1798
  120OSM    C1512631   2.251   5.066  10.494  0.1305  0.5158  0.7928
  120OSM   H15A12632   2.169   5.047  10.561 -0.2619 -1.0910 -0.1068
  120OSM   H15B12633   2.310   4.975  10.489 -0.5805 -0.0311  2.1133
  120OSM   H15C12634   2.208   5.077  10.396  1.3804 -0.1377  0.1495
  120OSM    C1412635   2.268   5.306  10.531  0.4734 -0.5005 -0.1663
  120OSM   H14A12636   2.222   5.331  10.437 -0.4312  2.7803  1.0640
  120OSM   H14B12637   2.339   5.385  10.552 -0.4427  0.7841 -1.7954
  120OSM   H14C12638   2.190   5.305  10.606 -0.8397 -0.4666 -1.5167
  120OSM    C1312639   2.399   5.153  10.675 -0.3921 -0.0311 -0.0257
  120OSM   H13A12640   2.324   5.165  10.751  0.7664 -0.4974  1.1997
  120OSM   H13B12641   2.484   5.217  10.691 -0.3422 -0.0071 -0.3800
  120OSM   H13C12642   2.437   5.054  10.693 -1.3103 -0.6656 -1.4739
  120OSM    C1212643   2.458   5.181  10.433 -0.3901 -0.2782 -0.1506
  120OSM   H12A12644   2.409   5.218  10.344  0.4248  0.8117 -0.1598
  120OSM   H12B12645   2.491   5.079  10.419 -1.3851 -0.3388 -2.2731
  120OSM    C1112646   2.571   5.284  10.468  0.7802  0.3443 -0.4221
  120OSM   H11A12647   2.528   5.385  10.483  2.9035  1.2169  0.1209
  120OSM   H11B12648   2.632   5.302  10.377 -0.1304 -1.1372 -1.3502
  120OSM      P12649   2.768   5.147  10.574 -0.0818  0.3235 -0.2336
  120OSM    O1312650   2.863   5.165  10.685 -0.0015 -0.3955 -0.3486
  120OSM    O1412651   2.714   5.011  10.568 -0.5049  0.3542 -0.0295
  120OSM    O1112652   2.836   5.195  10.435  0.0485 -0.6643 -0.1738
  120OSM    O1212653   2.643   5.248  10.587  0.0992 -0.0621  0.2302
  120OSM    C1S12654   2.918   5.315  10.434 -0.3060 -0.2059 -0.3046
  120OSM    H1S12655   2.994   5.331  10.514  1.0801  0.2461 -1.6909
  120OSM    H1T12656   2.852   5.404  10.444  1.1512  0.8711  0.0505
  120OSM     NF12657   3.096   5.439  10.306  0.1260  0.0586 -0.2882
  120OSM    HNF12658   3.065   5.516  10.251  1.3003  0.2560 -0.6946
  120OSM    C2S12659   3.000   5.328  10.303  0.1364  0.4330 -0.3728
  120OSM    H2S12660   3.047   5.229  10.284  1.4388  1.2107 -1.3267
  120OSM    C3S12661   2.907   5.339  10.180  0.6193 -0.1019 -0.0415
  120OSM    H3S12662   2.853   5.435  10.193  3.5657  1.3363  1.9966
  120OSM     O312663   2.801   5.247  10.166  0.1795 -0.1662 -0.3103
  120OSM    HO312664   2.803   5.197  10.248 -1.3351  0.6624  0.2422
  120OSM    C4S12665   2.980   5.342  10.051 -0.0266  0.0654  0.7650
  120OSM    H4S12666   3.050   5.257  10.045 -0.3222 -0.2418  1.6999
  120OSM    C5S12667   2.986   5.446   9.961  0.9666  0.1020  1.1312
  120OSM    H5S12668   2.942   5.544   9.984 -0.2713  0.2912 -1.8557
  120OSM    C6S12669   3.071   5.436   9.835 -0.6865 -0.0643 -0.4568
  120OSM    H6S12670   3.137   5.346   9.838 -1.2892 -0.4656  2.1416
  120OSM    H6T12671   3.129   5.530   9.830  0.3087 -0.2971  4.2558
  120OSM    C7S12672   2.995   5.416   9.698  0.0981  0.7760  0.1281
  120OSM    H7S12673   2.907   5.483   9.697  1.1202  2.1570  1.4181
  120OSM    H7T12674   2.952   5.313   9.697  0.3874  0.6131  2.0541
  120OSM    C8S12675   3.097   5.418   9.589 -0.4788  0.1769 -0.0758
  120OSM    H8S12676   3.172   5.337   9.602  1.3765  2.1512  1.9394
  120OSM    H8T12677   3.158   5.509   9.605  2.4406 -1.3631 -1.9305
  120OSM    C9S12678   3.060   5.399   9.440 -0.1091 -0.1996  0.0819
  120OSM    H9S12679   2.991   5.485   9.427 -1.3453 -0.6135  3.4171
  120OSM    H9T12680   2.999   5.306   9.434 -1.4479  0.6320  0.7198
  120OSM   C10S12681   3.176   5.413   9.346  0.2250  0.1299  0.1293
  120OSM   H10S12682   3.247   5.332   9.376 -0.3230 -0.4564 -0.1467
  120OSM   H10T12683   3.228   5.508   9.369 -1.6508  0.5730  2.8060
  120OSM   C11S12684   3.128   5.405   9.201  0.4429 -0.0599  0.4067
  120OSM   H11S12685   3.032   5.460   9.192 -0.8176 -2.0159  1.3478
  120OSM   H11T12686   3.101   5.298   9.184 -1.5871  0.5961 -0.7725
  120OSM   C12S12687   3.236   5.454   9.095 -0.0183 -0.1334  0.2881
  120OSM   H12S12688   3.327   5.392   9.110  1.1999  0.9562 -2.3169
  120OSM   H12T12689   3.273   5.555   9.120  3.1659 -1.1566 -0.0909
  120OSM   C13S12690   3.196   5.446   8.945  0.0353  0.7697  0.1104
  120OSM   H13S12691   3.181   5.343   8.908 -1.0514  0.3600  1.6512
  120OSM   H13T12692   3.271   5.486   8.874 -0.6462  1.6219 -0.1474
  120OSM   C14S12693   3.072   5.518   8.906  0.6766  0.1117  1.0119
  120OSM   H14S12694   3.079   5.623   8.942 -0.1969  0.9010 -1.0143
  120OSM   H14T12695   2.990   5.463   8.957 -1.1811  0.0764 -1.8922
  120OSM   C15S12696   3.043   5.513   8.755  0.7370 -0.9118 -0.3346
  120OSM   H15S12697   2.936   5.540   8.739  0.3086 -3.5111 -2.1557
  120OSM   H15T12698   3.062   5.414   8.708 -2.3136 -1.9831  0.5740
  120OSM   C16S12699   3.129   5.614   8.672 -0.8177 -0.3082 -0.2514
  120OSM   H16S12700   3.236   5.591   8.693 -0.3907 -0.5466 -2.5688
  120OSM   H16T12701   3.109   5.718   8.705  1.3182  0.1923 -0.4215
  120OSM   C17S12702   3.108   5.607   8.520  1.1491 -0.2613  0.4868
  120OSM   H17S12703   3.150   5.696   8.468 -1.0733 -0.1664 -1.2211
  120OSM   H17T12704   2.999   5.607   8.499  1.2614  1.8200 -0.1899
  120OSM   C18S12705   3.170   5.482   8.470 -0.1974  0.5099  1.0276
  120OSM   H18S12706   3.111   5.393   8.497 -1.6762  1.0978 -0.1725
  120OSM   H18T12707   3.273   5.475   8.512  1.3106  2.9210 -2.0197
  120OSM   H18U12708   3.174   5.493   8.359  1.1327 -0.9245  0.9210
  120OSM    C1F12709   3.198   5.462  10.389 -0.0282  0.2130 -0.1276
  120OSM     OF12710   3.245   5.371  10.449  0.5929 -0.0764  0.5147
  120OSM    C2F12711   3.246   5.598  10.410  0.6952 -0.1947 -0.2352
  120OSM    H2F12712   3.200   5.637  10.503 -1.6205  1.0606 -1.8575
  120OSM    H2G12713   3.205   5.664  10.330  1.3954 -0.4638 -0.8273
  120OSM    C3F12714   3.405   5.605  10.436  0.3514  0.3982  0.5897
  120OSM    H3F12715   3.419   5.539  10.524 -0.4306  0.2378  0.5965
  120OSM    H3G12716   3.422   5.706  10.480 -0.7446  1.8503 -2.2088
  120OSM    C4F12717   3.504   5.565  10.319  0.7542  0.0836  0.2930
  120OSM    H4F12718   3.476   5.460  10.296  1.4512 -0.2434  0.9442
  120OSM    H4G12719   3.608   5.565  10.357 -0.0071 -0.4302  2.4323
  120OSM    C5F12720   3.468   5.650  10.196 -0.4290 -0.0133 -0.0079
  120OSM    H5F12721   3.474   5.756  10.229  3.1926 -0.2719  0.3196
  120OSM    H5G12722   3.364   5.626  10.164 -0.7559  2.1182 -0.6485
  120OSM    C6F12723   3.564   5.639  10.080 -1.1742  0.3018 -0.7260
  120OSM    H6F12724   3.594   5.532  10.074  0.0943  0.5321  0.9493
  120OSM    H6G12725   3.659   5.690  10.105 -1.6525  0.8676 -0.0227
  120OSM    C7F12726   3.521   5.678   9.940  0.4503  0.0258  0.2280
  120OSM    H7F12727   3.607   5.657   9.872 -0.9161  1.6442 -2.0848
  120OSM    H7G12728   3.512   5.788   9.949  2.9683  0.3858 -1.1085
  120OSM    C8F12729   3.393   5.622   9.884  0.4098  0.3027 -0.2436
  120OSM    H8F12730   3.310   5.614   9.957  0.5775  0.0850 -0.0765
  120OSM    H8G12731   3.407   5.516   9.851 -0.1966 -0.1494  0.9355
  120OSM    C9F12732   3.359   5.705   9.766 -0.0122 -0.0616  0.3999
  120OSM    H9F12733   3.312   5.796   9.807  0.5449 -0.7765  2.7016
  120OSM   C10F12734   3.393   5.679   9.643  0.6924  0.0152 -0.3835
  120OSM   H10F12735   3.355   5.752   9.569  1.4389  0.8314  0.0325
  120OSM   C11F12736   3.467   5.557   9.586  0.4201 -0.9653 -0.0461
  120OSM   H11F12737   3.393   5.483   9.549 -0.6081  0.4506 -0.8741
  120OSM   H11G12738   3.529   5.500   9.658  0.4142 -0.4976  0.3290
  120OSM   C12F12739   3.557   5.605   9.467  0.4237 -0.5341 -0.8123
  120OSM   H12F12740   3.648   5.541   9.462 -0.3738 -1.7444  0.1491
  120OSM   H12G12741   3.599   5.703   9.500 -0.4142  0.2515 -2.0166
  120OSM   C13F12742   3.494   5.621   9.330 -0.8277  0.4045  0.1920
  120OSM   H13F12743   3.409   5.693   9.336 -0.5407  0.9924 -2.2920
  120OSM   H13G12744   3.453   5.527   9.288  1.4403 -1.3800  1.9024
  120OSM   C14F12745   3.603   5.677   9.234  0.1646 -0.2024  0.3249
  120OSM   H14F12746   3.697   5.620   9.246  0.1205 -0.6934 -1.5040
  120OSM   H14G12747   3.621   5.782   9.263 -0.5258  0.2773 -0.9234
  120OSM   C15F12748   3.566   5.652   9.084  0.4962  1.1133  0.2290
  120OSM   H15F12749   3.624   5.719   9.017  0.7857  0.0373 -0.6184
  120OSM   H15G12750   3.456   5.663   9.073  0.4451 -0.5740 -1.1795
  120OSM   C16F12751   3.610   5.510   9.046  0.1590 -0.2341  0.1041
  120OSM   H16F12752   3.562   5.485   8.949  0.7619 -0.2710 -0.1841
  120OSM   H16G12753   3.554   5.448   9.120 -1.0979  1.7706  0.8724
  120OSM   C17F12754   3.762   5.474   9.036 -0.5541 -0.5497 -0.0558
  120OSM   H17F12755   3.817   5.479   9.133  0.8506 -0.7906 -0.8221
  120OSM   H17G12756   3.813   5.546   8.967 -0.4728 -1.3462 -0.8278
  120OSM   C18F12757   3.777   5.343   8.959 -0.1506  0.3441  0.0425
  120OSM   H18F12758   3.842   5.356   8.870  1.2929  0.6238  1.1337
  120OSM   H18G12759   3.680   5.294   8.935  0.3042 -1.9669  2.7677
  120OSM   H18H12760   3.839   5.276   9.021 -1.7466 -1.2042 -0.0092
  121OSM      N12761   2.109   1.910  10.902 -0.2923  0.3658 -0.4006
  121OSM    C1512762   1.997   1.981  10.973  0.0490 -0.1677 -0.4007
  121OSM   H15A12763   2.029   2.014  11.071 -0.0448  0.5198 -0.5992
  121OSM   H15B12764   1.913   1.914  10.981  0.8102 -1.1403 -0.5057
  121OSM   H15C12765   1.979   2.073  10.919  1.9289  0.0242 -0.7387
  121OSM    C1412766   2.130   1.769  10.955 -0.4894 -0.0314  0.4674
  121OSM   H14A12767   2.195   1.776  11.041  0.9031 -0.1599 -0.5593
  121OSM   H14B12768   2.174   1.707  10.878 -2.5163  1.4524 -1.9747
  121OSM   H14C12769   2.034   1.728  10.984 -0.2210  0.3436  1.9301
  121OSM    C1312770   2.088   1.908  10.754  0.3172  0.4868 -0.6731
  121OSM   H13A12771   2.037   1.999  10.727 -1.1331 -0.2710 -0.5205
  121OSM   H13B12772   2.025   1.824  10.728 -0.5771  0.8091  0.4425
  121OSM   H13C12773   2.175   1.896  10.690 -0.8322  2.0877 -2.5914
  121OSM    C1212774   2.240   1.987  10.912  1.0828  0.3249 -0.3234
  121OSM   H12A12775   2.214   2.074  10.853  0.2057 -1.4732 -2.6565
  121OSM   H12B12776   2.317   1.936  10.857 -0.6432 -2.5783 -0.1253
  121OSM    C1112777   2.288   2.039  11.049 -0.3239  0.2862  0.2208
  121OSM   H11A12778   2.199   2.082  11.099  0.1513  4.1481 -2.0801
  121OSM   H11B12779   2.360   2.123  11.039 -0.9783  0.9704  1.1187
  121OSM      P12780   2.496   1.901  11.101  0.0971  0.2471 -0.4173
  121OSM    O1312781   2.561   1.965  11.218  0.6338  0.0856 -0.1876
  121OSM    O1412782   2.511   1.750  11.085  0.5974  0.0913  0.0954
  121OSM    O1112783   2.545   1.968  10.966 -0.1687 -0.1162 -0.2170
  121OSM    O1212784   2.340   1.924  11.115 -0.1197  0.0137 -0.1652
  121OSM    C1S12785   2.557   1.883  10.852  0.1195  0.1901 -0.7262
  121OSM    H1S12786   2.462   1.829  10.828  0.4490 -0.5851 -0.3139
  121OSM    H1T12787   2.640   1.810  10.860 -0.7881 -0.9304 -1.4128
  121OSM     NF12788   2.575   1.876  10.613 -0.0149  0.3494 -0.1038
  121OSM    HNF12789   2.668   1.840  10.610 -0.3114 -0.3013 -1.7388
  121OSM    C2S12790   2.585   1.967  10.728 -0.0788  0.1165  0.0358
  121OSM    H2S12791   2.507   2.045  10.722  0.9127  0.9545 -3.0046
  121OSM    C3S12792   2.720   2.041  10.745  0.0256  0.4689  0.1525
  121OSM    H3S12793   2.807   1.971  10.749  1.5560  2.2433 -1.2101
  121OSM     O312794   2.725   2.128  10.865  0.8983  0.0581  0.2320
  121OSM    HO312795   2.640   2.114  10.908  0.3066  0.4948 -0.7655
  121OSM    C4S12796   2.744   2.116  10.621 -0.0823  0.5214 -0.6273
  121OSM    H4S12797   2.689   2.210  10.611  0.1404  0.5410 -1.7927
  121OSM    C5S12798   2.815   2.077  10.519  0.3908  0.8655  0.0670
  121OSM    H5S12799   2.881   1.989  10.523 -0.2235  0.4291  0.5276
  121OSM    C6S12800   2.834   2.151  10.385 -1.1131 -0.7516 -0.5565
  121OSM    H6S12801   2.939   2.175  10.359 -1.2661 -0.3263 -0.7798
  121OSM    H6T12802   2.762   2.235  10.386 -1.4200 -1.0051 -1.3242
  121OSM    C7S12803   2.803   2.059  10.264 -0.2815  0.0811  0.4702
  121OSM    H7S12804   2.702   2.014  10.276  0.1363 -1.2168 -0.6792
  121OSM    H7T12805   2.883   1.983  10.261  2.5387  2.9082  1.8816
  121OSM    C8S12806   2.808   2.144  10.135  0.2674  0.0512  0.4659
  121OSM    H8S12807   2.911   2.183  10.124 -0.5381  2.1903  0.3431
  121OSM    H8T12808   2.739   2.231  10.144  1.4909  1.0120  0.6307
  121OSM    C9S12809   2.770   2.070  10.011  0.4014  0.0240 -0.4359
  121OSM    H9S12810   2.667   2.029  10.021  0.4940 -0.2115 -0.4721
  121OSM    H9T12811   2.837   1.982  10.010  1.8078  1.0777 -2.0513
  121OSM   C10S12812   2.792   2.154   9.884  0.0834 -0.3572  0.0061
  121OSM   H10S12813   2.898   2.185   9.873  0.2677 -0.8164  0.4485
  121OSM   H10T12814   2.723   2.240   9.891 -0.0304 -0.4735  0.3068
  121OSM   C11S12815   2.753   2.073   9.759 -1.0774  0.3820  1.0104
  121OSM   H11S12816   2.645   2.049   9.752 -0.4932 -3.1503  3.2561
  121OSM   H11T12817   2.805   1.976   9.748 -1.2299  0.3821  0.3004
  121OSM   C12S12818   2.796   2.137   9.626 -0.2318 -0.1892  0.3690
  121OSM   H12S12819   2.904   2.159   9.643 -0.1746 -0.3475  0.2146
  121OSM   H12T12820   2.744   2.235   9.614  0.9546  0.3483 -0.5144
  121OSM   C13S12821   2.784   2.057   9.491  0.3410 -0.0922 -1.1224
  121OSM   H13S12822   2.681   2.037   9.456  0.5458 -1.5611 -0.9135
  121OSM   H13T12823   2.844   1.965   9.501 -0.0564 -0.2110  0.1803
  121OSM   C14S12824   2.864   2.133   9.375  0.9580 -0.4649 -0.5523
  121OSM   H14S12825   2.885   2.071   9.285  4.1761  1.0963 -0.9473
  121OSM   H14T12826   2.963   2.159   9.418  0.3006 -1.2396  1.4681
  121OSM   C15S12827   2.795   2.261   9.323 -0.9322 -0.4891  0.1043
  121OSM   H15S12828   2.768   2.339   9.398  0.9054 -0.1884  0.4599
  121OSM   H15T12829   2.708   2.225   9.263 -3.4472  0.4412  3.0689
  121OSM   C16S12830   2.896   2.331   9.229  0.1439  0.2330  0.2002
  121OSM   H16S12831   2.961   2.256   9.179 -0.7588 -0.9352  0.7847
  121OSM   H16T12832   2.973   2.380   9.293  1.7039 -0.8215 -0.8224
  121OSM   C17S12833   2.838   2.439   9.136 -0.9831  0.0089 -0.3496
  121OSM   H17S12834   2.764   2.509   9.181 -0.0349  0.8201 -0.0525
  121OSM   H17T12835   2.797   2.377   9.053  1.4535  0.9741 -2.3135
  121OSM   C18S12836   2.948   2.529   9.077 -0.2678  0.0177 -0.2723
  121OSM   H18S12837   2.988   2.600   9.153 -2.1152  0.6501  0.1172
  121OSM   H18T12838   2.901   2.585   8.994 -0.1604  1.3665  0.5622
  121OSM   H18U12839   3.029   2.467   9.032  2.6454  0.9445  3.3755
  121OSM    C1F12840   2.465   1.819  10.575 -0.0065  0.1514  0.8561
  121OSM     OF12841   2.362   1.886  10.599 -0.5965  0.2017  0.3763
  121OSM    C2F12842   2.459   1.686  10.512 -0.4097  0.3996 -0.1388
  121OSM    H2F12843   2.512   1.601  10.561  1.0949  1.2655 -0.2399
  121OSM    H2G12844   2.521   1.710  10.423 -0.0651  0.2712  0.0667
  121OSM    C3F12845   2.323   1.644  10.454 -0.0452  0.1423  0.5948
  121OSM    H3F12846   2.287   1.727  10.389 -1.3512  0.3135  1.5248
  121OSM    H3G12847   2.246   1.632  10.533  1.8498  0.6425  2.5688
  121OSM    C4F12848   2.334   1.524  10.354  0.1507  0.2527 -0.2573
  121OSM    H4F12849   2.236   1.480  10.327  0.2906 -0.1680 -0.0922
  121OSM    H4G12850   2.385   1.448  10.417 -0.7643  0.5604  0.8688
  121OSM    C5F12851   2.405   1.563  10.226  0.2136  0.1865  0.1979
  121OSM    H5F12852   2.514   1.546  10.238  0.1442 -0.4740 -0.0889
  121OSM    H5G12853   2.379   1.667  10.196  0.8655  0.5800  0.9867
  121OSM    C6F12854   2.382   1.494  10.091  0.0603 -0.9168  0.1693
  121OSM    H6F12855   2.275   1.510  10.065  1.2168  0.2286 -4.4017
  121OSM    H6G12856   2.408   1.387  10.101 -1.7029 -1.3995 -0.1311
  121OSM    C7F12857   2.465   1.553   9.966  0.5513 -0.0085 -0.0770
  121OSM    H7F12858   2.449   1.482   9.882  0.3119  0.9261 -0.8277
  121OSM    H7G12859   2.571   1.561   9.997  0.8997 -2.3888 -0.5724
  121OSM    C8F12860   2.409   1.685   9.908  0.2626  0.7703  0.6230
  121OSM    H8F12861   2.388   1.753   9.993  0.8231 -0.6572  1.9347
  121OSM    H8G12862   2.315   1.676   9.851  0.6393  1.1130 -0.0598
  121OSM    C9F12863   2.505   1.760   9.810 -0.1431 -0.1690 -0.5379
  121OSM    H9F12864   2.562   1.829   9.874  0.1863 -1.4414  0.5720
  121OSM   C10F12865   2.527   1.743   9.678  0.4391  0.2585  0.5656
  121OSM   H10F12866   2.580   1.817   9.616 -0.0907  1.0507  1.0461
  121OSM   C11F12867   2.453   1.639   9.590  0.7014  0.1754 -0.6656
  121OSM   H11F12868   2.403   1.571   9.661 -0.7932  2.1843  0.2627
  121OSM   H11G12869   2.533   1.577   9.545  2.4724 -0.9056  3.7233
  121OSM   C12F12870   2.355   1.707   9.489  0.1272  0.0641 -0.0067
  121OSM   H12F12871   2.279   1.761   9.549 -1.4295  0.1302 -1.9836
  121OSM   H12G12872   2.295   1.627   9.441  2.6808 -2.2899  0.5604
  121OSM   C13F12873   2.422   1.789   9.378 -0.3110  0.4772  0.3059
  121OSM   H13F12874   2.511   1.738   9.336 -0.1112  1.4076 -0.4096
  121OSM   H13G12875   2.460   1.883   9.423  1.0920 -0.1997  0.5583
  121OSM   C14F12876   2.321   1.821   9.267  0.8909  0.6872 -0.1252
  121OSM   H14F12877   2.242   1.893   9.295  0.4075 -0.8125  2.5041
  121OSM   H14G12878   2.274   1.722   9.248  0.7586  0.9005 -0.9243
  121OSM   C15F12879   2.379   1.865   9.128  0.4529  0.2848  0.3024
  121OSM   H15F12880   2.298   1.917   9.073  2.6235  2.2465 -1.1793
  121OSM   H15G12881   2.409   1.773   9.073 -1.9601 -0.9002  0.9183
  121OSM   C16F12882   2.499   1.967   9.138  0.1096 -0.7366  0.2447
  121OSM   H16F12883   2.592   1.907   9.148  0.8208  0.1516 -0.9268
  121OSM   H16G12884   2.490   2.035   9.226  3.1166  1.6365 -1.1892
  121OSM   C17F12885   2.513   2.055   9.015 -0.0266 -0.1273  0.5678
  121OSM   H17F12886   2.607   2.113   9.029  0.7393 -1.2086 -0.0595
  121OSM   H17G12887   2.428   2.126   9.018 -0.2200 -0.3331 -0.1233
  121OSM   C18F12888   2.515   1.981   8.887 -0.5227  0.2056 -0.7466
  121OSM   H18F12889   2.554   2.053   8.812 -2.5059 -1.2165 -3.2240
  121OSM   H18G12890   2.417   1.951   8.846 -1.1692  2.0997 -0.6150
  121OSM   H18H12891   2.595   1.903   8.892 -0.9250 -0.2206 -0.9859
  122OSM      N12892   3.119   6.514  10.925 -0.1466  0.2347 -0.0936
  122OSM    C1512893   3.220   6.621  10.956 -0.2460  0.1521 -0.8828
  122OSM   H15A12894   3.220   6.645  11.061 -1.9501  1.4701 -1.1623
  122OSM   H15B12895   3.186   6.711  10.908 -2.3468 -0.0086  0.2342
  122OSM   H15C12896   3.321   6.587  10.939  0.6319  2.1162  0.2623
  122OSM    C1412897   3.192   6.393  10.974 -0.1077 -0.3511 -0.2341
  122OSM   H14A12898   3.293   6.385  10.936 -0.2350  2.2410 -1.2495
  122OSM   H14B12899   3.136   6.301  10.967 -2.7715  1.1659  0.2610
  122OSM   H14C12900   3.212   6.400  11.080  1.2318 -1.4154 -0.4024
  122OSM    C1312901   3.005   6.549  11.020 -0.4241  0.9833  0.6399
  122OSM   H13A12902   3.042   6.596  11.110  1.3661 -0.8281  0.8703
  122OSM   H13B12903   2.940   6.464  11.036 -1.4688  1.6114 -0.1460
  122OSM   H13C12904   2.941   6.617  10.966  0.2957  0.3584 -1.0357
  122OSM    C1212905   3.086   6.492  10.782  0.2041  0.0772 -0.0245
  122OSM   H12A12906   2.995   6.433  10.781  0.4167 -0.2333 -1.2851
  122OSM   H12B12907   3.155   6.426  10.732 -1.4980 -1.4021 -0.5024
  122OSM    C1112908   3.065   6.616  10.683 -0.0525  0.7950 -0.0605
  122OSM   H11A12909   3.037   6.567  10.587 -2.7842  1.8669  0.1450
  122OSM   H11B12910   3.162   6.666  10.667  2.1326 -2.0146  3.6476
  122OSM      P12911   2.808   6.672  10.739 -0.0655  0.3091  0.7458
  122OSM    O1312912   2.803   6.527  10.729 -0.0479 -0.7782 -0.2390
  122OSM    O1412913   2.753   6.732  10.862 -0.1928  0.0913  0.4469
  122OSM    O1112914   2.756   6.752  10.614 -0.5631 -0.2644 -0.1529
  122OSM    O1212915   2.964   6.705  10.735  0.1180  0.0585 -0.0175
  122OSM    C1S12916   2.792   6.700  10.489 -0.3589 -0.1917  0.3330
  122OSM    H1S12917   2.736   6.607  10.465 -0.7849  0.2715 -0.4841
  122OSM    H1T12918   2.899   6.671  10.481 -0.3405 -0.2800  0.8724
  122OSM     NF12919   2.778   6.749  10.235  0.6784 -0.0425  0.3073
  122OSM    HNF12920   2.869   6.717  10.211  0.1316 -2.0120  0.7839
  122OSM    C2S12921   2.773   6.808  10.372  0.9045 -0.2230  0.0253
  122OSM    H2S12922   2.670   6.848  10.386  1.6797  2.2370 -0.9903
  122OSM    C3S12923   2.873   6.922  10.385  0.0445  0.4921 -0.0591
  122OSM    H3S12924   2.976   6.879  10.381  0.2747  0.9210  1.1121
  122OSM     O312925   2.866   6.990  10.513  0.1252  0.1518  0.6944
  122OSM    HO312926   2.801   6.938  10.560 -0.3826  0.1590  0.0040
  122OSM    C4S12927   2.848   7.021  10.277 -0.7689 -0.2481 -0.0767
  122OSM    H4S12928   2.747   7.064  10.284  0.1023  1.6083  1.5019
  122OSM    C5S12929   2.928   7.060  10.174 -0.2545 -0.1645  0.0214
  122OSM    H5S12930   3.032   7.027  10.158  0.0388  0.1056  1.3015
  122OSM    C6S12931   2.895   7.164  10.070 -0.1174  0.7107  0.3944
  122OSM    H6S12932   2.967   7.248  10.066 -0.5835  1.1638  1.4112
  122OSM    H6T12933   2.799   7.215  10.093 -0.6250 -0.0305 -0.0458
  122OSM    C7S12934   2.871   7.094   9.939 -0.7676 -0.0258 -0.1950
  122OSM    H7S12935   2.823   7.163   9.866 -1.6146  0.5177  0.8692
  122OSM    H7T12936   2.792   7.017   9.949 -0.5811 -0.3528 -1.1855
  122OSM    C8S12937   2.998   7.033   9.871  0.6237 -0.3832 -0.2025
  122OSM    H8S12938   2.951   6.989   9.780  1.8060  0.4373 -1.2291
  122OSM    H8T12939   3.036   6.946   9.929  0.1623  0.1562  0.9291
  122OSM    C9S12940   3.107   7.129   9.829 -0.3315  0.2578  0.3309
  122OSM    H9S12941   3.170   7.057   9.774 -3.9785 -0.6998 -2.7525
  122OSM    H9T12942   3.163   7.156   9.921  0.3167 -2.5610  0.8147
  122OSM   C10S12943   3.062   7.264   9.757 -0.3160 -0.0502  0.1715
  122OSM   H10S12944   2.996   7.321   9.826  0.6053  0.5475  0.5699
  122OSM   H10T12945   3.007   7.244   9.662  0.8293  0.2245 -0.5692
  122OSM   C11S12946   3.189   7.349   9.736 -0.1690 -0.3411  0.0881
  122OSM   H11S12947   3.247   7.288   9.665 -0.7744 -2.1028  1.0886
  122OSM   H11T12948   3.242   7.350   9.833 -1.8421 -1.7372  1.0484
  122OSM   C12S12949   3.178   7.496   9.692  0.2990  0.5603  0.2103
  122OSM   H12S12950   3.266   7.547   9.736 -0.1707 -0.1303  1.9912
  122OSM   H12T12951   3.092   7.547   9.742 -0.1366 -0.8670  0.9335
  122OSM   C13S12952   3.176   7.515   9.540 -0.2256 -0.7515  0.6185
  122OSM   H13S12953   3.270   7.472   9.500 -0.7399 -2.4563  1.2008
  122OSM   H13T12954   3.173   7.626   9.534  0.2665 -0.7600  0.2170
  122OSM   C14S12955   3.052   7.455   9.474 -0.2455  0.7663  0.2139
  122OSM   H14S12956   2.964   7.487   9.533  0.0585 -0.0690  1.1404
  122OSM   H14T12957   3.070   7.345   9.468 -2.4397  0.3168  1.5544
  122OSM   C15S12958   3.032   7.504   9.334 -1.1128 -0.1973 -0.2847
  122OSM   H15S12959   3.126   7.483   9.279 -0.7044  1.6403 -0.3463
  122OSM   H15T12960   3.043   7.615   9.338  0.1063 -0.2942 -0.6455
  122OSM   C16S12961   2.898   7.468   9.265 -0.1148  0.3870  0.1659
  122OSM   H16S12962   2.838   7.547   9.316  1.6810  1.9121 -0.0170
  122OSM   H16T12963   2.863   7.372   9.307  0.4117  0.0985 -0.0491
  122OSM   C17S12964   2.896   7.479   9.109 -0.2830  0.7587 -0.2510
  122OSM   H17S12965   2.798   7.444   9.070 -0.1346 -0.6925  0.6413
  122OSM   H17T12966   2.969   7.411   9.061 -0.3454 -1.1288  2.2031
  122OSM   C18S12967   2.938   7.611   9.048 -0.0685  0.3858  0.4141
  122OSM   H18S12968   2.865   7.692   9.069  0.1035  0.2089  1.7473
  122OSM   H18T12969   2.957   7.611   8.939 -1.4946 -0.6764  0.1477
  122OSM   H18U12970   3.026   7.656   9.098 -0.8314  1.7811  0.5483
  122OSM    C1F12971   2.680   6.676  10.193  1.1056 -0.1015  0.1607
  122OSM     OF12972   2.571   6.667  10.245 -0.0523 -0.3007  0.7656
  122OSM    C2F12973   2.716   6.593  10.070  0.5154  0.0075  0.6179
  122OSM    H2F12974   2.649   6.505  10.055  0.0372  0.3931  0.4767
  122OSM    H2G12975   2.814   6.543  10.084 -0.2336 -1.6867  0.0142
  122OSM    C3F12976   2.720   6.678   9.942  0.0246 -0.1346  0.1403
  122OSM    H3F12977   2.794   6.760   9.950 -1.8202  1.5191  0.6125
  122OSM    H3G12978   2.620   6.722   9.924  0.6225  1.1975  0.0457
  122OSM    C4F12979   2.742   6.587   9.818  0.7639  0.9106 -0.1916
  122OSM    H4F12980   2.735   6.655   9.731 -2.7754  2.9302  1.5578
  122OSM    H4G12981   2.670   6.504   9.810  0.3844  1.2633 -0.4575
  122OSM    C5F12982   2.880   6.519   9.815  0.0701  0.1547  0.3781
  122OSM    H5F12983   2.884   6.440   9.893  0.2407 -0.6100 -0.3818
  122OSM    H5G12984   2.955   6.598   9.832  0.0199  0.2960 -0.0532
  122OSM    C6F12985   2.898   6.443   9.679  0.0070 -0.3522 -0.5391
  122OSM    H6F12986   3.007   6.428   9.666  0.0750 -0.4991  0.2133
  122OSM    H6G12987   2.866   6.508   9.594  0.5900  0.6044 -0.0400
  122OSM    C7F12988   2.828   6.316   9.677  0.0738  0.0230 -0.0574
  122OSM    H7F12989   2.723   6.333   9.709 -0.4894 -0.6056 -1.5242
  122OSM    H7G12990   2.861   6.247   9.758 -1.6400  1.2030  1.6774
  122OSM    C8F12991   2.837   6.242   9.542 -0.2233  0.1607  0.0369
  122OSM    H8F12992   2.793   6.313   9.469  0.4992  0.6275  0.0501
  122OSM    H8G12993   2.768   6.157   9.560  1.3114 -0.8827  1.0686
  122OSM    C9F12994   2.979   6.203   9.513 -1.1330 -0.3769 -0.4178
  122OSM    H9F12995   3.026   6.136   9.588  0.6927 -1.0059 -2.0864
  122OSM   C10F12996   3.062   6.241   9.412 -0.4465 -0.1797 -0.0417
  122OSM   H10F12997   3.168   6.213   9.420 -0.4444  0.2031  1.3490
  122OSM   C11F12998   3.030   6.325   9.297  0.4721 -0.2568 -0.0100
  122OSM   H11F12999   2.922   6.351   9.302  1.0856  2.1211  2.1077
  122OSM   H11G13000   3.049   6.281   9.197  1.3628  0.5058 -0.1760
  122OSM   C12F13001   3.099   6.468   9.317 -0.1435  0.8162 -0.0144
  122OSM   H12F13002   3.208   6.459   9.339 -0.2988 -0.0948  0.3821
  122OSM   H12G13003   3.048   6.507   9.407 -0.9251  1.2096 -0.6258
  122OSM   C13F13004   3.056   6.557   9.203  0.3801 -0.1390  0.3979
  122OSM   H13F13005   2.948   6.530   9.195  0.7353 -1.1971 -1.1100
  122OSM   H13G13006   3.098   6.516   9.108 -0.6100 -0.1450 -0.0508
  122OSM   C14F13007   3.090   6.706   9.214 -0.7776  0.2901 -0.2575
  122OSM   H14F13008   3.083   6.749   9.111 -0.5843  0.4245 -0.2146
  122OSM   H14G13009   3.198   6.712   9.238 -0.6057 -0.4624 -0.8266
  122OSM   C15F13010   2.995   6.794   9.303  0.0612  0.4924 -0.6369
  122OSM   H15F13011   3.022   6.775   9.409  0.5728 -0.4305 -0.9241
  122OSM   H15G13012   2.891   6.756   9.291  0.5907 -0.4963 -2.2389
  122OSM   C16F13013   3.010   6.942   9.275  0.7119 -0.0324  0.3779
  122OSM   H16F13014   2.952   6.987   9.359 -0.2193  1.2666 -0.9480
  122OSM   H16G13015   2.947   6.979   9.192  1.4148 -0.4100 -0.3245
  122OSM   C17F13016   3.144   6.998   9.268 -0.0651  0.4608 -0.2096
  122OSM   H17F13017   3.184   6.944   9.179 -2.6787  1.0959 -1.8269
  122OSM   H17G13018   3.205   6.963   9.354  1.0779  1.3544 -0.6374
  122OSM   C18F13019   3.174   7.147   9.234  0.1478 -0.2513  0.2451
  122OSM   H18F13020   3.145   7.170   9.129 -0.0979 -0.0557  0.3545
  122OSM   H18G13021   3.279   7.168   9.265  1.1246 -1.2227 -2.2445
  122OSM   H18H13022   3.109   7.217   9.289 -0.9315  1.3099 -2.8975
  123OSM      N13023   0.716   5.783   5.603  0.9017  0.3638 -0.1885
  123OSM    C1513024   0.564   5.777   5.573 -0.7882  0.0257 -0.3638
  123OSM   H15A13025   0.508   5.780   5.665 -0.9848  0.5546 -0.4974
  123OSM   H15B13026   0.547   5.682   5.524 -2.5929  0.0306  0.2295
  123OSM   H15C13027   0.531   5.858   5.509 -0.7789  0.3756  0.0705
  123OSM    C1413028   0.790   5.778   5.475 -0.2541 -0.4783 -0.0271
  123OSM   H14A13029   0.746   5.845   5.403  1.0887 -3.2974 -3.6442
  123OSM   H14B13030   0.794   5.681   5.429 -2.0522 -0.7649  0.3839
  123OSM   H14C13031   0.893   5.810   5.485 -0.9109  0.6483  3.8676
  123OSM    C1313032   0.751   5.915   5.670  0.8250  0.5824 -0.1659
  123OSM   H13A13033   0.700   5.922   5.765 -1.0291  0.2820 -1.1058
  123OSM   H13B13034   0.725   6.009   5.623 -0.3565  1.6566  2.5057
  123OSM   H13C13035   0.854   5.911   5.702  0.1389  1.8030  2.3227
  123OSM    C1213036   0.758   5.666   5.686  0.5937 -0.8056  0.2664
  123OSM   H12A13037   0.866   5.663   5.676  0.6814  1.7359  0.1609
  123OSM   H12B13038   0.717   5.574   5.647 -2.3042  0.5623 -0.0403
  123OSM    C1113039   0.713   5.668   5.842  0.3600 -0.5132 -0.5325
  123OSM   H11A13040   0.721   5.567   5.887  2.8394  1.0301  2.7421
  123OSM   H11B13041   0.604   5.690   5.839  0.4253 -0.0293  0.3860
  123OSM      P13042   0.936   5.715   5.968 -0.5904 -0.4367  0.0894
  123OSM    O1313043   0.994   5.624   5.863  0.3343  0.0599  0.1229
  123OSM    O1413044   1.018   5.829   6.000  0.1398 -0.6006 -0.3947
  123OSM    O1113045   0.882   5.638   6.093  0.0856 -0.1096  0.4894
  123OSM    O1213046   0.792   5.765   5.915 -0.2819 -0.3782 -0.0703
  123OSM    C1S13047   0.911   5.506   6.139  0.5472  0.5280 -0.4382
  123OSM    H1S13048   1.000   5.472   6.084  1.2774  0.8524  0.5288
  123OSM    H1T13049   0.828   5.436   6.115  0.9036 -1.0625  2.7401
  123OSM     NF13050   0.818   5.459   6.360 -0.0759 -0.0561 -0.2578
  123OSM    HNF13051   0.760   5.533   6.391  1.2069  2.0187 -2.6113
  123OSM    C2S13052   0.934   5.506   6.294 -0.2374  0.0003 -0.2649
  123OSM    H2S13053   1.017   5.433   6.306 -1.2637 -1.1792 -0.4087
  123OSM    C3S13054   0.991   5.634   6.364 -0.3050  0.3510 -0.3025
  123OSM    H3S13055   0.905   5.704   6.373 -0.0323  0.5049  1.2626
  123OSM     O313056   1.088   5.709   6.291 -0.4071  0.0606 -0.5140
  123OSM    HO313057   1.039   5.739   6.215 -0.1369  0.8535 -0.3785
  123OSM    C4S13058   1.034   5.590   6.500 -0.2297  0.6065 -0.0517
  123OSM    H4S13059   1.127   5.530   6.496 -0.4579  0.2223  0.3336
  123OSM    C5S13060   0.981   5.621   6.626  0.0257  0.4878 -0.0804
  123OSM    H5S13061   0.897   5.692   6.633 -0.4566 -0.1015  0.1360
  123OSM    C6S13062   1.027   5.576   6.765 -0.4341  0.3086  0.0706
  123OSM    H6S13063   0.945   5.521   6.815 -0.4240  1.3930  1.3032
  123OSM    H6T13064   1.037   5.675   6.814 -3.2496 -0.8828  3.2225
  123OSM    C7S13065   1.144   5.477   6.787 -0.1801 -1.1639  0.3051
  123OSM    H7S13066   1.221   5.499   6.710  0.6421 -1.5719  1.0068
  123OSM    H7T13067   1.107   5.376   6.760 -1.4758 -1.3839  2.7562
  123OSM    C8S13068   1.197   5.483   6.931 -0.5331  0.2317 -0.7233
  123OSM    H8S13069   1.242   5.387   6.966 -2.1627 -0.1295  0.4517
  123OSM    H8T13070   1.108   5.496   6.997 -0.1304  0.9983 -0.3202
  123OSM    C9S13071   1.290   5.602   6.945 -0.2072 -0.3369 -0.1957
  123OSM    H9S13072   1.233   5.696   6.927  0.1401 -0.2398 -0.8038
  123OSM    H9T13073   1.371   5.595   6.869  0.1841 -0.4710  0.2292
  123OSM   C10S13074   1.343   5.608   7.084 -0.2430 -0.6883 -0.2442
  123OSM   H10S13075   1.381   5.711   7.096  1.5930 -1.7544  3.8397
  123OSM   H10T13076   1.431   5.540   7.083  0.6106  0.4102 -0.4832
  123OSM   C11S13077   1.252   5.571   7.200  0.2596 -0.0402  0.6153
  123OSM   H11S13078   1.205   5.472   7.180  1.1082 -0.1257 -1.0233
  123OSM   H11T13079   1.170   5.647   7.203 -0.2167 -0.5930  1.6841
  123OSM   C12S13080   1.324   5.569   7.334  0.4306 -0.0990 -0.1781
  123OSM   H12S13081   1.312   5.673   7.369 -0.4737 -0.6238  1.1060
  123OSM   H12T13082   1.431   5.551   7.309  0.4276 -0.0507 -0.2240
  123OSM   C13S13083   1.277   5.465   7.431  0.3518 -0.2009 -0.2915
  123OSM   H13S13084   1.276   5.368   7.377  0.5561  0.1357 -0.9010
  123OSM   H13T13085   1.174   5.494   7.461 -0.0008 -0.9801 -0.7515
  123OSM   C14S13086   1.375   5.458   7.553 -0.6468  0.3940  0.4013
  123OSM   H14S13087   1.323   5.409   7.638 -0.5904  0.1904  0.3183
  123OSM   H14T13088   1.402   5.563   7.579  2.2388  0.0432 -1.0367
  123OSM   C15S13089   1.498   5.378   7.512 -0.5061 -0.2784 -0.3905
  123OSM   H15S13090   1.543   5.425   7.422  0.1920 -1.6016 -0.7453
  123OSM   H15T13091   1.478   5.272   7.484  2.5207 -0.9271 -0.2849
  123OSM   C16S13092   1.605   5.380   7.618  0.5537 -0.2887 -1.0177
  123OSM   H16S13093   1.645   5.482   7.634  0.2842 -0.3934  0.4260
  123OSM   H16T13094   1.699   5.324   7.598  0.5321 -0.2246 -1.3041
  123OSM   C17S13095   1.557   5.340   7.753 -0.1074 -0.2991 -0.9817
  123OSM   H17S13096   1.478   5.262   7.741  0.5417 -0.7389 -2.6051
  123OSM   H17T13097   1.513   5.427   7.807  1.8561 -0.0315  0.2062
  123OSM   C18S13098   1.662   5.280   7.850 -0.6784 -0.1632 -0.0921
  123OSM   H18S13099   1.740   5.354   7.879  0.6824 -1.0434 -1.4270
  123OSM   H18T13100   1.702   5.193   7.794 -1.0775  0.4161 -1.2880
  123OSM   H18U13101   1.612   5.243   7.942 -1.1725  0.3101 -0.1645
  123OSM    C1F13102   0.792   5.330   6.369 -0.4863 -0.6664 -0.4194
  123OSM     OF13103   0.880   5.247   6.351 -0.3025  0.0077  0.2489
  123OSM    C2F13104   0.659   5.298   6.408 -0.1708 -0.1304  1.0602
  123OSM    H2F13105   0.612   5.249   6.320 -1.5193  1.1230  1.0565
  123OSM    H2G13106   0.611   5.397   6.420  0.3131  0.2631 -0.1911
  123OSM    C3F13107   0.636   5.209   6.527 -0.0656 -0.3360 -0.0150
  123OSM    H3F13108   0.690   5.112   6.519 -0.9298 -1.1279  2.8781
  123OSM    H3G13109   0.529   5.182   6.537  0.2298 -1.5827 -0.1522
  123OSM    C4F13110   0.696   5.269   6.659 -0.5915  0.7209  0.9918
  123OSM    H4F13111   0.684   5.380   6.657 -1.3608  0.6462  1.2115
  123OSM    H4G13112   0.805   5.248   6.655 -0.8329 -0.0645 -2.4158
  123OSM    C5F13113   0.656   5.207   6.788 -0.8886  0.4788 -0.1753
  123OSM    H5F13114   0.698   5.104   6.783 -0.5855  0.5513  0.7596
  123OSM    H5G13115   0.547   5.184   6.782 -0.1162 -3.8033  0.3267
  123OSM    C6F13116   0.695   5.297   6.901 -0.3219 -0.4327  0.7651
  123OSM    H6F13117   0.642   5.393   6.886  1.4663  0.3832 -0.5173
  123OSM    H6G13118   0.804   5.312   6.892 -0.6020  0.5407 -1.3082
  123OSM    C7F13119   0.653   5.252   7.040  0.1711  0.4260  0.4910
  123OSM    H7F13120   0.714   5.160   7.056  0.1469  0.1097 -1.1384
  123OSM    H7G13121   0.553   5.204   7.029  1.4609 -2.0697 -0.7735
  123OSM    C8F13122   0.656   5.356   7.148 -0.0256  0.0801 -0.8798
  123OSM    H8F13123   0.633   5.307   7.245 -0.4925  1.3061 -0.3562
  123OSM    H8G13124   0.567   5.422   7.141  0.9843  1.6232  0.2549
  123OSM    C9F13125   0.787   5.431   7.161  0.1827  0.6016  0.4309
  123OSM    H9F13126   0.805   5.501   7.078 -1.1602  2.5032  1.6925
  123OSM   C10F13127   0.877   5.417   7.258  0.2200 -0.3881 -0.1600
  123OSM   H10F13128   0.957   5.491   7.272  0.2838  0.0408 -2.6309
  123OSM   C11F13129   0.874   5.310   7.360 -0.4389  0.0674  0.2534
  123OSM   H11F13130   0.974   5.268   7.387  0.3868  0.6415 -1.8458
  123OSM   H11G13131   0.821   5.218   7.328  1.0115  0.2274 -2.7033
  123OSM   C12F13132   0.800   5.350   7.489 -0.0971  0.2457 -0.0696
  123OSM   H12F13133   0.789   5.251   7.538 -1.5928  0.8685  0.8866
  123OSM   H12G13134   0.700   5.383   7.453  0.8212  1.0901 -1.9404
  123OSM   C13F13135   0.871   5.456   7.573  0.2670  0.8170 -0.2311
  123OSM   H13F13136   0.872   5.557   7.528 -0.7747  1.6094  1.4810
  123OSM   H13G13137   0.978   5.429   7.587  0.9341  4.0900  1.3891
  123OSM   C14F13138   0.808   5.477   7.712 -0.2532 -0.0978 -0.0002
  123OSM   H14F13139   0.800   5.384   7.772  1.3675  0.6067  1.3460
  123OSM   H14G13140   0.712   5.529   7.694 -0.5784 -0.2287  1.2984
  123OSM   C15F13141   0.897   5.568   7.798  0.6397 -0.8154 -0.6295
  123OSM   H15F13142   0.831   5.609   7.878  0.0899 -0.5700 -1.2018
  123OSM   H15G13143   0.933   5.658   7.743 -0.9532  0.7405  0.7926
  123OSM   C16F13144   1.030   5.511   7.863 -0.2255  0.3776  0.2410
  123OSM   H16F13145   1.070   5.435   7.793  1.5546 -0.9740  2.6569
  123OSM   H16G13146   0.992   5.448   7.946 -1.4878 -1.7081 -1.8539
  123OSM   C17F13147   1.140   5.609   7.899  0.1404  0.5651  0.1741
  123OSM   H17F13148   1.164   5.672   7.810  1.6265 -2.8585 -1.9361
  123OSM   H17G13149   1.238   5.560   7.917 -0.2471 -0.2795  0.0190
  123OSM   C18F13150   1.105   5.706   8.011 -0.3142  0.3240 -0.3258
  123OSM   H18F13151   1.126   5.679   8.117  0.3923  1.1597 -0.2397
  123OSM   H18G13152   0.996   5.720   7.998 -0.9633 -2.3213  1.8960
  123OSM   H18H13153   1.152   5.807   8.003 -0.6724  0.5837  0.7553
  124OSM      N13154   2.755   3.155   6.025  0.1874  0.0887 -0.1334
  124OSM    C1513155   2.650   3.255   6.053 -0.0695 -0.1723  0.0086
  124OSM   H15A13156   2.680   3.323   6.132 -1.5057 -0.5255  0.8737
  124OSM   H15B13157   2.551   3.214   6.068  0.9224 -2.0026  1.5997
  124OSM   H15C13158   2.632   3.320   5.968  0.8308  0.9697  0.6775
  124OSM    C1413159   2.706   3.055   5.924 -0.1547  0.0656  0.9400
  124OSM   H14A13160   2.781   2.982   5.900 -0.7670 -1.4342  3.3915
  124OSM   H14B13161   2.660   3.097   5.836 -3.1197 -2.5063  1.1590
  124OSM   H14C13162   2.628   2.995   5.969 -1.2469  0.8598  0.1336
  124OSM    C1313163   2.883   3.217   5.973 -0.4172  0.2771 -0.0038
  124OSM   H13A13164   2.873   3.240   5.868 -0.5885  1.6223  0.2965
  124OSM   H13B13165   2.961   3.143   5.980 -0.8976 -0.1000  1.4536
  124OSM   H13C13166   2.910   3.300   6.036  2.1115 -2.1897  2.2781
  124OSM    C1213167   2.785   3.081   6.154  0.3489 -1.3293  0.2505
  124OSM   H12A13168   2.857   3.002   6.137  1.4308 -0.5435  1.0980
  124OSM   H12B13169   2.692   3.033   6.180 -2.3027  3.5489  0.4336
  124OSM    C1113170   2.821   3.156   6.284 -0.1705 -0.1869  0.6384
  124OSM   H11A13171   2.842   3.093   6.373  0.0760  0.5457  1.1007
  124OSM   H11B13172   2.739   3.226   6.311  2.4605  2.0462  3.0586
  124OSM      P13173   2.966   3.378   6.290 -0.1209  0.3318 -0.2456
  124OSM    O1313174   3.101   3.421   6.253 -0.0531 -0.7011 -0.3729
  124OSM    O1413175   2.855   3.460   6.234 -0.3854 -0.5905  0.8466
  124OSM    O1113176   2.960   3.384   6.448 -0.0074  1.3996 -0.1954
  124OSM    O1213177   2.942   3.226   6.253 -0.1023  0.8132  0.0956
  124OSM    C1S13178   3.011   3.273   6.524  0.0575 -0.2669 -0.6265
  124OSM    H1S13179   3.117   3.247   6.505  0.5980 -1.3771  3.3133
  124OSM    H1T13180   2.944   3.184   6.521  0.8609 -1.1111  3.1359
  124OSM     NF13181   3.150   3.253   6.749  0.5654 -0.0490  0.1147
  124OSM    HNF13182   3.144   3.185   6.822 -1.7067 -0.3687 -0.3216
  124OSM    C2S13183   3.028   3.310   6.677 -0.2528 -0.2105  0.4629
  124OSM    H2S13184   3.041   3.420   6.684  1.1315 -0.3035 -0.4675
  124OSM    C3S13185   2.896   3.278   6.741  0.2147  0.5028  0.0040
  124OSM    H3S13186   2.897   3.168   6.728  2.5770  0.7560 -2.3008
  124OSM     O313187   2.779   3.331   6.675 -0.3170 -0.3537 -0.4505
  124OSM    HO313188   2.813   3.370   6.594  1.3126 -0.0919  0.3322
  124OSM    C4S13189   2.893   3.320   6.893  0.8643  0.0518  0.8111
  124OSM    H4S13190   2.895   3.233   6.961 -1.5621 -1.5346 -1.0639
  124OSM    C5S13191   2.876   3.445   6.946  0.3759 -0.0025 -0.2043
  124OSM    H5S13192   2.840   3.524   6.879 -0.3920  0.1697  0.4154
  124OSM    C6S13193   2.871   3.469   7.095  0.4597  0.5144  0.1412
  124OSM    H6S13194   2.855   3.381   7.161  1.2764 -1.4655 -2.2193
  124OSM    H6T13195   2.782   3.535   7.106  0.1157 -0.2183  1.9364
  124OSM    C7S13196   2.992   3.549   7.141  0.4091  0.6933  0.2906
  124OSM    H7S13197   3.017   3.637   7.078 -1.4140  0.6600 -0.5283
  124OSM    H7T13198   3.075   3.477   7.126  0.1547  0.4244  0.1641
  124OSM    C8S13199   2.981   3.598   7.288 -1.0130 -0.4047 -0.0497
  124OSM    H8S13200   2.890   3.552   7.333 -0.3234 -3.5526 -1.7376
  124OSM    H8T13201   2.960   3.707   7.285 -1.7666 -0.4584  2.1790
  124OSM    C9S13202   3.100   3.582   7.377 -0.4089 -0.6960  0.0268
  124OSM    H9S13203   3.186   3.640   7.335 -0.4700 -2.2587 -2.3643
  124OSM    H9T13204   3.132   3.476   7.382  0.8887 -0.2900  0.6411
  124OSM   C10S13205   3.088   3.644   7.520  0.0459  0.1513  0.6009
  124OSM   H10S13206   3.044   3.744   7.501 -0.0258 -0.5245 -3.0777
  124OSM   H10T13207   3.192   3.642   7.558 -0.1400  0.6640  1.1543
  124OSM   C11S13208   2.998   3.557   7.609 -0.0100 -0.5263 -0.2467
  124OSM   H11S13209   3.050   3.459   7.614  0.9135  0.0278  1.3055
  124OSM   H11T13210   2.902   3.532   7.558 -0.4531  0.8962 -0.1276
  124OSM   C12S13211   2.981   3.605   7.747 -0.5788 -0.3393 -0.2203
  124OSM   H12S13212   2.937   3.708   7.754 -2.2936 -1.1878  2.5286
  124OSM   H12T13213   3.084   3.614   7.786  0.2856 -0.4138 -2.4214
  124OSM   C13S13214   2.903   3.508   7.842  0.7623  0.3090 -0.2479
  124OSM   H13S13215   2.957   3.411   7.838  1.0859  0.4976 -0.5441
  124OSM   H13T13216   2.797   3.505   7.811  0.6656 -0.7987  0.2047
  124OSM   C14S13217   2.895   3.552   7.991 -0.1516  0.2550  0.6117
  124OSM   H14S13218   3.004   3.563   8.013  0.2033 -2.9629  0.7273
  124OSM   H14T13219   2.863   3.460   8.045 -2.5963  1.3140  1.0074
  124OSM   C15S13220   2.813   3.680   8.019  0.3843  0.3096 -0.2438
  124OSM   H15S13221   2.705   3.671   7.992  0.1415  0.8201  0.5419
  124OSM   H15T13222   2.871   3.763   7.972 -0.1760  1.9497  1.8798
  124OSM   C16S13223   2.825   3.721   8.168 -0.7000 -0.3694  0.2952
  124OSM   H16S13224   2.935   3.717   8.178 -0.8078  0.8668  2.2770
  124OSM   H16T13225   2.767   3.652   8.232 -2.3996  0.9666  0.2623
  124OSM   C17S13226   2.790   3.871   8.182 -0.1864  0.8815 -0.8262
  124OSM   H17S13227   2.681   3.891   8.191  0.0495  1.7419  0.1299
  124OSM   H17T13228   2.834   3.927   8.097  1.6495  0.9099  0.1285
  124OSM   C18S13229   2.861   3.916   8.307 -0.0869  0.6905  0.0877
  124OSM   H18S13230   2.967   3.893   8.285 -0.5357 -2.2690  0.7893
  124OSM   H18T13231   2.831   3.858   8.397 -0.2051 -0.6356 -0.7885
  124OSM   H18U13232   2.846   4.026   8.317  3.4274  1.0962  1.6039
  124OSM    C1F13233   3.274   3.304   6.708  0.1958 -0.1534  1.2740
  124OSM     OF13234   3.285   3.391   6.623 -0.2614 -0.3357  0.5080
  124OSM    C2F13235   3.397   3.243   6.768 -0.1274 -1.0914  0.1929
  124OSM    H2F13236   3.459   3.202   6.686 -2.3073 -0.5156 -1.7829
  124OSM    H2G13237   3.364   3.162   6.837  4.6142 -0.8366  3.0468
  124OSM    C3F13238   3.474   3.337   6.850  0.1958  0.1760 -0.4315
  124OSM    H3F13239   3.501   3.429   6.795  0.4475  0.2129 -0.2427
  124OSM    H3G13240   3.571   3.287   6.870 -0.2919 -0.2870  0.8056
  124OSM    C4F13241   3.424   3.397   6.988 -0.0590 -0.1248 -0.3593
  124OSM    H4F13242   3.388   3.323   7.062  1.4999 -0.3914  0.1600
  124OSM    H4G13243   3.353   3.481   6.971  1.2612  1.0334 -0.3026
  124OSM    C5F13244   3.532   3.468   7.073 -0.8809 -0.3299 -0.2239
  124OSM    H5F13245   3.582   3.553   7.023  0.5355 -0.5552  0.7717
  124OSM    H5G13246   3.611   3.396   7.106 -1.4054 -1.0836 -0.5970
  124OSM    C6F13247   3.471   3.501   7.205 -0.3855  0.3107 -0.2977
  124OSM    H6F13248   3.425   3.411   7.251 -0.5138  0.8693  0.6853
  124OSM    H6G13249   3.383   3.568   7.194  0.0963  0.6517 -2.2427
  124OSM    C7F13250   3.560   3.556   7.311  0.5098 -0.3582 -0.9333
  124OSM    H7F13251   3.593   3.658   7.283  0.9824 -0.1400  0.3471
  124OSM    H7G13252   3.660   3.508   7.318  1.5744  1.8952 -0.3770
  124OSM    C8F13253   3.493   3.556   7.458  0.3939  1.0522  0.2305
  124OSM    H8F13254   3.385   3.574   7.439 -0.0433 -2.1643 -0.7455
  124OSM    H8G13255   3.539   3.640   7.513 -0.3168  0.2923  2.0058
  124OSM    C9F13256   3.534   3.425   7.530 -0.3745 -0.9130  0.1826
  124OSM    H9F13257   3.608   3.363   7.478 -0.1088 -0.0358 -0.4955
  124OSM   C10F13258   3.482   3.381   7.643 -0.2058 -0.2647 -0.5963
  124OSM   H10F13259   3.510   3.280   7.675  0.7642  0.3512  0.5353
  124OSM   C11F13260   3.370   3.445   7.723  0.8398 -0.2494  0.4195
  124OSM   H11F13261   3.270   3.417   7.682  1.7225 -0.9533 -1.2917
  124OSM   H11G13262   3.376   3.555   7.734 -0.9554 -0.1656  0.7625
  124OSM   C12F13263   3.353   3.390   7.869  0.0957  0.9306 -0.8359
  124OSM   H12F13264   3.452   3.378   7.916 -0.8212 -0.3364  0.8192
  124OSM   H12G13265   3.313   3.288   7.850  3.3679 -0.1532 -2.2097
  124OSM   C13F13266   3.267   3.473   7.966  0.3907  0.4645  0.5533
  124OSM   H13F13267   3.161   3.448   7.940  0.3816 -0.7290  1.7511
  124OSM   H13G13268   3.290   3.580   7.946  1.7899 -0.1092 -1.0217
  124OSM   C14F13269   3.296   3.450   8.114  0.0417  0.6609 -0.3055
  124OSM   H14F13270   3.395   3.497   8.129  0.7481 -1.2766  1.1669
  124OSM   H14G13271   3.308   3.341   8.127 -1.9265  0.3518 -0.8249
  124OSM   C15F13272   3.209   3.528   8.221  0.5063 -0.6580 -0.5432
  124OSM   H15F13273   3.102   3.536   8.194  0.3697 -1.2361 -0.1989
  124OSM   H15G13274   3.238   3.635   8.221 -3.6068  0.6246  3.1772
  124OSM   C16F13275   3.224   3.475   8.363  0.3693  0.5714 -0.5539
  124OSM   H16F13276   3.325   3.492   8.407  0.6861  0.6003 -1.2772
  124OSM   H16G13277   3.211   3.365   8.356  2.3262  0.0580  2.5385
  124OSM   C17F13278   3.128   3.543   8.462 -0.0410 -0.2162  0.2734
  124OSM   H17F13279   3.036   3.587   8.420  0.2045  1.4562  1.4262
  124OSM   H17G13280   3.189   3.626   8.504  2.8001 -2.8698  1.6116
  124OSM   C18F13281   3.083   3.457   8.582  0.5424 -0.9678 -0.6433
  124OSM   H18F13282   2.990   3.502   8.623  0.1823 -2.1260 -0.1778
  124OSM   H18G13283   3.154   3.454   8.668 -0.6286  1.7201  0.4679
  124OSM   H18H13284   3.065   3.352   8.550 -0.6967 -1.9530  3.0369
  125OSM      N13285   2.696   4.319   6.248 -0.3000 -0.0880 -1.1127
  125OSM    C1513286   2.742   4.447   6.182  0.3509 -0.4241 -0.1188
  125OSM   H15A13287   2.661   4.518   6.177 -1.0094 -1.8750  0.7371
  125OSM   H15B13288   2.789   4.423   6.088 -0.2210 -1.3526 -0.1807
  125OSM   H15C13289   2.816   4.493   6.247 -3.1409  3.2586  1.4715
  125OSM    C1413290   2.638   4.349   6.389  0.5388 -0.1765 -0.2897
  125OSM   H14A13291   2.540   4.393   6.376 -0.2564 -1.4615  1.2320
  125OSM   H14B13292   2.699   4.417   6.448  0.2080  0.5950 -0.8358
  125OSM   H14C13293   2.642   4.258   6.447  1.1744 -0.6140 -1.0184
  125OSM    C1313294   2.579   4.273   6.171 -0.0935 -0.2295 -0.3162
  125OSM   H13A13295   2.548   4.174   6.199 -0.1652 -0.3953 -0.9686
  125OSM   H13B13296   2.597   4.269   6.064 -3.6034 -0.6947 -0.9601
  125OSM   H13C13297   2.495   4.338   6.192 -1.3334 -2.3491  1.5384
  125OSM    C1213298   2.805   4.210   6.273 -0.4804 -0.3698 -0.0247
  125OSM   H12A13299   2.838   4.174   6.177  0.2205  0.7333 -0.1980
  125OSM   H12B13300   2.755   4.128   6.322 -0.7094  0.1052  0.5508
  125OSM    C1113301   2.931   4.246   6.357  0.2483 -0.1606 -0.3124
  125OSM   H11A13302   2.995   4.157   6.376  0.2881 -0.4189 -1.5695
  125OSM   H11B13303   2.888   4.282   6.453 -1.5104 -0.4474 -0.9869
  125OSM      P13304   3.116   4.324   6.191  0.1618 -0.1660 -0.2778
  125OSM    O1313305   3.091   4.201   6.119 -0.2279  0.3203 -0.6521
  125OSM    O1413306   3.147   4.447   6.120  0.2418  0.2669  0.9587
  125OSM    O1113307   3.233   4.306   6.290 -0.5153 -0.1659  0.4403
  125OSM    O1213308   3.003   4.357   6.302 -0.4604 -0.0113 -0.5173
  125OSM    C1S13309   3.301   4.410   6.367 -0.0934  0.0232  0.3009
  125OSM    H1S13310   3.274   4.511   6.330  0.0168 -0.0626 -0.0127
  125OSM    H1T13311   3.411   4.399   6.354 -0.3260  0.0603 -1.8197
  125OSM     NF13312   3.314   4.520   6.587 -0.3329  0.0718  0.1484
  125OSM    HNF13313   3.411   4.525   6.610  0.1357  0.7327 -1.8826
  125OSM    C2S13314   3.271   4.399   6.517  0.6264  0.1567 -0.5414
  125OSM    H2S13315   3.160   4.388   6.517  0.7024 -0.9348  2.0735
  125OSM    C3S13316   3.325   4.278   6.573 -0.0506  0.3311 -0.5212
  125OSM    H3S13317   3.436   4.280   6.571  0.1164 -2.5668  2.1320
  125OSM     O313318   3.276   4.159   6.516 -0.8815  0.3875 -0.1212
  125OSM    HO313319   3.219   4.190   6.445 -0.3731  1.5461 -0.0464
  125OSM    C4S13320   3.289   4.278   6.720  0.6245 -0.2842 -0.3512
  125OSM    H4S13321   3.373   4.292   6.790 -0.7301 -1.2004  1.4828
  125OSM    C5S13322   3.169   4.252   6.779  0.5529 -0.3764  0.5557
  125OSM    H5S13323   3.082   4.218   6.721  0.0547 -1.3725  1.8527
  125OSM    C6S13324   3.156   4.255   6.930  0.5828 -0.1692  0.3067
  125OSM    H6S13325   3.248   4.232   6.987 -0.6151 -1.2682  1.8590
  125OSM    H6T13326   3.090   4.169   6.958  2.2760 -1.6072 -0.0235
  125OSM    C7S13327   3.093   4.392   6.980  0.1170 -0.3323  1.0508
  125OSM    H7S13328   2.988   4.404   6.945  0.3686 -0.3393  0.2852
  125OSM    H7T13329   3.147   4.479   6.937 -0.9833  0.2334  0.7849
  125OSM    C8S13330   3.070   4.395   7.130  0.0036 -0.2195  0.2034
  125OSM    H8S13331   3.021   4.299   7.156 -1.2077  0.5493  0.7769
  125OSM    H8T13332   3.001   4.476   7.162  1.0328  0.6626  0.2220
  125OSM    C9S13333   3.199   4.409   7.216 -0.7435 -0.4266 -0.5539
  125OSM    H9S13334   3.249   4.501   7.181  0.3529 -0.8820 -0.2109
  125OSM    H9T13335   3.274   4.331   7.189  0.9997  0.7141  0.9124
  125OSM   C10S13336   3.173   4.385   7.363 -0.1287 -0.4262 -0.0743
  125OSM   H10S13337   3.138   4.281   7.376  0.0343 -0.2766  1.6998
  125OSM   H10T13338   3.091   4.454   7.394 -1.5682 -0.3627 -3.7997
  125OSM   C11S13339   3.298   4.410   7.450  0.3986 -0.1374 -0.4004
  125OSM   H11S13340   3.328   4.517   7.440  0.0134  0.0523  0.4278
  125OSM   H11T13341   3.376   4.343   7.410 -1.6498 -1.3461 -2.5112
  125OSM   C12S13342   3.273   4.390   7.598  0.1502  1.1707  0.5066
  125OSM   H12S13343   3.230   4.291   7.625 -2.7585  1.5478 -2.3986
  125OSM   H12T13344   3.195   4.464   7.623 -0.6789  0.9147 -1.2490
  125OSM   C13S13345   3.395   4.403   7.683 -0.7238  0.4386 -0.3435
  125OSM   H13S13346   3.425   4.511   7.683  0.9407  0.0008  0.1153
  125OSM   H13T13347   3.481   4.345   7.642 -0.9265  0.6651 -1.0957
  125OSM   C14S13348   3.358   4.372   7.834  0.0102 -0.4814 -0.3827
  125OSM   H14S13349   3.297   4.279   7.828 -0.3013 -0.2154 -1.5868
  125OSM   H14T13350   3.286   4.450   7.864  0.2374  0.1712 -1.4910
  125OSM   C15S13351   3.480   4.367   7.932 -0.0608  0.0101 -0.2981
  125OSM   H15S13352   3.520   4.470   7.936 -2.6618  1.1608 -2.1646
  125OSM   H15T13353   3.553   4.300   7.882 -0.6618  0.0552 -1.2493
  125OSM   C16S13354   3.438   4.325   8.070  0.1092 -0.3268  0.3569
  125OSM   H16S13355   3.385   4.228   8.077 -0.2908 -0.1170  0.2149
  125OSM   H16T13356   3.378   4.403   8.121  1.3057  1.5022 -0.9307
  125OSM   C17S13357   3.553   4.294   8.161 -0.5187 -0.6033  0.6654
  125OSM   H17S13358   3.605   4.391   8.178 -2.2531  0.4604 -0.0124
  125OSM   H17T13359   3.622   4.225   8.108 -0.8984 -0.6585  0.2387
  125OSM   C18S13360   3.502   4.246   8.300 -0.5924  0.1986  0.1186
  125OSM   H18S13361   3.574   4.194   8.367 -2.7773 -1.0550  1.5487
  125OSM   H18T13362   3.442   4.153   8.284  0.8607 -0.4093 -2.0734
  125OSM   H18U13363   3.443   4.318   8.361  0.1952 -0.2203  1.3906
  125OSM    C1F13364   3.248   4.633   6.577 -0.0338 -0.0725  0.4031
  125OSM     OF13365   3.148   4.644   6.509 -0.2586 -0.3801 -0.6015
  125OSM    C2F13366   3.301   4.754   6.650 -0.3835  0.2162 -0.2348
  125OSM    H2F13367   3.372   4.810   6.585 -3.4796  0.7692 -3.2731
  125OSM    H2G13368   3.342   4.712   6.744  0.0982  2.7037  0.6962
  125OSM    C3F13369   3.191   4.853   6.673 -0.4826  0.7115 -0.3136
  125OSM    H3F13370   3.100   4.801   6.708  0.0443 -0.7296 -1.0236
  125OSM    H3G13371   3.172   4.904   6.576  1.8093 -0.8125 -1.6145
  125OSM    C4F13372   3.231   4.967   6.770  0.7738  0.1443 -0.5246
  125OSM    H4F13373   3.161   5.053   6.769  0.0197 -0.4909 -1.6596
  125OSM    H4G13374   3.333   5.000   6.740  0.8775 -1.3676 -1.8654
  125OSM    C5F13375   3.241   4.920   6.917  0.7236 -0.5257 -0.3085
  125OSM    H5F13376   3.294   4.823   6.930 -1.1065 -1.3746  0.9344
  125OSM    H5G13377   3.143   4.907   6.968  0.6137  0.1569 -0.3441
  125OSM    C6F13378   3.316   5.024   7.003  0.5745 -0.0561  0.0430
  125OSM    H6F13379   3.245   5.095   7.051  0.0653 -0.2970 -0.3434
  125OSM    H6G13380   3.392   5.068   6.934  0.8235 -2.3073 -1.1756
  125OSM    C7F13381   3.398   4.962   7.120 -0.0834 -0.6077  0.4321
  125OSM    H7F13382   3.475   5.036   7.153  0.8802 -1.3260 -0.1604
  125OSM    H7G13383   3.455   4.871   7.090 -0.6392 -0.5201 -0.9068
  125OSM    C8F13384   3.308   4.921   7.247 -0.1954  0.0266 -0.2584
  125OSM    H8F13385   3.236   4.848   7.203  1.0417 -1.9001  0.8088
  125OSM    H8G13386   3.253   5.010   7.283 -1.0831  0.3372 -2.3017
  125OSM    C9F13387   3.383   4.846   7.356  0.2104  0.0309 -0.4646
  125OSM    H9F13388   3.484   4.809   7.333  0.6964  0.7053  0.5114
  125OSM   C10F13389   3.340   4.821   7.479 -0.1903  0.4527 -0.2654
  125OSM   H10F13390   3.410   4.780   7.553  1.0143  0.7808 -1.2002
  125OSM   C11F13391   3.207   4.868   7.539 -0.0099 -0.0495 -1.1288
  125OSM   H11F13392   3.152   4.774   7.563  0.6896 -0.3670 -0.7610
  125OSM   H11G13393   3.136   4.914   7.467  1.6855  2.8733 -0.9958
  125OSM   C12F13394   3.228   4.953   7.667  0.3673 -0.1036 -0.0030
  125OSM   H12F13395   3.131   4.994   7.704  0.9423  0.2166  1.1528
  125OSM   H12G13396   3.282   5.043   7.631  0.1100 -0.4224 -1.2392
  125OSM   C13F13397   3.291   4.888   7.788 -0.1427  0.1198  0.2207
  125OSM   H13F13398   3.301   4.972   7.859  1.1751  0.3984 -0.2769
  125OSM   H13G13399   3.394   4.857   7.759  0.1665  1.0571  0.2984
  125OSM   C14F13400   3.204   4.771   7.836  0.1836 -0.3749  0.8456
  125OSM   H14F13401   3.214   4.693   7.757  0.5706  1.1702 -0.6469
  125OSM   H14G13402   3.096   4.795   7.830 -0.4590 -3.0636  0.7905
  125OSM   C15F13403   3.245   4.703   7.966  0.5084  0.2263  0.3522
  125OSM   H15F13404   3.347   4.663   7.945  1.1092  1.7348  0.3173
  125OSM   H15G13405   3.184   4.617   8.001 -1.8920  1.8242  0.1677
  125OSM   C16F13406   3.273   4.794   8.085 -0.4738 -0.2484 -0.3558
  125OSM   H16F13407   3.180   4.849   8.111 -1.5287 -1.8036 -0.7738
  125OSM   H16G13408   3.351   4.869   8.059 -0.9910  0.9512  1.4236
  125OSM   C17F13409   3.296   4.711   8.222  0.2161 -0.2579 -0.0001
  125OSM   H17F13410   3.226   4.630   8.250  0.8268 -0.8684 -0.2339
  125OSM   H17G13411   3.270   4.781   8.304 -0.9297  1.5614 -1.8593
  125OSM   C18F13412   3.436   4.656   8.240  0.0067  0.0450 -0.3651
  125OSM   H18F13413   3.481   4.630   8.142 -0.0106 -1.1203 -0.0702
  125OSM   H18G13414   3.437   4.559   8.294 -1.7095  2.4913  4.3646
  125OSM   H18H13415   3.498   4.727   8.299  3.1072  0.3687 -3.8250
  126OSM      N13416   0.393   3.902   6.290  0.2667  0.1233 -0.1942
  126OSM    C1513417   0.367   3.773   6.358  0.0353  0.2969  0.0672
  126OSM   H15A13418   0.265   3.739   6.349  0.0945  0.5966 -1.9906
  126OSM   H15B13419   0.388   3.781   6.464  0.9215 -0.1620 -0.0729
  126OSM   H15C13420   0.434   3.696   6.325  0.5254  0.5090  0.5599
  126OSM    C1413421   0.405   3.883   6.145 -0.5802  0.6848  0.2990
  126OSM   H14A13422   0.444   3.967   6.089 -0.9469 -0.9760 -2.5229
  126OSM   H14B13423   0.303   3.873   6.110 -0.4724  0.7377 -0.0262
  126OSM   H14C13424   0.467   3.797   6.126 -1.0087 -0.3567  3.3740
  126OSM    C1313425   0.279   4.000   6.331  0.3295  0.4455  0.2443
  126OSM   H13A13426   0.187   3.968   6.285  0.7657 -0.5421  0.0594
  126OSM   H13B13427   0.289   4.103   6.297  2.3215 -0.6068 -2.5856
  126OSM   H13C13428   0.282   3.996   6.439 -2.7925  0.1883  0.3475
  126OSM    C1213429   0.515   3.953   6.351 -0.6290  0.0727  0.1141
  126OSM   H12A13430   0.583   3.868   6.348 -0.1623  0.4485 -0.0084
  126OSM   H12B13431   0.508   3.970   6.457 -0.1061 -1.0736  0.3440
  126OSM    C1113432   0.575   4.083   6.292 -0.0002  0.2806  0.5323
  126OSM   H11A13433   0.569   4.079   6.181 -0.8288  2.6648  0.4655
  126OSM   H11B13434   0.682   4.102   6.313 -0.2460  2.3082 -0.0168
  126OSM      P13435   0.477   4.267   6.457  0.2413 -0.1620 -0.3495
  126OSM    O1313436   0.616   4.315   6.487  0.4087  0.0128  0.7228
  126OSM    O1413437   0.368   4.363   6.454 -0.1779 -0.6551 -0.8216
  126OSM    O1113438   0.446   4.151   6.563  0.8036 -0.1937 -0.1718
  126OSM    O1213439   0.496   4.196   6.316 -0.0252 -0.0291 -0.6921
  126OSM    C1S13440   0.449   4.176   6.704 -0.1153 -0.0770 -0.0749
  126OSM    H1S13441   0.380   4.259   6.733  0.5355  0.5679 -0.3642
  126OSM    H1T13442   0.550   4.217   6.725 -0.3680  0.3387  0.3282
  126OSM     NF13443   0.387   4.082   6.927 -0.1629 -0.6641  0.0220
  126OSM    HNF13444   0.457   4.083   6.998 -1.1867 -1.4312  1.0678
  126OSM    C2S13445   0.428   4.054   6.788  0.1100  0.0220  0.0636
  126OSM    H2S13446   0.357   3.977   6.751 -1.4839  1.4030  0.1966
  126OSM    C3S13447   0.569   3.983   6.785  0.2735  0.0454 -1.0312
  126OSM    H3S13448   0.644   4.046   6.837  0.7385  0.3777 -2.0775
  126OSM     O313449   0.619   3.961   6.652 -0.0448 -0.2126 -0.0799
  126OSM    HO313450   0.580   4.030   6.598  2.1632  2.2431  1.3507
  126OSM    C4S13451   0.564   3.843   6.845  0.1380 -0.6154 -0.0542
  126OSM    H4S13452   0.487   3.772   6.809 -1.4736  1.5547 -0.9850
  126OSM    C5S13453   0.632   3.794   6.950 -0.0877 -0.1476  0.1195
  126OSM    H5S13454   0.692   3.866   7.006  2.8579 -1.7642 -0.8612
  126OSM    C6S13455   0.621   3.660   7.009 -0.3340 -0.0687 -0.6840
  126OSM    H6S13456   0.681   3.590   6.947 -1.1300 -1.8482  0.4989
  126OSM    H6T13457   0.514   3.629   7.000 -0.5799  1.0102 -1.5239
  126OSM    C7S13458   0.654   3.660   7.159 -0.3193  0.4166 -0.2903
  126OSM    H7S13459   0.621   3.752   7.211 -1.0378 -0.7413  1.3595
  126OSM    H7T13460   0.764   3.667   7.165 -0.1129 -2.6683  0.3891
  126OSM    C8S13461   0.610   3.540   7.245  0.0943 -0.1989 -0.3113
  126OSM    H8S13462   0.647   3.445   7.199  0.3179 -0.1213 -0.2895
  126OSM    H8T13463   0.499   3.542   7.254 -0.2829 -3.7832 -2.6873
  126OSM    C9S13464   0.667   3.555   7.389  0.3552 -0.4598 -0.1567
  126OSM    H9S13465   0.615   3.638   7.441 -2.0571 -0.8659 -1.8059
  126OSM    H9T13466   0.776   3.572   7.375  0.2956  1.0649  1.2034
  126OSM   C10S13467   0.662   3.430   7.474  0.6678 -0.2293  0.5646
  126OSM   H10S13468   0.717   3.343   7.433  1.5491  0.7434 -0.3617
  126OSM   H10T13469   0.559   3.397   7.500  0.2120 -0.1253 -1.0143
  126OSM   C11S13470   0.733   3.442   7.611  0.3810 -0.5434 -0.4676
  126OSM   H11S13471   0.799   3.531   7.599 -0.1457 -0.1306 -0.3014
  126OSM   H11T13472   0.789   3.352   7.643  0.6302  0.2348  1.3533
  126OSM   C12S13473   0.635   3.485   7.730 -0.0546 -0.2108 -0.3294
  126OSM   H12S13474   0.567   3.397   7.733  0.0136 -0.2616 -0.2551
  126OSM   H12T13475   0.594   3.583   7.698 -1.2415 -1.4618 -2.7873
  126OSM   C13S13476   0.702   3.500   7.871  0.1517  0.2026 -0.7387
  126OSM   H13S13477   0.800   3.550   7.861  0.0746  0.7239  0.9750
  126OSM   H13T13478   0.732   3.399   7.906 -2.4337 -0.2375  0.3727
  126OSM   C14S13479   0.613   3.567   7.982 -0.3994  0.2767  0.0796
  126OSM   H14S13480   0.544   3.647   7.947 -0.0832 -0.6812 -2.9194
  126OSM   H14T13481   0.679   3.619   8.055  0.7026 -2.2593  0.9607
  126OSM   C15S13482   0.531   3.471   8.082 -0.1865 -0.1426  0.8107
  126OSM   H15S13483   0.598   3.395   8.128 -0.1123 -1.4728 -1.4323
  126OSM   H15T13484   0.468   3.420   8.006  0.1823 -0.1008  0.4802
  126OSM   C16S13485   0.458   3.555   8.190 -0.0459  0.8960  0.3916
  126OSM   H16S13486   0.421   3.650   8.147  1.3518  1.7315  1.0042
  126OSM   H16T13487   0.532   3.582   8.269  0.7929  0.3956 -0.2171
  126OSM   C17S13488   0.331   3.480   8.248 -0.1116 -0.3602 -0.1893
  126OSM   H17S13489   0.365   3.382   8.288 -0.8853 -0.5127  0.1107
  126OSM   H17T13490   0.268   3.460   8.158  2.8183 -1.9934 -1.9725
  126OSM   C18S13491   0.265   3.547   8.363  0.0180 -0.0365  0.0865
  126OSM   H18S13492   0.309   3.518   8.460 -2.2399  1.6919  1.6806
  126OSM   H18T13493   0.159   3.514   8.372 -0.4736  0.6859 -2.4048
  126OSM   H18U13494   0.271   3.658   8.363 -2.1055  0.1375  3.2947
  126OSM    C1F13495   0.274   4.144   6.953 -0.1987  0.1916  0.5249
  126OSM     OF13496   0.187   4.154   6.866 -0.9247 -0.4529  0.4089
  126OSM    C2F13497   0.254   4.199   7.096 -0.2507  0.3562 -0.2417
  126OSM    H2F13498   0.322   4.287   7.093  1.6005 -1.0905 -1.8555
  126OSM    H2G13499   0.287   4.123   7.169 -0.6143 -0.2084 -0.6615
  126OSM    C3F13500   0.107   4.244   7.132  0.1720  0.6268 -0.0837
  126OSM    H3F13501   0.040   4.160   7.102  1.9816 -0.9780  0.3231
  126OSM    H3G13502   0.071   4.323   7.062  0.1795  0.1825 -0.5891
  126OSM    C4F13503   0.082   4.284   7.273  0.0677  0.1401 -1.0427
  126OSM    H4F13504  -0.026   4.271   7.294  0.0777 -0.7074 -1.4855
  126OSM    H4G13505   0.112   4.388   7.298  0.2147 -0.5013  1.6230
  126OSM    C5F13506   0.157   4.202   7.386  0.3908 -0.3737 -0.4359
  126OSM    H5F13507   0.265   4.227   7.392  0.2904 -0.0759  0.1412
  126OSM    H5G13508   0.155   4.098   7.346  0.6880  0.1900 -1.9301
  126OSM    C6F13509   0.092   4.194   7.526 -1.1564 -0.0795 -0.0344
  126OSM    H6F13510   0.133   4.114   7.591  0.3066 -0.4266 -1.3497
  126OSM    H6G13511  -0.017   4.172   7.522 -0.9441 -1.2859  0.3770
  126OSM    C7F13512   0.122   4.319   7.609  0.4478 -0.1969 -0.0143
  126OSM    H7F13513   0.026   4.374   7.619 -0.5878 -1.9666  0.1113
  126OSM    H7G13514   0.181   4.389   7.546  0.9183  0.2019  0.8665
  126OSM    C8F13515   0.187   4.286   7.746  0.8811 -0.5919  0.0593
  126OSM    H8F13516   0.228   4.385   7.775  0.8307 -0.4356 -0.3923
  126OSM    H8G13517   0.274   4.217   7.736  0.5848 -1.1307  1.1257
  126OSM    C9F13518   0.085   4.229   7.845 -0.2949 -0.1289 -0.5674
  126OSM    H9F13519   0.018   4.156   7.798 -1.6149  1.3948 -1.0960
  126OSM   C10F13520   0.068   4.275   7.969 -0.1389  1.2005 -0.4239
  126OSM   H10F13521   0.001   4.220   8.037  0.1751  2.0692  0.5922
  126OSM   C11F13522   0.147   4.383   8.042  0.2952 -0.1098  0.5623
  126OSM   H11F13523   0.081   4.471   8.057  1.0765  0.0663  3.1257
  126OSM   H11G13524   0.225   4.433   7.980  0.7380 -0.4259  0.8576
  126OSM   C12F13525   0.209   4.330   8.172  0.2911 -0.1756  0.1024
  126OSM   H12F13526   0.130   4.295   8.241  0.5086 -0.1705  0.3534
  126OSM   H12G13527   0.256   4.410   8.233 -1.0330  1.1152 -0.5310
  126OSM   C13F13528   0.318   4.224   8.146 -0.2084 -0.2245 -0.3750
  126OSM   H13F13529   0.414   4.260   8.103  0.6387 -2.7632 -0.7259
  126OSM   H13G13530   0.272   4.144   8.083 -1.1104 -0.0509  0.0523
  126OSM   C14F13531   0.349   4.157   8.286 -0.3614 -0.2502  0.0044
  126OSM   H14F13532   0.254   4.151   8.344 -0.4930 -2.7823 -0.4210
  126OSM   H14G13533   0.405   4.229   8.348  3.4689 -1.3746 -1.9900
  126OSM   C15F13534   0.437   4.030   8.277 -0.2493 -0.1801 -0.7383
  126OSM   H15F13535   0.514   4.055   8.200  0.0605  0.0395 -0.3548
  126OSM   H15G13536   0.378   3.942   8.243  2.3801 -1.4084 -2.3696
  126OSM   C16F13537   0.512   3.988   8.405 -0.1701  0.3574  0.2414
  126OSM   H16F13538   0.587   4.068   8.424  2.3152 -1.4499 -1.6925
  126OSM   H16G13539   0.574   3.898   8.385 -0.8644  0.1387 -1.0365
  126OSM   C17F13540   0.425   3.971   8.526  0.4227  0.0071  0.0701
  126OSM   H17F13541   0.349   3.890   8.530  0.3636  0.0244 -0.6245
  126OSM   H17G13542   0.375   4.068   8.548  1.7223  0.7112 -0.0238
  126OSM   C18F13543   0.515   3.939   8.644 -0.0037  0.5057 -0.3653
  126OSM   H18F13544   0.537   3.832   8.659  1.5404  1.2517  3.2753
  126OSM   H18G13545   0.474   3.974   8.741 -0.3927 -0.4337 -0.1929
  126OSM   H18H13546   0.609   3.996   8.626 -0.1524  1.4537  1.6512
  127OSM      N13547   2.571   2.408   5.990 -0.4103 -0.6196  0.1900
  127OSM    C1513548   2.649   2.343   5.881 -0.5252  0.6370 -0.1372
  127OSM   H15A13549   2.756   2.335   5.898 -0.6800  0.0835  0.5908
  127OSM   H15B13550   2.639   2.406   5.794  2.5255  0.4204 -0.7305
  127OSM   H15C13551   2.609   2.245   5.859 -2.2980  1.4345 -0.4635
  127OSM    C1413552   2.627   2.550   6.019  0.2832  0.2311  0.2202
  127OSM   H14A13553   2.572   2.600   6.097 -1.4252 -1.6785  0.2793
  127OSM   H14B13554   2.619   2.615   5.934 -0.8417 -2.2842 -1.6646
  127OSM   H14C13555   2.731   2.540   6.047  1.3495 -1.3578 -3.8685
  127OSM    C1313556   2.437   2.429   5.935 -0.5207  0.2406  0.1804
  127OSM   H13A13557   2.403   2.342   5.881  0.4709 -0.7621  1.1498
  127OSM   H13B13558   2.443   2.514   5.868 -1.8877  1.3088  1.3759
  127OSM   H13C13559   2.369   2.462   6.012  0.9799 -0.7605  1.9757
  127OSM    C1213560   2.565   2.325   6.121 -0.6059 -0.0563 -0.0624
  127OSM   H12A13561   2.662   2.318   6.167  0.4006  0.9870 -1.9755
  127OSM   H12B13562   2.548   2.221   6.095 -0.7554  0.1770 -0.9340
  127OSM    C1113563   2.464   2.368   6.230 -0.1217 -0.1765 -0.9259
  127OSM   H11A13564   2.492   2.475   6.242  0.5994 -0.6660  2.4049
  127OSM   H11B13565   2.486   2.316   6.326 -2.0327 -0.2138 -0.4913
  127OSM      P13566   2.254   2.214   6.215  0.4172  0.0203  0.0241
  127OSM    O1313567   2.116   2.217   6.164  0.1571  0.1811 -0.6833
  127OSM    O1413568   2.336   2.104   6.161  0.3679 -1.1798 -0.2957
  127OSM    O1113569   2.247   2.203   6.371  0.0329 -0.1227  0.2037
  127OSM    O1213570   2.325   2.356   6.192  0.1597 -0.0598 -0.1134
  127OSM    C1S13571   2.236   2.314   6.463  1.3719 -0.1869  0.2341
  127OSM    H1S13572   2.142   2.373   6.457  0.4166 -1.5462  1.5376
  127OSM    H1T13573   2.326   2.376   6.443  1.4964 -1.0257 -1.9696
  127OSM     NF13574   2.240   2.380   6.701  0.4922  0.3892  0.2537
  127OSM    HNF13575   2.330   2.392   6.742  0.5228  0.4984  0.1523
  127OSM    C2S13576   2.238   2.264   6.610 -0.1682 -0.2112 -0.0725
  127OSM    H2S13577   2.139   2.217   6.627 -0.4954 -0.4730 -2.5613
  127OSM    C3S13578   2.348   2.159   6.637 -0.0376 -0.6426  0.2819
  127OSM    H3S13579   2.444   2.207   6.608 -0.6125  0.5586  0.3526
  127OSM     O313580   2.324   2.042   6.558  0.0649  0.3718 -0.0895
  127OSM    HO313581   2.274   2.082   6.487  1.4939  2.3423 -0.0222
  127OSM    C4S13582   2.356   2.131   6.783 -0.8722  0.2489  0.2582
  127OSM    H4S13583   2.412   2.208   6.839  0.3043 -0.8371  0.6055
  127OSM    C5S13584   2.312   2.026   6.856  0.4657 -0.5952 -0.0171
  127OSM    H5S13585   2.246   1.955   6.804 -1.4339  1.0591  0.0734
  127OSM    C6S13586   2.326   2.003   7.001 -0.7159  0.0380  0.6625
  127OSM    H6S13587   2.371   1.901   7.009  1.4575  0.8942 -0.1530
  127OSM    H6T13588   2.224   2.000   7.044 -0.3711 -2.5571  1.4090
  127OSM    C7S13589   2.422   2.102   7.078 -0.3552  0.0231  0.0889
  127OSM    H7S13590   2.520   2.135   7.038 -0.0504 -0.2607  0.5968
  127OSM    H7T13591   2.443   2.055   7.176  2.3816 -1.5262 -1.1976
  127OSM    C8S13592   2.343   2.238   7.112  0.1773  0.3459 -0.6587
  127OSM    H8S13593   2.234   2.215   7.115  0.2908 -0.2093 -0.7766
  127OSM    H8T13594   2.340   2.310   7.028  2.4360  0.0972 -0.9758
  127OSM    C9S13595   2.378   2.295   7.250 -0.7819  0.5228  0.4932
  127OSM    H9S13596   2.482   2.334   7.253 -1.1947  1.7966 -0.8101
  127OSM    H9T13597   2.363   2.220   7.330 -1.2638  0.4940  0.3760
  127OSM   C10S13598   2.277   2.403   7.281 -0.2793  0.4907  0.2064
  127OSM   H10S13599   2.176   2.360   7.264  0.8714 -1.7626 -1.1858
  127OSM   H10T13600   2.295   2.488   7.212 -0.9064 -0.4976 -1.1876
  127OSM   C11S13601   2.301   2.467   7.422  0.3244 -0.5471  0.7530
  127OSM   H11S13602   2.354   2.564   7.412  2.0656 -1.6677 -1.4311
  127OSM   H11T13603   2.360   2.389   7.475  0.6678 -1.0599 -0.3674
  127OSM   C12S13604   2.171   2.484   7.509  0.0291 -0.8586  0.2569
  127OSM   H12S13605   2.114   2.391   7.487 -1.7295 -0.1623  1.7294
  127OSM   H12T13606   2.105   2.566   7.474  1.5602  0.2146 -0.1753
  127OSM   C13S13607   2.187   2.493   7.666  0.6600  0.0881  0.3324
  127OSM   H13S13608   2.243   2.578   7.710 -0.1980  1.7803 -1.7318
  127OSM   H13T13609   2.240   2.403   7.702 -2.2278 -1.8554 -0.1434
  127OSM   C14S13610   2.061   2.503   7.743  0.7008  0.4121 -0.2222
  127OSM   H14S13611   1.998   2.415   7.716  0.8187 -0.0066  0.8272
  127OSM   H14T13612   2.014   2.603   7.731  0.6117  0.6339  1.7320
  127OSM   C15S13613   2.106   2.500   7.891 -0.1142 -0.9775  0.0743
  127OSM   H15S13614   2.182   2.577   7.916  0.4493 -1.5809  0.2350
  127OSM   H15T13615   2.165   2.410   7.919  2.5944 -0.4060 -3.4216
  127OSM   C16S13616   1.989   2.524   7.997  0.0110  0.6077  0.1297
  127OSM   H16S13617   1.917   2.602   7.964  1.2811  1.3249 -0.9878
  127OSM   H16T13618   2.043   2.563   8.087 -0.2509 -0.3143  0.6961
  127OSM   C17S13619   1.912   2.405   8.023  0.1420 -0.1312 -0.1144
  127OSM   H17S13620   1.901   2.346   7.930  2.5164 -0.4551 -0.2279
  127OSM   H17T13621   1.811   2.418   8.067 -0.3027  2.8966 -1.9084
  127OSM   C18S13622   1.983   2.314   8.128  0.3857  0.2965 -0.2768
  127OSM   H18S13623   1.910   2.249   8.180  0.1269  0.7415 -0.0818
  127OSM   H18T13624   2.021   2.385   8.205 -0.9812  0.2932  0.4094
  127OSM   H18U13625   2.067   2.254   8.086 -0.4413  0.9182 -2.8958
  127OSM    C1F13626   2.137   2.459   6.733  0.0774  0.3955 -0.3230
  127OSM     OF13627   2.027   2.447   6.672  0.2321 -0.1678 -0.1095
  127OSM    C2F13628   2.147   2.552   6.855  0.2470 -1.0951 -0.0141
  127OSM    H2F13629   2.223   2.630   6.831 -1.0903  0.3080  0.2207
  127OSM    H2G13630   2.178   2.492   6.943  2.6315 -1.5457 -1.1153
  127OSM    C3F13631   2.014   2.622   6.887 -0.1051 -0.8219 -0.2079
  127OSM    H3F13632   1.945   2.544   6.927 -1.3485  1.2652  1.7975
  127OSM    H3G13633   1.966   2.662   6.796 -1.8738 -0.7747  0.7309
  127OSM    C4F13634   2.026   2.729   6.994 -0.3441  0.4912  0.2226
  127OSM    H4F13635   1.927   2.745   7.040 -1.2110 -0.5188 -1.2406
  127OSM    H4G13636   2.035   2.826   6.941 -0.4346 -0.1035 -0.9113
  127OSM    C5F13637   2.128   2.717   7.114 -0.5078  0.0577 -0.0391
  127OSM    H5F13638   2.227   2.740   7.068 -0.4970  1.6082  0.7372
  127OSM    H5G13639   2.117   2.612   7.150 -0.1809  0.5921  1.6834
  127OSM    C6F13640   2.101   2.814   7.233 -0.1394  0.8291  0.0382
  127OSM    H6F13641   2.188   2.817   7.302 -0.3381 -1.4010  0.4232
  127OSM    H6G13642   2.023   2.765   7.295  1.2704 -1.6566 -0.0767
  127OSM    C7F13643   2.064   2.957   7.189 -0.1869  0.2788 -0.4322
  127OSM    H7F13644   1.974   2.958   7.124  0.2458 -0.7496 -1.0768
  127OSM    H7G13645   2.143   3.008   7.129 -0.2790  2.1856  1.0258
  127OSM    C8F13646   2.023   3.045   7.309  0.5018  0.1515  0.0795
  127OSM    H8F13647   1.957   2.988   7.378 -2.9349  2.0936 -1.4207
  127OSM    H8G13648   1.963   3.129   7.267  3.1010  1.7824 -0.4714
  127OSM    C9F13649   2.134   3.095   7.394 -0.5802  0.0013 -0.0706
  127OSM    H9F13650   2.213   3.147   7.337 -0.6186 -0.8557 -0.9102
  127OSM   C10F13651   2.145   3.079   7.523 -0.2290  0.3846 -0.0049
  127OSM   H10F13652   2.227   3.120   7.584  3.2183 -2.5238 -2.5183
  127OSM   C11F13653   2.042   3.005   7.607 -0.4312 -0.2713  0.5609
  127OSM   H11F13654   2.015   2.905   7.566 -2.5969  0.3424  0.4632
  127OSM   H11G13655   1.952   3.069   7.600  0.5928  1.1256 -0.0946
  127OSM   C12F13656   2.090   2.994   7.752  0.0563  0.6830  0.2713
  127OSM   H12F13657   2.139   3.087   7.789  1.9159  0.8161 -2.3938
  127OSM   H12G13658   2.171   2.918   7.757 -0.3419  0.1574 -1.2764
  127OSM   C13F13659   1.980   2.937   7.844 -0.0118 -0.4405  0.3203
  127OSM   H13F13660   1.955   2.834   7.813  1.2912 -0.7719  0.3450
  127OSM   H13G13661   1.886   2.997   7.846  0.5622  0.4569  1.1234
  127OSM   C14F13662   2.037   2.924   7.984  0.3064 -0.0806  0.3311
  127OSM   H14F13663   2.124   2.857   7.969 -1.0022 -1.4173 -1.4593
  127OSM   H14G13664   1.956   2.864   8.030 -0.7927  0.5861 -0.6878
  127OSM   C15F13665   2.070   3.063   8.058  0.4492 -0.1580  0.5714
  127OSM   H15F13666   1.996   3.141   8.032 -0.1178 -1.2057 -0.9977
  127OSM   H15G13667   2.167   3.102   8.019  0.2605  0.8965  1.1546
  127OSM   C16F13668   2.076   3.052   8.217 -0.7129  0.3354 -0.5090
  127OSM   H16F13669   2.114   2.952   8.245 -0.1149 -0.1366 -2.8969
  127OSM   H16G13670   1.973   3.051   8.260 -0.3650 -1.5934  0.3565
  127OSM   C17F13671   2.153   3.174   8.270  0.7713  0.3297 -0.5365
  127OSM   H17F13672   2.110   3.267   8.228 -3.2051 -0.8398  0.7618
  127OSM   H17G13673   2.261   3.168   8.244  0.4266 -0.9464 -1.7640
  127OSM   C18F13674   2.133   3.191   8.423  0.1495 -0.4809 -0.1384
  127OSM   H18F13675   2.024   3.189   8.445  0.4232 -0.9605  1.2214
  127OSM   H18G13676   2.170   3.289   8.461 -1.1187  0.3404 -0.9898
  127OSM   H18H13677   2.179   3.107   8.480  1.1762  0.1555 -0.0136
  128OSM      N13678   4.353   4.984   6.127 -0.5423 -0.4518  0.5616
  128OSM    C1513679   4.413   4.897   6.023 -0.1434 -0.1121 -0.1835
  128OSM   H15A13680   4.341   4.833   5.976 -1.4300  2.1519 -1.3710
  128OSM   H15B13681   4.489   4.828   6.059 -0.3395 -1.0398 -1.5041
  128OSM   H15C13682   4.466   4.960   5.953 -2.1549  0.9217 -0.7977
  128OSM    C1413683   4.232   5.045   6.059 -0.0221 -0.7019  0.0607
  128OSM   H14A13684   4.267   5.113   5.983 -0.7286 -0.8503 -0.3975
  128OSM   H14B13685   4.194   5.112   6.134 -1.9448 -1.1322 -0.5173
  128OSM   H14C13686   4.151   4.981   6.028 -2.2876  1.5197  1.2693
  128OSM    C1313687   4.304   4.900   6.238 -0.5047 -0.0387  0.2439
  128OSM   H13A13688   4.258   4.963   6.313  1.8604  1.7556  0.2514
  128OSM   H13B13689   4.382   4.835   6.277 -1.3512 -2.1396 -1.4363
  128OSM   H13C13690   4.223   4.836   6.207 -1.7697  0.5039  2.3377
  128OSM    C1213691   4.449   5.095   6.179  0.4587 -0.4545 -0.4023
  128OSM   H12A13692   4.471   5.164   6.100  1.5715  0.5139  0.7193
  128OSM   H12B13693   4.544   5.049   6.203  0.7459 -0.1188 -0.9128
  128OSM    C1113694   4.416   5.176   6.306  0.2696 -0.2150  0.0409
  128OSM   H11A13695   4.505   5.231   6.343 -0.7246  0.2515  1.7960
  128OSM   H11B13696   4.386   5.107   6.389  0.8987  1.5992  1.8244
  128OSM      P13697   4.324   5.402   6.219  0.6573  0.0920 -0.2745
  128OSM    O1313698   4.434   5.406   6.119 -0.1660  0.2197  0.3736
  128OSM    O1413699   4.190   5.455   6.175  0.0461  0.1020 -0.3316
  128OSM    O1113700   4.366   5.488   6.339 -0.9191  0.2905  0.2993
  128OSM    O1213701   4.298   5.267   6.290 -0.3447 -0.0682  0.5497
  128OSM    C1S13702   4.332   5.464   6.474  0.1739 -0.1365  0.0401
  128OSM    H1S13703   4.388   5.378   6.515  2.5454  0.8478 -1.0313
  128OSM    H1T13704   4.224   5.438   6.482  0.3845 -0.6130  1.4567
  128OSM     NF13705   4.345   5.528   6.714  0.0308  0.0264 -0.1130
  128OSM    HNF13706   4.264   5.558   6.764 -0.0384 -1.2536  0.5709
  128OSM    C2S13707   4.359   5.579   6.574 -0.2846 -0.2305 -0.0140
  128OSM    H2S13708   4.461   5.622   6.566 -0.1662 -0.7929 -1.7075
  128OSM    C3S13709   4.270   5.703   6.537 -0.0450 -0.3372  0.4446
  128OSM    H3S13710   4.167   5.663   6.528  0.1023 -0.1083 -2.8458
  128OSM     O313711   4.298   5.750   6.402  0.5092 -0.6465 -0.1221
  128OSM    HO313712   4.349   5.686   6.353 -0.1477 -1.8112  0.6974
  128OSM    C4S13713   4.281   5.820   6.621 -1.3929  0.4717  0.0745
  128OSM    H4S13714   4.181   5.855   6.648 -1.6448 -0.7351  0.7344
  128OSM    C5S13715   4.386   5.900   6.657  0.1987  0.3033  0.7731
  128OSM    H5S13716   4.486   5.877   6.618 -0.3619 -1.1632  0.1959
  128OSM    C6S13717   4.378   6.019   6.750  0.1619 -0.2633  0.3358
  128OSM    H6S13718   4.401   6.109   6.688 -1.0769  0.5852  1.0852
  128OSM    H6T13719   4.449   6.001   6.834 -0.3007 -0.5395  0.6696
  128OSM    C7S13720   4.234   6.039   6.814 -0.2386  0.5012 -0.0355
  128OSM    H7S13721   4.213   5.963   6.891  0.0628  0.4826  0.0270
  128OSM    H7T13722   4.149   6.039   6.742  1.0267 -0.0049 -1.5634
  128OSM    C8S13723   4.217   6.171   6.888  0.4796 -0.0193 -1.1565
  128OSM    H8S13724   4.114   6.186   6.926  0.1536 -0.4436 -1.8494
  128OSM    H8T13725   4.222   6.248   6.809  2.1397  1.6105  0.4853
  128OSM    C9S13726   4.314   6.191   7.010  0.0150 -0.1443  1.2888
  128OSM    H9S13727   4.289   6.298   7.024 -2.1779 -0.5857  0.9100
  128OSM    H9T13728   4.418   6.189   6.972 -0.0062  0.0567  1.2204
  128OSM   C10S13729   4.282   6.105   7.139  0.6395  0.2665  0.0762
  128OSM   H10S13730   4.277   5.999   7.106  1.3114  0.3641 -0.3446
  128OSM   H10T13731   4.193   6.142   7.195 -0.2225 -1.3591 -0.1878
  128OSM   C11S13732   4.401   6.105   7.239 -1.4494 -0.5194  0.7365
  128OSM   H11S13733   4.421   6.208   7.276 -3.8147  0.4004 -0.4471
  128OSM   H11T13734   4.494   6.081   7.183 -0.7825  0.0812  1.5620
  128OSM   C12S13735   4.404   6.000   7.349  0.2186 -1.3019 -0.3460
  128OSM   H12S13736   4.505   5.965   7.377  1.0695  1.4687  0.1593
  128OSM   H12T13737   4.347   5.915   7.305 -0.0855 -2.2521  1.8349
  128OSM   C13S13738   4.332   6.036   7.478  0.1551  0.7731 -0.8602
  128OSM   H13S13739   4.303   5.943   7.531  2.2980  0.8618  0.5141
  128OSM   H13T13740   4.239   6.091   7.451  0.3926  1.1905 -0.8203
  128OSM   C14S13741   4.416   6.129   7.570 -0.4824 -0.1033  0.3996
  128OSM   H14S13742   4.429   6.221   7.509  0.2182 -0.2767  0.2862
  128OSM   H14T13743   4.507   6.066   7.582 -0.8935 -1.0743 -1.4867
  128OSM   C15S13744   4.360   6.153   7.710  0.2463 -0.0376  0.0516
  128OSM   H15S13745   4.306   6.062   7.744  1.3204 -0.1700  1.4299
  128OSM   H15T13746   4.286   6.236   7.704  0.2006  0.0979  2.1925
  128OSM   C16S13747   4.463   6.192   7.819  0.1996  0.1823 -0.0736
  128OSM   H16S13748   4.511   6.287   7.789  1.1734 -0.2837 -0.0318
  128OSM   H16T13749   4.540   6.111   7.823 -0.6653 -0.7434 -1.7159
  128OSM   C17S13750   4.392   6.193   7.957  0.2358 -0.5500  0.1923
  128OSM   H17S13751   4.313   6.269   7.936 -0.0325 -0.5581  1.1601
  128OSM   H17T13752   4.456   6.238   8.036 -1.5284 -0.0628  1.3620
  128OSM   C18S13753   4.335   6.054   7.996 -0.9926  0.5911  0.0962
  128OSM   H18S13754   4.410   5.974   7.976 -1.3742  0.3239 -0.2677
  128OSM   H18T13755   4.245   6.041   7.932 -1.4563 -2.5449  1.3231
  128OSM   H18U13756   4.299   6.048   8.101  0.2375  2.1579  0.6267
  128OSM    C1F13757   4.437   5.445   6.771 -0.4351  0.0653  0.0792
  128OSM     OF13758   4.540   5.405   6.715 -0.5786 -0.0717 -0.2078
  128OSM    C2F13759   4.394   5.396   6.910 -0.5703 -0.1732  0.0325
  128OSM    H2F13760   4.290   5.359   6.901 -0.9311  1.1838 -1.6517
  128OSM    H2G13761   4.423   5.457   6.998 -0.8662  2.7390 -1.8421
  128OSM    C3F13762   4.451   5.252   6.925 -0.5235  0.2284  0.5385
  128OSM    H3F13763   4.559   5.252   6.951 -0.5136 -2.8792  0.6590
  128OSM    H3G13764   4.442   5.206   6.824  1.1413  0.2268  0.3702
  128OSM    C4F13765   4.365   5.166   7.028  0.1242 -0.1783  0.2557
  128OSM    H4F13766   4.403   5.062   7.037 -0.7772 -0.4586  0.7657
  128OSM    H4G13767   4.258   5.150   7.006  0.3188  0.5338 -1.3358
  128OSM    C5F13768   4.367   5.246   7.163  0.2433  0.4956  0.6662
  128OSM    H5F13769   4.308   5.339   7.146 -0.7327 -0.0614  0.9277
  128OSM    H5G13770   4.463   5.282   7.204 -0.3816  0.3866  2.2570
  128OSM    C6F13771   4.316   5.157   7.279  0.6027 -0.6387  1.0152
  128OSM    H6F13772   4.375   5.063   7.280  0.5403 -0.7016 -0.1068
  128OSM    H6G13773   4.210   5.128   7.260  1.0703 -1.7455 -0.0204
  128OSM    C7F13774   4.328   5.222   7.411  0.6299 -0.3065  0.7017
  128OSM    H7F13775   4.300   5.329   7.405  1.1330 -0.0354  2.7442
  128OSM    H7G13776   4.433   5.223   7.446  0.2385  0.2065  1.8938
  128OSM    C8F13777   4.235   5.171   7.528 -0.6707  0.5313 -0.3378
  128OSM    H8F13778   4.131   5.159   7.490 -0.4944 -1.0548 -0.3648
  128OSM    H8G13779   4.234   5.251   7.605 -2.4552 -1.4806  1.8362
  128OSM    C9F13780   4.295   5.045   7.598 -0.5168 -0.5368  0.3470
  128OSM    H9F13781   4.291   4.955   7.535  0.9594 -0.1127 -0.3793
  128OSM   C10F13782   4.350   5.041   7.724 -0.4794  0.2427  0.1402
  128OSM   H10F13783   4.377   4.943   7.766 -3.3557 -2.2199 -3.4638
  128OSM   C11F13784   4.370   5.162   7.811  0.4622  0.1716 -0.1931
  128OSM   H11F13785   4.403   5.252   7.755  0.4969 -0.1906 -0.7536
  128OSM   H11G13786   4.459   5.137   7.873 -0.0551 -1.2758 -0.0192
  128OSM   C12F13787   4.247   5.196   7.907  0.4874  0.3345  0.2732
  128OSM   H12F13788   4.159   5.226   7.847 -1.6326 -2.2723  1.9512
  128OSM   H12G13789   4.273   5.271   7.986 -1.9524 -0.4735  1.9147
  128OSM   C13F13790   4.203   5.066   7.987 -0.8792  0.8103  0.2203
  128OSM   H13F13791   4.298   5.010   7.999 -0.3210  1.6570 -0.1850
  128OSM   H13G13792   4.141   5.001   7.921  0.1196  0.9483 -0.8783
  128OSM   C14F13793   4.137   5.083   8.117  0.7519 -0.7500  0.3332
  128OSM   H14F13794   4.211   5.130   8.185 -0.1295  2.8974 -1.1380
  128OSM   H14G13795   4.111   4.982   8.157 -0.4198 -1.0305 -1.0730
  128OSM   C15F13796   3.999   5.156   8.102  0.9011 -0.3601 -0.2001
  128OSM   H15F13797   3.937   5.099   8.030 -0.1262  0.5209 -0.0103
  128OSM   H15G13798   4.032   5.256   8.067  2.7017 -1.5437 -2.0177
  128OSM   C16F13799   3.920   5.179   8.231  0.2595  0.6590 -0.3669
  128OSM   H16F13800   3.909   5.081   8.282  0.0161 -0.3741 -2.3684
  128OSM   H16G13801   3.819   5.219   8.207  0.3163  0.2931 -1.2362
  128OSM   C17F13802   3.991   5.282   8.323  0.3750 -0.1558 -0.0572
  128OSM   H17F13803   3.999   5.377   8.267  0.6038  0.2170  0.5956
  128OSM   H17G13804   4.089   5.238   8.354  2.3673  2.6582 -2.1078
  128OSM   C18F13805   3.901   5.319   8.444  0.3208 -0.4029  0.0497
  128OSM   H18F13806   3.949   5.403   8.498 -0.4578 -0.4250  0.7941
  128OSM   H18G13807   3.896   5.235   8.516  1.3129 -0.0654  0.5216
  128OSM   H18H13808   3.799   5.355   8.418  1.3588  1.5682 -1.4514
  129OSM      N13809   1.293   2.211   5.936  0.4516 -0.2238 -0.7498
  129OSM    C1513810   1.331   2.320   5.840 -0.0110 -0.1907  0.3515
  129OSM   H15A13811   1.294   2.295   5.741 -2.5042 -0.6929  1.3533
  129OSM   H15B13812   1.438   2.317   5.836 -0.0660 -0.2658 -1.4167
  129OSM   H15C13813   1.299   2.421   5.865  1.1551  0.1551  0.4542
  129OSM    C1413814   1.142   2.231   5.948 -0.1440 -0.5249 -0.3712
  129OSM   H14A13815   1.098   2.144   5.995  1.3596  0.2447  2.5830
  129OSM   H14B13816   1.101   2.222   5.849 -0.0275  1.9901 -0.6729
  129OSM   H14C13817   1.115   2.329   5.984  0.2913 -1.0306  1.3603
  129OSM    C1313818   1.326   2.075   5.877 -0.6746  0.6289  0.1989
  129OSM   H13A13819   1.278   2.051   5.784  1.1357 -1.7345 -0.1710
  129OSM   H13B13820   1.297   2.001   5.950  1.0917  1.0501  1.3750
  129OSM   H13C13821   1.430   2.064   5.851 -0.7218 -0.9877  0.6481
  129OSM    C1213822   1.353   2.228   6.068  0.3630  0.0993 -0.1602
  129OSM   H12A13823   1.317   2.151   6.136  0.1881 -1.0808 -1.5642
  129OSM   H12B13824   1.321   2.325   6.102  2.3599  0.8798 -0.4497
  129OSM    C1113825   1.506   2.226   6.083  0.2319  0.5136 -0.2113
  129OSM   H11A13826   1.554   2.305   6.022 -0.6448  1.7226  0.6437
  129OSM   H11B13827   1.546   2.126   6.055  1.7327  0.6832  1.2533
  129OSM      P13828   1.546   2.160   6.334  0.2749  0.1670 -0.1538
  129OSM    O1313829   1.462   2.223   6.437  0.0532 -0.2427  0.4616
  129OSM    O1413830   1.521   2.024   6.291  0.2585  0.5110  0.5503
  129OSM    O1113831   1.696   2.138   6.396  0.2371 -0.1042  0.1238
  129OSM    O1213832   1.559   2.258   6.209 -0.6991  0.3258 -0.3402
  129OSM    C1S13833   1.735   2.255   6.471  0.2614  0.4371 -0.0779
  129OSM    H1S13834   1.672   2.346   6.462 -1.4067 -0.4886  1.7940
  129OSM    H1T13835   1.839   2.284   6.446 -0.2731  1.4988 -1.1738
  129OSM     NF13836   1.753   2.345   6.690  0.5431  0.5506 -0.4990
  129OSM    HNF13837   1.846   2.377   6.708  0.9272 -0.1736 -1.1504
  129OSM    C2S13838   1.741   2.218   6.623  0.4028  0.6021 -0.4964
  129OSM    H2S13839   1.645   2.171   6.652  1.5856 -1.2351  0.5954
  129OSM    C3S13840   1.854   2.118   6.653 -0.2506  0.1666 -0.7577
  129OSM    H3S13841   1.952   2.167   6.632 -0.0337 -0.3358 -0.9159
  129OSM     O313842   1.852   2.001   6.574 -0.0650  0.2248  0.2472
  129OSM    HO313843   1.809   2.033   6.494 -0.6112 -0.0092  0.4475
  129OSM    C4S13844   1.851   2.085   6.806 -0.4801  0.0734 -0.3958
  129OSM    H4S13845   1.756   2.042   6.843  0.6155 -2.1483 -0.0470
  129OSM    C5S13846   1.940   2.124   6.896 -0.1726 -0.3790 -0.7623
  129OSM    H5S13847   2.029   2.181   6.866 -0.5201 -0.2315 -1.5220
  129OSM    C6S13848   1.914   2.099   7.051 -0.3560  0.4693  0.3553
  129OSM    H6S13849   1.996   2.041   7.099  0.5885  0.2577 -1.4778
  129OSM    H6T13850   1.822   2.042   7.074 -0.8322  1.5979  1.3365
  129OSM    C7S13851   1.910   2.238   7.115  0.5642  0.6917  0.3920
  129OSM    H7S13852   1.854   2.316   7.059  1.2711  0.7633 -0.2160
  129OSM    H7T13853   2.012   2.280   7.124  0.5413  0.7667  0.2906
  129OSM    C8S13854   1.857   2.236   7.258 -0.3342 -0.0830 -0.3463
  129OSM    H8S13855   1.751   2.206   7.270 -0.1906 -0.2640  0.4665
  129OSM    H8T13856   1.870   2.339   7.299 -2.2039 -0.1015  0.3439
  129OSM    C9S13857   1.933   2.141   7.360 -0.6928 -0.4491  0.1392
  129OSM    H9S13858   2.043   2.161   7.358 -0.3923 -1.8892  1.3492
  129OSM    H9T13859   1.926   2.034   7.331  0.5906 -0.1873 -1.2538
  129OSM   C10S13860   1.885   2.152   7.506  0.0297 -0.1203  0.3186
  129OSM   H10S13861   1.774   2.156   7.498  0.1077 -0.6223 -1.1327
  129OSM   H10T13862   1.926   2.243   7.554 -0.0255  0.3093 -0.4434
  129OSM   C11S13863   1.909   2.029   7.593 -0.5957 -0.1160  0.6795
  129OSM   H11S13864   2.019   2.032   7.607 -0.8610 -0.2964  2.9745
  129OSM   H11T13865   1.884   1.933   7.542  0.8020  0.4256 -1.1015
  129OSM   C12S13866   1.820   2.033   7.721  0.7231  0.5430  0.0557
  129OSM   H12S13867   1.719   2.013   7.679 -0.3362  0.2165  2.6712
  129OSM   H12T13868   1.820   2.129   7.775  0.9707  0.1706  0.7163
  129OSM   C13S13869   1.851   1.924   7.820  1.0006  1.0255 -0.5213
  129OSM   H13S13870   1.953   1.941   7.860  0.5113  2.8752 -0.0362
  129OSM   H13T13871   1.832   1.825   7.772 -1.7549  0.9906  0.5644
  129OSM   C14S13872   1.746   1.913   7.934  0.5145 -0.9005  0.3515
  129OSM   H14S13873   1.746   1.807   7.968 -3.0865 -1.5322 -1.3412
  129OSM   H14T13874   1.646   1.940   7.895 -0.0448  1.6333  3.3542
  129OSM   C15S13875   1.765   2.001   8.056  0.1933  0.1971 -0.1454
  129OSM   H15S13876   1.741   2.109   8.042  1.4625  0.5690  0.4423
  129OSM   H15T13877   1.872   1.994   8.083 -0.2940 -1.7478  1.4282
  129OSM   C16S13878   1.663   1.964   8.168 -0.6296  0.4173 -0.1649
  129OSM   H16S13879   1.678   1.855   8.185 -1.0010 -0.0209 -2.5330
  129OSM   H16T13880   1.558   1.982   8.135 -1.1991  1.8261  2.2987
  129OSM   C17S13881   1.694   2.054   8.292  0.4812  0.2723  0.4560
  129OSM   H17S13882   1.701   2.158   8.255 -2.3471  0.1147 -0.6706
  129OSM   H17T13883   1.788   2.014   8.334 -0.0998 -0.0820  1.4393
  129OSM   C18S13884   1.582   2.057   8.402 -0.2211  0.0487 -0.2158
  129OSM   H18S13885   1.491   2.109   8.363 -1.3236 -1.1968  0.6296
  129OSM   H18T13886   1.623   2.126   8.479 -3.3358  2.0688 -0.2577
  129OSM   H18U13887   1.562   1.952   8.435  1.0455  0.1900  1.0613
  129OSM    C1F13888   1.645   2.419   6.714  0.2183  0.7541  0.2516
  129OSM     OF13889   1.536   2.380   6.666 -0.4532 -0.3718 -0.2861
  129OSM    C2F13890   1.660   2.532   6.813  0.0986  0.1553  0.1573
  129OSM    H2F13891   1.625   2.623   6.761 -2.2733 -1.4061 -1.0888
  129OSM    H2G13892   1.768   2.551   6.834 -0.1912  0.8020  1.1002
  129OSM    C3F13893   1.574   2.511   6.940  0.5918  0.1066 -0.1236
  129OSM    H3F13894   1.587   2.409   6.983  0.9774  0.2563  0.1148
  129OSM    H3G13895   1.466   2.536   6.928  0.3879 -1.1932 -1.2753
  129OSM    C4F13896   1.623   2.591   7.064  0.2220  0.8612 -0.5614
  129OSM    H4F13897   1.629   2.701   7.052 -1.1120  1.0735  0.5996
  129OSM    H4G13898   1.727   2.560   7.089 -0.7301 -0.8165  1.4148
  129OSM    C5F13899   1.536   2.575   7.193 -0.4302 -1.1725 -1.1937
  129OSM    H5F13900   1.443   2.636   7.188  0.2475 -0.0244 -0.1244
  129OSM    H5G13901   1.597   2.623   7.273 -2.4083 -2.5679  1.2385
  129OSM    C6F13902   1.511   2.432   7.235 -0.2826 -0.0657  0.4902
  129OSM    H6F13903   1.605   2.383   7.267  0.2057  1.5668  1.6241
  129OSM    H6G13904   1.469   2.370   7.154 -0.2760 -2.2608  2.1088
  129OSM    C7F13905   1.411   2.419   7.352 -0.6143  0.0846 -0.3088
  129OSM    H7F13906   1.384   2.313   7.369  0.9571  0.1302  2.8447
  129OSM    H7G13907   1.322   2.478   7.320 -0.0092  0.5134 -1.2489
  129OSM    C8F13908   1.458   2.485   7.490 -0.5970  0.1825  0.2020
  129OSM    H8F13909   1.363   2.478   7.546 -1.0834 -0.9731 -0.7339
  129OSM    H8G13910   1.484   2.591   7.468  1.5787  0.1680  2.5031
  129OSM    C9F13911   1.571   2.416   7.565 -0.2398  1.3748  0.7510
  129OSM    H9F13912   1.660   2.404   7.503  0.2020  1.4803  1.3642
  129OSM   C10F13913   1.577   2.347   7.676 -0.2997  0.0215 -0.3945
  129OSM   H10F13914   1.680   2.318   7.703 -0.2915  0.4224  0.0162
  129OSM   C11F13915   1.481   2.312   7.783 -0.7494  0.1678  0.1872
  129OSM   H11F13916   1.489   2.203   7.806  1.0175  0.3885  0.7653
  129OSM   H11G13917   1.373   2.333   7.771 -0.1412  3.3836 -0.1693
  129OSM   C12F13918   1.510   2.382   7.917 -0.7043  0.6354 -0.4282
  129OSM   H12F13919   1.528   2.488   7.891  0.7287  0.3034 -0.8284
  129OSM   H12G13920   1.600   2.329   7.957 -2.0814 -1.8193 -0.4782
  129OSM   C13F13921   1.392   2.355   8.010 -0.3412  0.1516 -0.6486
  129OSM   H13F13922   1.384   2.245   8.020 -0.4847  0.1764 -0.4859
  129OSM   H13G13923   1.298   2.396   7.967 -0.4287 -0.3470 -0.9372
  129OSM   C14F13924   1.402   2.408   8.157  0.2923 -0.8977 -0.2082
  129OSM   H14F13925   1.410   2.519   8.158 -0.9209 -0.8169  1.4177
  129OSM   H14G13926   1.494   2.360   8.197 -0.0997 -0.8919  0.6932
  129OSM   C15F13927   1.276   2.364   8.228 -0.3109  0.2876  0.2949
  129OSM   H15F13928   1.272   2.253   8.233  1.5365  0.1746 -0.5605
  129OSM   H15G13929   1.186   2.403   8.175  0.9968  3.6879  0.4827
  129OSM   C16F13930   1.271   2.428   8.368 -0.1013  0.2311 -0.5783
  129OSM   H16F13931   1.287   2.537   8.374  0.0957  0.1753 -0.0521
  129OSM   H16G13932   1.344   2.377   8.434 -0.0482 -0.6430 -1.3030
  129OSM   C17F13933   1.134   2.408   8.443 -0.7398 -0.1523 -0.4800
  129OSM   H17F13934   1.136   2.299   8.463 -1.6162 -0.0999 -0.0955
  129OSM   H17G13935   1.057   2.437   8.368 -0.8401  1.1484  0.1009
  129OSM   C18F13936   1.118   2.482   8.574  0.0916 -0.3137 -0.1758
  129OSM   H18F13937   1.138   2.591   8.566 -1.3163 -0.0360 -0.0593
  129OSM   H18G13938   1.182   2.440   8.654 -0.9773  0.7595  1.2802
  129OSM   H18H13939   1.019   2.459   8.619 -0.8292 -0.2666 -2.1072
  130OSM      N13940   4.399   4.414   6.069  0.0127  0.4175 -0.1044
  130OSM    C1513941   4.367   4.286   5.991 -0.3190  0.0896  0.1808
  130OSM   H15A13942   4.445   4.212   6.001  1.0044  1.2548 -1.0815
  130OSM   H15B13943   4.369   4.308   5.885  0.7481  1.5508  0.4928
  130OSM   H15C13944   4.270   4.249   6.022 -0.8495  2.4530  1.4746
  130OSM    C1413945   4.527   4.473   6.018 -0.0295 -0.4382  0.2988
  130OSM   H14A13946   4.609   4.403   6.020  0.4895  0.1863  0.9101
  130OSM   H14B13947   4.555   4.557   6.080  1.5099 -0.1018 -0.8389
  130OSM   H14C13948   4.513   4.505   5.916 -0.0149  0.3868  0.5554
  130OSM    C1313949   4.291   4.518   6.058 -0.4054  0.1328 -0.6894
  130OSM   H13A13950   4.192   4.481   6.079 -1.0558  0.7658 -2.5793
  130OSM   H13B13951   4.289   4.570   5.963 -0.8104  0.2291 -0.6296
  130OSM   H13C13952   4.299   4.596   6.133 -1.0930 -1.8426  1.4806
  130OSM    C1213953   4.418   4.373   6.217  0.5937  0.2434  1.1411
  130OSM   H12A13954   4.499   4.302   6.220  1.0377  0.2927 -4.5208
  130OSM   H12B13955   4.322   4.336   6.251  0.8455 -0.7125  0.8368
  130OSM    C1113956   4.469   4.488   6.312 -0.1922  0.1499 -0.5397
  130OSM   H11A13957   4.456   4.444   6.413  1.7553  0.6298 -0.0578
  130OSM   H11B13958   4.398   4.573   6.311 -0.4814 -0.0969 -1.3605
  130OSM      P13959   4.737   4.436   6.336 -0.1890 -0.0966 -0.2478
  130OSM    O1313960   4.690   4.321   6.413 -0.2936 -0.0294  0.0675
  130OSM    O1413961   4.830   4.404   6.225 -0.1073 -1.1057 -0.1294
  130OSM    O1113962   4.808   4.540   6.430 -0.7107  1.0720 -0.4504
  130OSM    O1213963   4.603   4.521   6.286 -0.0146  0.4479 -0.3276
  130OSM    C1S13964   4.735   4.634   6.515  0.1289  0.1007  0.0577
  130OSM    H1S13965   4.624   4.626   6.513  0.0731  0.7184  0.8522
  130OSM    H1T13966   4.751   4.735   6.472 -1.8310  0.1497 -0.6194
  130OSM     NF13967   4.697   4.715   6.744  1.2273  0.0430  0.3223
  130OSM    HNF13968   4.745   4.799   6.768 -1.6396  1.0690  2.8653
  130OSM    C2S13969   4.778   4.624   6.667 -0.0914 -0.9167 -0.7789
  130OSM    H2S13970   4.755   4.517   6.685  0.7355 -1.4171 -2.5431
  130OSM    C3S13971   4.934   4.645   6.683 -0.7405  0.0316  0.2389
  130OSM    H3S13972   4.970   4.747   6.658  1.1295 -0.2746  1.5459
  130OSM     O313973   5.003   4.566   6.582  0.1984 -0.2122  0.6740
  130OSM    HO313974   4.928   4.539   6.528  1.8526 -1.6746 -0.9744
  130OSM    C4S13975   4.984   4.611   6.824 -0.2180  0.7300 -0.3473
  130OSM    H4S13976   5.007   4.506   6.843 -1.0726  1.0756  2.8907
  130OSM    C5S13977   5.011   4.700   6.921  0.0773 -0.1274 -1.3033
  130OSM    H5S13978   4.987   4.806   6.906  1.8288  0.6874  1.3493
  130OSM    C6S13979   5.062   4.665   7.062  0.1659  0.7513  0.4667
  130OSM    H6S13980   5.146   4.731   7.094  2.1200 -2.2180  1.7734
  130OSM    H6T13981   5.112   4.566   7.062 -2.8291 -0.8521 -3.1483
  130OSM    C7S13982   4.945   4.664   7.165 -1.0490 -0.0852 -0.1969
  130OSM    H7S13983   4.876   4.580   7.140  2.1907 -3.7872  2.5983
  130OSM    H7T13984   4.901   4.765   7.155 -1.1084  0.0453  1.3524
  130OSM    C8S13985   5.015   4.637   7.301 -0.1400  0.1668 -0.7503
  130OSM    H8S13986   5.095   4.559   7.300 -0.7762 -0.6894  3.6732
  130OSM    H8T13987   4.939   4.595   7.370  0.8610  2.9206  2.1334
  130OSM    C9S13988   5.074   4.767   7.359  0.4711 -0.1143 -0.9228
  130OSM    H9S13989   5.027   4.851   7.304 -0.0373  0.7153  0.7813
  130OSM    H9T13990   5.183   4.780   7.341  0.9738  1.1711  2.7240
  130OSM   C10S13991   5.053   4.770   7.508 -0.9729 -0.3468  0.0467
  130OSM   H10S13992   4.951   4.747   7.546 -1.0875  0.8760  0.5211
  130OSM   H10T13993   5.079   4.870   7.550  1.7077 -0.5616 -1.0283
  130OSM   C11S13994   5.149   4.684   7.587  0.6142 -0.3578  0.0750
  130OSM   H11S13995   5.252   4.719   7.567  0.9180 -1.9935 -1.2838
  130OSM   H11T13996   5.137   4.579   7.551  1.6285 -0.4683  0.0375
  130OSM   C12S13997   5.133   4.694   7.742  0.2836 -0.0775 -0.1608
  130OSM   H12S13998   5.113   4.802   7.762 -1.4136 -0.3679 -0.2257
  130OSM   H12T13999   5.218   4.661   7.804 -1.8374 -2.7800  1.4338
  130OSM   C13S14000   5.012   4.613   7.799  0.0024  1.3776  0.0677
  130OSM   H13S14001   5.022   4.515   7.747 -2.3958  0.5866  1.0176
  130OSM   H13T14002   4.917   4.646   7.751 -1.4365 -2.3810  0.1725
  130OSM   C14S14003   5.008   4.613   7.948  0.1981  0.7966  0.0158
  130OSM   H14S14004   5.017   4.713   7.997 -0.6970  0.3826  1.0606
  130OSM   H14T14005   5.087   4.548   7.990 -2.6083 -2.0798  1.0688
  130OSM   C15S14006   4.882   4.561   8.006  0.5728  0.3175  0.0616
  130OSM   H15S14007   4.856   4.465   7.956 -1.3370  0.6728  0.3428
  130OSM   H15T14008   4.803   4.635   7.985 -1.6689 -2.2848 -1.0650
  130OSM   C16S14009   4.896   4.537   8.162  0.4671 -0.0734 -0.8180
  130OSM   H16S14010   4.902   4.638   8.209 -2.8063  0.6629 -1.8849
  130OSM   H16T14011   4.994   4.487   8.178  1.5476  2.3584  0.5491
  130OSM   C17S14012   4.794   4.450   8.229  0.1996  0.0717 -0.3522
  130OSM   H17S14013   4.787   4.372   8.151  2.8246 -1.5036  0.9020
  130OSM   H17T14014   4.693   4.495   8.233  0.8848  1.5863  0.3995
  130OSM   C18S14015   4.821   4.380   8.358 -0.1812 -0.1447 -0.8648
  130OSM   H18S14016   4.925   4.341   8.348 -0.3757 -0.4396 -1.7496
  130OSM   H18T14017   4.750   4.298   8.379 -0.9493  0.4649 -1.0612
  130OSM   H18U14018   4.814   4.459   8.437 -2.1051  0.5115 -1.6615
  130OSM    C1F14019   4.575   4.691   6.772 -0.4120  0.1629 -0.1178
  130OSM     OF14020   4.518   4.594   6.727  0.4021  0.1646 -0.1986
  130OSM    C2F14021   4.505   4.808   6.832 -0.5505 -0.0239  0.1283
  130OSM    H2F14022   4.423   4.848   6.769 -2.4813 -2.1762  1.1936
  130OSM    H2G14023   4.584   4.880   6.863  1.4155 -1.9933 -0.1723
  130OSM    C3F14024   4.422   4.751   6.955 -0.2084  0.4858 -0.5140
  130OSM    H3F14025   4.358   4.665   6.923  1.1540 -0.0143 -2.0046
  130OSM    H3G14026   4.351   4.829   6.988  1.2342  0.6745  2.2453
  130OSM    C4F14027   4.510   4.711   7.073  0.2680 -0.2460  0.4417
  130OSM    H4F14028   4.595   4.648   7.039  0.1906 -0.4082  0.5478
  130OSM    H4G14029   4.448   4.645   7.137 -2.3758  2.1680  0.4529
  130OSM    C5F14030   4.571   4.826   7.150  0.7579  0.2671 -0.1573
  130OSM    H5F14031   4.496   4.907   7.147 -1.0221 -1.3352 -0.1811
  130OSM    H5G14032   4.668   4.861   7.110  1.0054  2.9527  2.6101
  130OSM    C6F14033   4.603   4.777   7.292 -0.2362 -0.2522 -0.6215
  130OSM    H6F14034   4.678   4.849   7.330  0.1992 -0.6131 -0.7897
  130OSM    H6G14035   4.653   4.678   7.283 -1.4369 -0.9783  0.4868
  130OSM    C7F14036   4.480   4.791   7.382  0.6715  0.6953 -0.8809
  130OSM    H7F14037   4.388   4.760   7.328 -0.1473 -0.5481  1.1699
  130OSM    H7G14038   4.473   4.901   7.399 -3.4631  0.2998  0.6798
  130OSM    C8F14039   4.480   4.704   7.510 -0.2308 -0.3555  0.3004
  130OSM    H8F14040   4.499   4.597   7.486 -0.9559 -0.2166 -0.9350
  130OSM    H8G14041   4.376   4.702   7.550 -0.2695 -0.0398  0.2169
  130OSM    C9F14042   4.566   4.769   7.615  0.2748 -0.1343 -1.3437
  130OSM    H9F14043   4.626   4.855   7.584  2.0009 -0.7183  0.3035
  130OSM   C10F14044   4.576   4.720   7.740  0.5541  0.1669 -1.0755
  130OSM   H10F14045   4.649   4.768   7.807  0.6426 -0.5119 -0.6749
  130OSM   C11F14046   4.506   4.601   7.792 -0.0371  0.9301 -0.3684
  130OSM   H11F14047   4.571   4.515   7.819 -1.5663  0.2683  1.3071
  130OSM   H11G14048   4.445   4.547   7.716  0.6596 -0.2182 -0.1309
  130OSM   C12F14049   4.392   4.639   7.898 -0.8675 -0.0313  0.4458
  130OSM   H12F14050   4.333   4.554   7.938 -0.2340 -0.5042  0.3845
  130OSM   H12G14051   4.319   4.705   7.846 -0.0956 -0.5772 -1.3692
  130OSM   C13F14052   4.443   4.706   8.029 -0.9579  0.4196  0.1941
  130OSM   H13F14053   4.505   4.793   7.998  0.5061 -1.1059 -1.2956
  130OSM   H13G14054   4.505   4.633   8.085 -2.1045 -2.0815 -1.7353
  130OSM   C14F14055   4.326   4.749   8.119 -0.4314 -0.4604 -0.0780
  130OSM   H14F14056   4.256   4.667   8.145 -1.7835  0.4258 -0.9296
  130OSM   H14G14057   4.252   4.802   8.056  0.8974  0.1013 -1.1912
  130OSM   C15F14058   4.359   4.823   8.252 -0.1618 -0.1573  0.6406
  130OSM   H15F14059   4.265   4.852   8.303 -0.4366  0.7058 -0.3316
  130OSM   H15G14060   4.392   4.918   8.203  0.4351 -0.8270 -0.2745
  130OSM   C16F14061   4.467   4.764   8.348 -0.5499  0.4193  0.0132
  130OSM   H16F14062   4.525   4.682   8.299 -1.1532 -0.4988  0.8140
  130OSM   H16G14063   4.406   4.702   8.418 -0.8402 -0.4096 -0.9614
  130OSM   C17F14064   4.565   4.856   8.415 -0.4953 -0.2225 -0.4177
  130OSM   H17F14065   4.629   4.905   8.338 -2.0381  1.3111 -0.7837
  130OSM   H17G14066   4.627   4.800   8.487  0.9321  0.0698 -1.4066
  130OSM   C18F14067   4.499   4.963   8.503 -0.4728 -0.6528  0.2300
  130OSM   H18F14068   4.423   5.023   8.450  0.8110 -0.4488 -1.4243
  130OSM   H18G14069   4.586   5.026   8.529 -1.1833  2.2716 -4.1009
  130OSM   H18H14070   4.460   4.920   8.598 -4.6617  1.7083 -0.3107
  131OSM      N14071   2.342   1.250   6.228 -0.1533  0.0329 -0.0249
  131OSM    C1514072   2.387   1.117   6.179 -0.8121  0.4731 -0.7544
  131OSM   H15A14073   2.486   1.117   6.137 -0.2195  0.3462  0.5922
  131OSM   H15B14074   2.322   1.081   6.102  0.1211  0.5372 -1.5826
  131OSM   H15C14075   2.392   1.056   6.269 -0.8949  2.6607  0.7752
  131OSM    C1414076   2.439   1.290   6.337  0.1420 -0.0728 -0.0701
  131OSM   H14A14077   2.389   1.365   6.397 -0.6539 -1.7948  1.4651
  131OSM   H14B14078   2.535   1.324   6.300  2.2592 -5.0187  0.5393
  131OSM   H14C14079   2.454   1.206   6.402  1.4645  0.2601  0.0705
  131OSM    C1314080   2.364   1.347   6.115  0.0445 -0.2029 -0.5259
  131OSM   H13A14081   2.467   1.376   6.123 -0.8732  2.7430  1.4747
  131OSM   H13B14082   2.297   1.431   6.131 -0.4500 -0.6216 -0.3772
  131OSM   H13C14083   2.337   1.300   6.022  0.9856  0.2736 -1.0374
  131OSM    C1214084   2.193   1.234   6.267 -0.0283  0.5215  0.0921
  131OSM   H12A14085   2.163   1.321   6.323  0.5083  0.3234  0.7010
  131OSM   H12B14086   2.187   1.148   6.333 -3.5666  0.4529 -0.2207
  131OSM    C1114087   2.082   1.226   6.152  0.1748 -0.5149  0.2125
  131OSM   H11A14088   2.081   1.312   6.081 -0.4394  0.7071  1.6760
  131OSM   H11B14089   1.987   1.244   6.207 -0.8000 -0.7811 -1.3313
  131OSM      P14090   1.978   0.994   6.101  0.2544  0.0667  0.2283
  131OSM    O1314091   1.853   1.041   6.039  0.1947  0.7190  0.1226
  131OSM    O1414092   2.038   0.868   6.051 -0.1653 -0.5543 -0.3296
  131OSM    O1114093   1.964   0.991   6.257  0.5220  0.2540 -1.0959
  131OSM    O1214094   2.085   1.108   6.082 -0.1832 -0.0596 -0.3659
  131OSM    C1S14095   2.061   0.930   6.345 -0.0751 -0.1503  0.5329
  131OSM    H1S14096   2.163   0.951   6.307 -1.0323  2.0584 -0.9302
  131OSM    H1T14097   2.042   0.822   6.361  0.7909 -0.2576  0.8950
  131OSM     NF14098   2.157   0.937   6.571 -0.5191  0.0599 -0.2454
  131OSM    HNF14099   2.126   0.851   6.611  0.2163  0.2225  0.6829
  131OSM    C2S14100   2.050   0.994   6.489 -0.0415  0.4156 -1.0971
  131OSM    H2S14101   2.062   1.104   6.476 -1.0285  0.7181  0.3729
  131OSM    C3S14102   1.909   0.982   6.551 -0.2254 -0.0330 -0.4348
  131OSM    H3S14103   1.862   0.881   6.555 -0.6930  0.2110  0.2605
  131OSM     O314104   1.814   1.066   6.480  0.0454  0.2436  0.2810
  131OSM    HO314105   1.867   1.131   6.434 -0.9045  0.3880 -0.6268
  131OSM    C4S14106   1.920   1.029   6.695  0.1692 -0.1495  0.0510
  131OSM    H4S14107   1.924   1.137   6.717  0.7547 -0.2777  0.5786
  131OSM    C5S14108   1.935   0.946   6.805 -0.0100  0.7479 -0.0838
  131OSM    H5S14109   1.940   0.838   6.786  0.8515  0.3813  2.0442
  131OSM    C6S14110   1.949   1.007   6.938  0.8682  0.3337 -0.0918
  131OSM    H6S14111   1.879   0.964   7.013  0.4832  1.1270  0.0128
  131OSM    H6T14112   1.926   1.116   6.937  1.7784  0.5423  0.9378
  131OSM    C7S14113   2.088   0.982   7.006  0.1355  0.0132  0.0463
  131OSM    H7S14114   2.159   1.028   6.934  0.5261  1.5375  1.3757
  131OSM    H7T14115   2.092   0.871   7.006  1.5174  0.0462 -0.7820
  131OSM    C8S14116   2.113   1.039   7.144 -0.1083  0.5215 -0.6572
  131OSM    H8S14117   2.031   0.991   7.202  0.1068 -0.0376 -0.8171
  131OSM    H8T14118   2.103   1.150   7.148 -0.8815  0.4114  0.9596
  131OSM    C9S14119   2.245   1.001   7.207 -0.0757 -0.4756 -0.3895
  131OSM    H9S14120   2.332   1.035   7.147  0.0864 -0.2231 -0.0112
  131OSM    H9T14121   2.261   0.891   7.207 -0.1599 -0.4937 -1.1299
  131OSM   C10S14122   2.250   1.055   7.352  0.3574 -0.1240 -0.8409
  131OSM   H10S14123   2.190   0.997   7.425 -0.3980 -1.1032 -2.2251
  131OSM   H10T14124   2.220   1.162   7.347 -0.9327 -0.3703  1.1524
  131OSM   C11S14125   2.392   1.043   7.417  0.0978 -0.7239 -1.0285
  131OSM   H11S14126   2.467   1.101   7.360  0.1933  1.5449  1.3501
  131OSM   H11T14127   2.422   0.937   7.431  1.8376  0.2315  3.1750
  131OSM   C12S14128   2.401   1.108   7.562 -0.3357 -0.0090  0.5990
  131OSM   H12S14129   2.395   1.217   7.544 -0.7919 -0.2051 -0.5046
  131OSM   H12T14130   2.505   1.088   7.597 -0.1719  1.6028  1.0634
  131OSM   C13S14131   2.289   1.084   7.669  0.4185  1.0318  0.5713
  131OSM   H13S14132   2.263   0.976   7.675  2.7458  0.4331  0.2601
  131OSM   H13T14133   2.201   1.144   7.638  1.2292  1.0052 -1.8937
  131OSM   C14S14134   2.331   1.146   7.801 -0.1349 -0.4224  0.3243
  131OSM   H14S14135   2.380   1.243   7.779 -0.1117  0.0804  2.4754
  131OSM   H14T14136   2.416   1.083   7.836  0.4470  1.2861  2.0732
  131OSM   C15S14137   2.226   1.159   7.913  0.1758 -0.3839 -0.4771
  131OSM   H15S14138   2.129   1.177   7.861 -0.4841  3.1523  1.8594
  131OSM   H15T14139   2.243   1.245   7.980  0.2330 -0.1814 -0.7500
  131OSM   C16S14140   2.211   1.031   7.990  0.3985  0.0848 -0.0472
  131OSM   H16S14141   2.294   1.010   8.060  0.1953 -0.6103 -0.0111
  131OSM   H16T14142   2.204   0.940   7.926  1.3564  0.5564 -0.8203
  131OSM   C17S14143   2.082   1.040   8.072 -0.1605  0.2873 -0.5862
  131OSM   H17S14144   1.990   1.070   8.018 -0.0499  2.1346  0.2270
  131OSM   H17T14145   2.090   1.125   8.142 -1.1869 -0.7463  0.8226
  131OSM   C18S14146   2.044   0.915   8.153  0.0549  0.0118 -0.4102
  131OSM   H18S14147   2.034   0.825   8.089  0.3241 -0.8664  0.7638
  131OSM   H18T14148   1.941   0.930   8.191 -0.4102 -0.2230 -1.5769
  131OSM   H18U14149   2.108   0.897   8.243  0.7324  0.1989 -0.8528
  131OSM    C1F14150   2.287   0.959   6.553  0.4560 -0.1893 -0.5662
  131OSM     OF14151   2.324   1.056   6.493  0.3303 -0.2591 -0.2287
  131OSM    C2F14152   2.390   0.863   6.605 -1.1752 -0.2081 -0.0152
  131OSM    H2F14153   2.333   0.773   6.636  0.6679 -1.6033 -0.5183
  131OSM    H2G14154   2.429   0.901   6.702  0.1072  0.0579 -0.6252
  131OSM    C3F14155   2.495   0.830   6.495 -0.3867 -0.0049  0.5887
  131OSM    H3F14156   2.563   0.915   6.473  1.7846 -2.1363 -1.2598
  131OSM    H3G14157   2.439   0.811   6.401  0.3215 -1.9914  0.5423
  131OSM    C4F14158   2.582   0.707   6.524 -0.0615  0.8190  0.0646
  131OSM    H4F14159   2.633   0.675   6.431 -1.1076  0.1415 -0.2938
  131OSM    H4G14160   2.513   0.624   6.550  1.4819 -0.2057  0.9698
  131OSM    C5F14161   2.675   0.723   6.646  0.9143 -0.0078  0.4107
  131OSM    H5F14162   2.627   0.785   6.725  0.4627 -1.2292  1.1036
  131OSM    H5G14163   2.768   0.771   6.607  0.4508  0.3589 -0.2409
  131OSM    C6F14164   2.695   0.587   6.707 -0.5802  0.5519 -0.0046
  131OSM    H6F14165   2.711   0.511   6.629  1.4496 -0.9694  1.8115
  131OSM    H6G14166   2.612   0.559   6.775 -0.3064 -0.6607 -0.1644
  131OSM    C7F14167   2.831   0.582   6.789 -0.1468 -0.6084 -0.3108
  131OSM    H7F14168   2.900   0.607   6.706 -1.0385  0.0275 -0.8736
  131OSM    H7G14169   2.866   0.482   6.822 -0.7302 -0.6789  0.1041
  131OSM    C8F14170   2.839   0.695   6.904 -0.3821 -0.5878  0.2178
  131OSM    H8F14171   2.793   0.787   6.861 -1.4053 -1.8043 -1.3553
  131OSM    H8G14172   2.943   0.713   6.937 -0.5228 -1.0522  0.9237
  131OSM    C9F14173   2.763   0.633   7.021 -0.4609  0.0031 -0.2721
  131OSM    H9F14174   2.815   0.546   7.064  0.1502  1.1924  1.4600
  131OSM   C10F14175   2.644   0.679   7.071  0.0963  0.3428  0.3470
  131OSM   H10F14176   2.598   0.624   7.154  0.6576 -0.3200  0.2227
  131OSM   C11F14177   2.563   0.797   7.029 -0.5933  0.4148 -0.7233
  131OSM   H11F14178   2.619   0.871   6.968 -0.8820  2.0276  0.9367
  131OSM   H11G14179   2.517   0.851   7.115 -1.6076 -2.4414  0.5896
  131OSM   C12F14180   2.442   0.736   6.946  0.2601 -0.2201  0.1895
  131OSM   H12F14181   2.480   0.694   6.851  0.2174  0.5597 -0.1740
  131OSM   H12G14182   2.372   0.821   6.933  1.9760  1.1998  0.0529
  131OSM   C13F14183   2.349   0.632   7.019 -0.0362 -0.0136  0.7305
  131OSM   H13F14184   2.302   0.677   7.109 -0.5365  0.8326  0.0448
  131OSM   H13G14185   2.407   0.545   7.056  0.8158  0.4941  0.5944
  131OSM   C14F14186   2.244   0.587   6.926  0.6145  0.0055  0.2981
  131OSM   H14F14187   2.276   0.519   6.845 -0.6654  1.1067 -1.1545
  131OSM   H14G14188   2.201   0.673   6.871  1.8957 -0.9525 -2.2495
  131OSM   C15F14189   2.122   0.520   7.001  0.6008  0.2910  0.0616
  131OSM   H15F14190   2.070   0.477   6.913 -1.5838 -0.5067  1.6975
  131OSM   H15G14191   2.044   0.586   7.046  0.9863  1.7581 -1.3978
  131OSM   C16F14192   2.149   0.404   7.102 -0.5830 -0.5896  0.9512
  131OSM   H16F14193   2.050   0.374   7.143 -1.3490  0.2693 -0.2234
  131OSM   H16G14194   2.210   0.437   7.189  2.2447 -0.9760 -0.8371
  131OSM   C17F14195   2.229   0.289   7.044 -0.0110 -0.1004 -0.4061
  131OSM   H17F14196   2.333   0.324   7.027 -0.0423 -0.4729 -1.3625
  131OSM   H17G14197   2.198   0.246   6.947  1.2816  0.6402 -1.1509
  131OSM   C18F14198   2.240   0.166   7.134  0.3346  0.8161  0.2089
  131OSM   H18F14199   2.277   0.200   7.233  2.4094  0.6164 -0.4771
  131OSM   H18G14200   2.294   0.082   7.085  0.4709  1.6291 -1.0477
  131OSM   H18H14201   2.137   0.132   7.162  1.0056 -1.4639  0.0106
  132OSM      N14202   3.703   2.417   6.010 -0.2809  0.0246 -0.5594
  132OSM    C1514203   3.599   2.516   6.036 -0.2953 -0.5646 -0.2306
  132OSM   H15A14204   3.573   2.498   6.139 -0.7152 -0.4847 -0.3230
  132OSM   H15B14205   3.514   2.496   5.974 -0.8513  0.9196  0.0245
  132OSM   H15C14206   3.633   2.616   6.012 -3.1438  0.4879 -0.0770
  132OSM    C1414207   3.666   2.278   6.047 -0.2718 -0.1489  0.5939
  132OSM   H14A14208   3.582   2.236   5.993  1.6866 -0.3965 -2.4418
  132OSM   H14B14209   3.645   2.273   6.153  0.9159 -1.0096  0.8049
  132OSM   H14C14210   3.756   2.221   6.026 -0.3496 -0.2110  0.4215
  132OSM    C1314211   3.724   2.411   5.866  0.5114 -0.8259  0.5304
  132OSM   H13A14212   3.808   2.347   5.842  0.7545 -0.6288  0.8367
  132OSM   H13B14213   3.762   2.505   5.828  1.1518 -0.6654  1.5420
  132OSM   H13C14214   3.640   2.379   5.807 -1.3778  0.1152  2.6541
  132OSM    C1214215   3.826   2.459   6.075  0.3558  0.1384 -0.2028
  132OSM   H12A14216   3.855   2.557   6.039  0.2034  0.8640  1.6287
  132OSM   H12B14217   3.898   2.390   6.033  0.0119  0.7630 -1.8909
  132OSM    C1114218   3.830   2.444   6.224 -0.0871 -0.3864 -0.8213
  132OSM   H11A14219   3.746   2.493   6.278  0.0100 -2.0370  0.8734
  132OSM   H11B14220   3.919   2.499   6.262 -2.4403  2.0247  1.4056
  132OSM      P14221   3.999   2.240   6.249 -0.6602  0.4227 -0.0516
  132OSM    O1314222   3.968   2.098   6.274 -0.2392 -0.2236  0.0979
  132OSM    O1414223   4.074   2.279   6.125  0.5844  0.6528 -0.1780
  132OSM    O1114224   4.068   2.294   6.387  0.2105 -0.2341 -0.7234
  132OSM    O1214225   3.851   2.307   6.255  0.1470  0.3047 -0.1776
  132OSM    C1S14226   4.009   2.264   6.514 -0.0790  0.5267  0.1654
  132OSM    H1S14227   3.998   2.158   6.542  1.9194 -0.1150 -1.3388
  132OSM    H1T14228   3.911   2.317   6.512  0.0134  0.6773 -0.5652
  132OSM     NF14229   4.040   2.297   6.754 -0.3324  0.7473  0.3926
  132OSM    HNF14230   3.971   2.357   6.793 -1.4746  0.4119 -1.0620
  132OSM    C2S14231   4.094   2.337   6.622  0.2005  0.0594 -0.3726
  132OSM    H2S14232   4.202   2.311   6.616  0.4690  1.2227 -0.6300
  132OSM    C3S14233   4.093   2.489   6.592  0.5627 -0.9445  0.6703
  132OSM    H3S14234   3.993   2.529   6.564  1.2698  1.3671  1.3516
  132OSM     O314235   4.178   2.525   6.483  0.1102 -0.6435 -0.3999
  132OSM    HO314236   4.161   2.456   6.419  0.8247 -0.8853 -0.3307
  132OSM    C4S14237   4.142   2.568   6.709 -0.0844 -0.5669 -1.2154
  132OSM    H4S14238   4.207   2.514   6.779 -0.3992 -1.1941 -1.4121
  132OSM    C5S14239   4.120   2.695   6.746  0.2102 -0.0575 -0.6998
  132OSM    H5S14240   4.053   2.755   6.683  0.0992  1.6132  0.9471
  132OSM    C6S14241   4.181   2.761   6.865  0.2452 -0.1314  0.2358
  132OSM    H6S14242   4.209   2.863   6.831 -2.5227 -0.3843 -3.0716
  132OSM    H6T14243   4.271   2.707   6.902  0.3123  0.1109  0.4211
  132OSM    C7S14244   4.081   2.763   6.981  0.1478  0.6997 -0.3652
  132OSM    H7S14245   4.029   2.667   6.999 -0.5952  0.6840 -2.4251
  132OSM    H7T14246   3.996   2.832   6.959 -2.2475 -2.0197  0.0308
  132OSM    C8S14247   4.128   2.815   7.120  0.6206  0.1061  0.0539
  132OSM    H8S14248   4.157   2.922   7.108 -0.6969  0.2773 -1.6408
  132OSM    H8T14249   4.222   2.763   7.150  0.8055  0.5822  0.3105
  132OSM    C9S14250   4.018   2.793   7.225 -0.0591 -0.1691 -0.6103
  132OSM    H9S14251   3.982   2.689   7.238 -1.0660  0.3920  1.2044
  132OSM    H9T14252   3.920   2.844   7.216 -1.1145 -2.0598  0.0406
  132OSM   C10S14253   4.089   2.830   7.356  0.3003  0.5561 -1.0811
  132OSM   H10S14254   4.119   2.937   7.356  1.0859  0.3667  0.6730
  132OSM   H10T14255   4.189   2.783   7.370 -0.4174 -0.4593  0.7522
  132OSM   C11S14256   4.003   2.805   7.487 -0.2417  0.1062  0.3067
  132OSM   H11S14257   3.958   2.704   7.488 -2.4232  1.0039 -1.3802
  132OSM   H11T14258   3.924   2.882   7.502 -1.4907 -0.7835 -1.5500
  132OSM   C12S14259   4.089   2.822   7.616 -0.2205 -0.4204 -0.4668
  132OSM   H12S14260   4.110   2.930   7.625  1.7822 -0.9699  2.0117
  132OSM   H12T14261   4.189   2.776   7.606 -0.7443 -1.2950 -1.8706
  132OSM   C13S14262   4.018   2.784   7.745 -0.1004  1.0170  0.4784
  132OSM   H13S14263   4.017   2.678   7.777  2.4252  1.1494  1.1071
  132OSM   H13T14264   3.914   2.821   7.732 -0.8617 -0.6985  1.5153
  132OSM   C14S14265   4.072   2.860   7.868 -0.5085 -0.2209  0.3386
  132OSM   H14S14266   4.072   2.968   7.843  2.4118 -0.1991  0.3018
  132OSM   H14T14267   4.179   2.833   7.884 -0.8563 -1.4321  0.6984
  132OSM   C15S14268   4.011   2.833   8.004 -0.1869  0.1292  0.4423
  132OSM   H15S14269   4.053   2.739   8.046 -0.4538 -0.5939 -0.8793
  132OSM   H15T14270   3.900   2.833   8.003 -0.1929 -0.2954  0.7833
  132OSM   C16S14271   4.034   2.944   8.107  0.3910  0.3648  0.1105
  132OSM   H16S14272   3.971   3.030   8.077  1.6088  1.1274 -0.3279
  132OSM   H16T14273   4.144   2.958   8.115  0.3929  0.2833  0.2217
  132OSM   C17S14274   3.968   2.926   8.247  0.4798 -0.1578 -0.5823
  132OSM   H17S14275   3.995   3.011   8.314  0.4264  0.5678 -1.4753
  132OSM   H17T14276   4.012   2.838   8.299  0.6767  0.4263  0.2543
  132OSM   C18S14277   3.806   2.919   8.242 -0.9527 -0.1573  0.1393
  132OSM   H18S14278   3.774   3.017   8.202 -0.7559 -0.1595 -0.0234
  132OSM   H18T14279   3.769   2.889   8.343 -1.4557 -0.7944 -0.2304
  132OSM   H18U14280   3.779   2.835   8.174  0.1264 -0.2708 -0.1564
  132OSM    C1F14281   4.069   2.185   6.817 -0.1123  0.1357 -0.1385
  132OSM     OF14282   4.164   2.124   6.766 -0.1814  0.1857  0.2731
  132OSM    C2F14283   3.988   2.145   6.941 -0.9748  0.0078  0.7505
  132OSM    H2F14284   3.880   2.150   6.920 -0.9486 -0.5984  0.4513
  132OSM    H2G14285   4.006   2.222   7.020  2.3789  0.0654  0.0097
  132OSM    C3F14286   4.009   1.999   6.990 -0.0514  0.1012 -0.3967
  132OSM    H3F14287   4.118   1.978   7.001 -0.3951 -1.4566  0.2170
  132OSM    H3G14288   3.978   1.924   6.914 -2.1021  1.5322 -1.0039
  132OSM    C4F14289   3.939   1.961   7.122  0.2288 -0.1753  0.2905
  132OSM    H4F14290   3.959   1.858   7.159  0.5014 -0.0205  0.5898
  132OSM    H4G14291   3.832   1.975   7.096  0.7042  0.3493 -1.3990
  132OSM    C5F14292   3.954   2.051   7.246 -0.5073  0.1759  0.3956
  132OSM    H5F14293   3.924   2.155   7.220  2.9763  0.7972 -1.5241
  132OSM    H5G14294   4.058   2.043   7.286 -1.0670 -0.6968  1.6992
  132OSM    C6F14295   3.870   1.992   7.361 -0.9084 -0.0993 -0.1767
  132OSM    H6F14296   3.886   1.882   7.365 -0.6266 -0.0686 -0.4462
  132OSM    H6G14297   3.765   2.009   7.331 -0.7964 -2.7211 -2.2788
  132OSM    C7F14298   3.909   2.054   7.493  0.0714 -1.0416  0.4119
  132OSM    H7F14299   3.939   2.159   7.470  2.7863 -1.6462  0.9431
  132OSM    H7G14300   3.990   1.995   7.542  1.8864  1.1314  0.1274
  132OSM    C8F14301   3.801   2.070   7.607 -0.3368 -0.0568  0.0790
  132OSM    H8F14302   3.743   1.975   7.610 -0.0119 -0.2635 -0.0913
  132OSM    H8G14303   3.735   2.145   7.558 -0.9719 -0.2858  0.5812
  132OSM    C9F14304   3.839   2.128   7.740 -0.4480 -0.2140 -0.0218
  132OSM    H9F14305   3.768   2.205   7.772  0.0029 -0.4669  1.6509
  132OSM   C10F14306   3.941   2.098   7.830  0.8006  0.0765  0.6309
  132OSM   H10F14307   3.940   2.155   7.923 -0.4612  1.3348 -0.1422
  132OSM   C11F14308   4.050   1.993   7.822  0.1662  0.4749  0.3090
  132OSM   H11F14309   4.147   2.046   7.826  0.7909 -0.6206  0.0007
  132OSM   H11G14310   4.053   1.938   7.725 -0.3711  1.6735 -0.3955
  132OSM   C12F14311   4.044   1.893   7.932  0.2654  0.2868  0.8935
  132OSM   H12F14312   3.952   1.831   7.924 -0.2156  1.0801  0.2155
  132OSM   H12G14313   4.046   1.939   8.033  0.9475  0.6993  0.6971
  132OSM   C13F14314   4.166   1.792   7.924  0.5993 -0.4054 -0.2082
  132OSM   H13F14315   4.251   1.855   7.891  0.6999 -0.0516  0.7246
  132OSM   H13G14316   4.141   1.708   7.856 -1.5540 -1.8616  2.2875
  132OSM   C14F14317   4.197   1.725   8.058  0.0060 -0.8382  0.6422
  132OSM   H14F14318   4.103   1.677   8.092 -0.3367  0.1777  1.1664
  132OSM   H14G14319   4.227   1.799   8.136 -1.5004  0.7865 -0.2904
  132OSM   C15F14320   4.293   1.605   8.047  0.6089 -0.1297  0.2467
  132OSM   H15F14321   4.372   1.644   7.979  0.2887  1.1269  0.5862
  132OSM   H15G14322   4.239   1.516   8.007  1.4869 -1.3117  1.6405
  132OSM   C16F14323   4.361   1.562   8.181  0.0114 -0.1988  0.3234
  132OSM   H16F14324   4.423   1.649   8.214 -1.6869  0.9096  0.6415
  132OSM   H16G14325   4.435   1.480   8.168 -1.5387 -1.8657  1.7371
  132OSM   C17F14326   4.267   1.542   8.296 -0.6176 -0.6118 -0.3241
  132OSM   H17F14327   4.204   1.451   8.289 -2.7345  0.7436  0.5602
  132OSM   H17G14328   4.192   1.624   8.299 -1.4415 -1.3690 -0.2541
  132OSM   C18F14329   4.344   1.546   8.433  0.3345 -0.8908 -0.0188
  132OSM   H18F14330   4.426   1.472   8.442  0.7349 -0.5700 -1.0382
  132OSM   H18G14331   4.265   1.537   8.511 -1.4131  0.8097 -1.5187
  132OSM   H18H14332   4.387   1.647   8.450 -2.9203  0.7028 -0.7840
  133OSM      N14333   4.748   2.477   6.057  0.1497  0.4858  0.5219
  133OSM    C1514334   4.680   2.372   5.977  0.0499 -0.7050  0.2508
  133OSM   H15A14335   4.669   2.285   6.039  0.2450  1.3176  3.2578
  133OSM   H15B14336   4.738   2.334   5.895  2.0821  1.9110  0.4049
  133OSM   H15C14337   4.581   2.401   5.946  0.6154  1.7355  0.5903
  133OSM    C1414338   4.885   2.423   6.090  0.8026 -0.7727 -0.0503
  133OSM   H14A14339   4.930   2.392   5.996  1.0353 -1.5979  0.3266
  133OSM   H14B14340   4.894   2.345   6.164  2.5707 -0.4134  0.1342
  133OSM   H14C14341   4.943   2.505   6.131 -0.3425  0.0594 -0.0930
  133OSM    C1314342   4.758   2.600   5.969 -0.2979  0.3867  0.4497
  133OSM   H13A14343   4.787   2.691   6.018 -0.3117  0.9724 -0.6054
  133OSM   H13B14344   4.670   2.630   5.915  1.0500 -0.5457 -2.3809
  133OSM   H13C14345   4.831   2.586   5.891 -1.0619 -1.3191  0.0135
  133OSM    C1214346   4.666   2.494   6.179  0.2862 -0.4842  0.4669
  133OSM   H12A14347   4.563   2.497   6.148  0.2169  1.3994  0.8252
  133OSM   H12B14348   4.681   2.592   6.222 -1.3224 -0.6176  1.3752
  133OSM    C1114349   4.666   2.392   6.295 -0.4730  1.0836 -0.5523
  133OSM   H11A14350   4.603   2.430   6.378 -1.1853 -0.9074 -0.1381
  133OSM   H11B14351   4.773   2.387   6.326 -0.3134 -0.2283 -1.2745
  133OSM      P14352   4.681   2.128   6.274 -0.2773 -0.0136  0.4590
  133OSM    O1314353   4.614   2.019   6.207  0.0195  0.5383 -0.4483
  133OSM    O1414354   4.823   2.146   6.250 -0.4872  0.0935 -0.1403
  133OSM    O1114355   4.657   2.095   6.425  0.1330 -0.4511 -0.5306
  133OSM    O1214356   4.615   2.272   6.245  0.0360  0.5603  0.4891
  133OSM    C1S14357   4.543   2.039   6.481 -0.0120 -0.0485 -0.3517
  133OSM    H1S14358   4.552   1.929   6.466  0.6864 -0.3376  1.9709
  133OSM    H1T14359   4.446   2.065   6.433  0.4822 -0.4358 -1.5773
  133OSM     NF14360   4.429   1.998   6.707  0.5439  0.6124  0.6368
  133OSM    HNF14361   4.365   2.055   6.758 -1.4449 -0.4948 -0.5453
  133OSM    C2S14362   4.533   2.071   6.636 -0.1005  0.1461 -0.3840
  133OSM    H2S14363   4.625   2.040   6.689 -1.0544 -2.4977 -0.2433
  133OSM    C3S14364   4.519   2.231   6.649  0.2435 -0.2143 -0.1525
  133OSM    H3S14365   4.420   2.257   6.608 -0.1623 -0.5783  0.5777
  133OSM     O314366   4.615   2.310   6.590  0.4492  0.5279  0.0147
  133OSM    HO314367   4.662   2.253   6.529  0.4964 -1.6546  2.0439
  133OSM    C4S14368   4.513   2.274   6.791  0.3825 -0.0761 -0.4414
  133OSM    H4S14369   4.605   2.246   6.845  0.2825  2.2859  1.0105
  133OSM    C5S14370   4.406   2.338   6.850  0.2749  0.3252  0.2464
  133OSM    H5S14371   4.319   2.358   6.785 -0.9659  2.3786  2.4513
  133OSM    C6S14372   4.397   2.378   6.996  0.1614 -0.7646  0.5307
  133OSM    H6S14373   4.389   2.486   7.017 -1.5678 -0.9823  1.1054
  133OSM    H6T14374   4.487   2.340   7.048  1.2656  0.4854 -0.4427
  133OSM    C7S14375   4.280   2.313   7.066  0.1388  0.5997  0.3631
  133OSM    H7S14376   4.281   2.203   7.050 -0.8322  0.7967 -1.1809
  133OSM    H7T14377   4.179   2.349   7.036 -0.8367 -3.3171 -1.4916
  133OSM    C8S14378   4.291   2.333   7.214 -0.0196 -0.7419  0.0165
  133OSM    H8S14379   4.392   2.307   7.252  0.5048  0.8276 -0.2998
  133OSM    H8T14380   4.214   2.264   7.254 -0.2488 -1.4567 -1.5996
  133OSM    C9S14381   4.252   2.461   7.269 -0.2560  0.4781  0.5815
  133OSM    H9S14382   4.185   2.504   7.192 -2.3414  0.9811  2.6362
  133OSM    H9T14383   4.332   2.535   7.288  1.4034 -0.9860 -0.5146
  133OSM   C10S14384   4.166   2.447   7.397  0.4199 -0.4350 -0.0733
  133OSM   H10S14385   4.097   2.360   7.397 -0.7172  0.4497  0.7945
  133OSM   H10T14386   4.098   2.534   7.410 -1.2367 -2.0018  2.2554
  133OSM   C11S14387   4.252   2.459   7.520  0.1302  0.3496 -0.4672
  133OSM   H11S14388   4.293   2.562   7.521  0.3068  0.2765  0.0321
  133OSM   H11T14389   4.337   2.388   7.513  1.3372  1.6186  1.0125
  133OSM   C12S14390   4.181   2.425   7.648 -0.4173 -1.2495  0.2345
  133OSM   H12S14391   4.135   2.324   7.652 -0.6604 -1.1599 -0.2602
  133OSM   H12T14392   4.089   2.487   7.649 -0.8916 -1.6953 -4.1181
  133OSM   C13S14393   4.257   2.462   7.783  0.0673  0.8891  0.3337
  133OSM   H13S14394   4.252   2.572   7.788  2.5025  1.0875 -0.8131
  133OSM   H13T14395   4.363   2.428   7.789  0.4094  2.3839  3.1615
  133OSM   C14S14396   4.190   2.422   7.918  0.1433  0.3326 -0.0428
  133OSM   H14S14397   4.205   2.314   7.939  1.5162  0.4880 -0.1695
  133OSM   H14T14398   4.080   2.418   7.909  0.2285 -0.7776 -0.7578
  133OSM   C15S14399   4.241   2.500   8.041  0.1966  0.9728  0.0927
  133OSM   H15S14400   4.238   2.608   8.016 -2.6118  0.6635 -1.0918
  133OSM   H15T14401   4.346   2.473   8.065 -0.0504  1.3434  1.6019
  133OSM   C16S14402   4.173   2.469   8.170  0.0021  0.4639 -0.3648
  133OSM   H16S14403   4.067   2.500   8.161  0.5196  2.1892 -0.6098
  133OSM   H16T14404   4.207   2.534   8.253 -0.2083  0.8126 -0.5551
  133OSM   C17S14405   4.187   2.320   8.227  0.1329  0.1571 -0.2088
  133OSM   H17S14406   4.289   2.320   8.272  0.2658 -0.4812 -0.5126
  133OSM   H17T14407   4.184   2.247   8.144 -0.3466 -0.1680  0.0945
  133OSM   C18S14408   4.094   2.291   8.343 -0.5359 -0.2386  0.6471
  133OSM   H18S14409   4.131   2.200   8.395 -0.4622  0.2283  1.4262
  133OSM   H18T14410   3.993   2.268   8.305 -0.8921  3.4059 -0.8158
  133OSM   H18U14411   4.089   2.375   8.416  2.0815  0.6207 -0.0846
  133OSM    C1F14412   4.424   1.866   6.719 -0.5730 -0.5909  0.7903
  133OSM     OF14413   4.512   1.801   6.664 -0.7042  0.4527 -0.5154
  133OSM    C2F14414   4.322   1.805   6.806 -0.0986 -0.1447 -0.1869
  133OSM    H2F14415   4.234   1.772   6.745 -2.5540 -0.8000  3.5277
  133OSM    H2G14416   4.280   1.888   6.866  0.1056  0.7546 -1.2582
  133OSM    C3F14417   4.385   1.704   6.898  0.1901  0.3460  0.4423
  133OSM    H3F14418   4.472   1.761   6.938  0.1668  0.1696  0.7474
  133OSM    H3G14419   4.414   1.610   6.846 -0.6118  0.0656  0.4864
  133OSM    C4F14420   4.284   1.675   7.018 -0.0844  0.4502 -0.9813
  133OSM    H4F14421   4.196   1.618   6.981  0.9038 -3.1383  1.9590
  133OSM    H4G14422   4.243   1.771   7.057 -2.4708  0.1537 -2.6520
  133OSM    C5F14423   4.351   1.600   7.133 -0.0392 -0.8499 -0.1075
  133OSM    H5F14424   4.418   1.664   7.194  3.6971 -2.4644 -2.3360
  133OSM    H5G14425   4.424   1.535   7.081  0.4723 -1.3202  1.1918
  133OSM    C6F14426   4.239   1.534   7.216  0.0559 -0.0786  0.4987
  133OSM    H6F14427   4.282   1.450   7.275  0.2586 -0.1125  0.3047
  133OSM    H6G14428   4.153   1.494   7.158  1.1397 -1.0848 -0.4305
  133OSM    C7F14429   4.164   1.621   7.320  0.2321  0.3334 -0.6560
  133OSM    H7F14430   4.091   1.691   7.274 -1.2030  1.2037  2.7506
  133OSM    H7G14431   4.245   1.677   7.372 -0.2998 -0.3276  0.9097
  133OSM    C8F14432   4.096   1.551   7.441 -0.1885 -0.1112  0.4055
  133OSM    H8F14433   4.162   1.494   7.509  0.9265 -1.3131 -1.6091
  133OSM    H8G14434   4.029   1.470   7.403  0.5687 -0.8346  0.6089
  133OSM    C9F14435   4.020   1.665   7.515 -0.1511  0.3045 -0.3758
  133OSM    H9F14436   4.037   1.771   7.487  0.7874  0.6681  1.4341
  133OSM   C10F14437   3.936   1.639   7.622 -0.0794  0.5094 -0.4299
  133OSM   H10F14438   3.887   1.717   7.682 -1.6755 -0.5095 -0.3546
  133OSM   C11F14439   3.903   1.502   7.675  0.0244  0.3479 -0.0336
  133OSM   H11F14440   3.977   1.463   7.748 -3.7861 -1.3686  3.0099
  133OSM   H11G14441   3.884   1.425   7.598  3.2149 -1.5938  1.0144
  133OSM   C12F14442   3.779   1.525   7.771 -0.2586 -0.0881 -0.0857
  133OSM   H12F14443   3.703   1.582   7.714 -0.9322 -1.4990 -0.6073
  133OSM   H12G14444   3.808   1.582   7.862 -1.0737  0.2913 -0.0568
  133OSM   C13F14445   3.717   1.394   7.807 -0.4267 -0.4238  0.7332
  133OSM   H13F14446   3.802   1.325   7.825  2.5549  2.8480 -0.2115
  133OSM   H13G14447   3.672   1.349   7.716 -0.8422  0.5470  0.4488
  133OSM   C14F14448   3.643   1.409   7.942 -0.2327  0.3005  0.0771
  133OSM   H14F14449   3.549   1.469   7.942  0.3651  1.2780  2.5005
  133OSM   H14G14450   3.716   1.458   8.009  0.8513 -0.8520 -0.2334
  133OSM   C15F14451   3.615   1.273   8.004  0.5885 -0.1188  0.3316
  133OSM   H15F14452   3.709   1.214   8.012  1.0665  0.4218 -1.2022
  133OSM   H15G14453   3.540   1.228   7.936  1.6220 -0.0584 -0.8741
  133OSM   C16F14454   3.560   1.283   8.146  0.3180  0.0806 -0.5131
  133OSM   H16F14455   3.528   1.180   8.174  1.0249  0.1496  0.5785
  133OSM   H16G14456   3.476   1.355   8.145  0.2626  0.0059 -1.7746
  133OSM   C17F14457   3.661   1.331   8.254  0.0489  0.2213 -0.4226
  133OSM   H17F14458   3.711   1.421   8.215 -1.3044  0.1646 -2.3352
  133OSM   H17G14459   3.736   1.249   8.254  1.8191  1.8124 -0.4801
  133OSM   C18F14460   3.587   1.353   8.385  0.3277  0.3032  0.1640
  133OSM   H18F14461   3.651   1.404   8.461 -1.3281  2.4480  0.1608
  133OSM   H18G14462   3.545   1.259   8.426  2.2069 -0.5217  0.2613
  133OSM   H18H14463   3.497   1.417   8.376 -0.1646 -0.5250 -0.8570
  134OSM      N14464   5.040   5.598   6.226  0.1554 -0.8366  0.0385
  134OSM    C1514465   5.169   5.677   6.209 -0.7557 -0.1511  0.4719
  134OSM   H15A14466   5.221   5.672   6.304 -0.7393 -1.3474  0.4067
  134OSM   H15B14467   5.150   5.781   6.187  1.5256  0.5419  1.5982
  134OSM   H15C14468   5.237   5.641   6.134 -0.3808  1.0485  0.2361
  134OSM    C1414469   4.955   5.662   6.324 -0.6769  0.3564 -0.2897
  134OSM   H14A14470   5.003   5.681   6.419 -0.2625  0.6072 -0.5460
  134OSM   H14B14471   4.860   5.613   6.338 -1.2093  1.5572  0.4627
  134OSM   H14C14472   4.934   5.764   6.293 -2.3579 -0.6390 -2.5613
  134OSM    C1314473   4.961   5.598   6.093  0.0286 -0.5831 -0.5635
  134OSM   H13A14474   4.933   5.695   6.056 -2.6138 -0.7638  0.8831
  134OSM   H13B14475   4.866   5.552   6.117 -0.3905  0.3772 -0.3696
  134OSM   H13C14476   5.010   5.563   6.003  0.0707  0.6780 -1.0270
  134OSM    C1214477   5.073   5.455   6.261  0.6305  0.6196  0.5305
  134OSM   H12A14478   5.136   5.419   6.181 -0.5513 -0.5772  0.1072
  134OSM   H12B14479   4.984   5.393   6.257  0.4357  0.9770 -1.1732
  134OSM    C1114480   5.157   5.415   6.384  0.1537  0.5621  0.9412
  134OSM   H11A14481   5.144   5.306   6.401 -0.0653  0.4874  0.3273
  134OSM   H11B14482   5.115   5.460   6.476  0.5411  0.1016  1.3449
  134OSM      P14483   5.383   5.330   6.290 -0.1796 -0.0919  0.2709
  134OSM    O1314484   5.317   5.289   6.166  0.0939  0.0593 -0.0734
  134OSM    O1414485   5.521   5.378   6.277 -0.4154 -0.5972 -0.3820
  134OSM    O1114486   5.378   5.209   6.396  0.2484  0.1556 -0.1592
  134OSM    O1214487   5.301   5.445   6.366  0.2237 -0.3341  0.5588
  134OSM    C1S14488   5.397   5.226   6.536 -0.5517  0.4279  0.2334
  134OSM    H1S14489   5.315   5.268   6.597 -0.9609 -0.8648  0.5956
  134OSM    H1T14490   5.481   5.296   6.558 -0.0470  0.1907 -0.9355
  134OSM     NF14491   5.456   5.114   6.745 -0.1881 -0.7436  0.1032
  134OSM    HNF14492   5.547   5.151   6.763 -0.6901  0.3273  0.5003
  134OSM    C2S14493   5.434   5.093   6.605 -0.1985  0.0688 -0.0125
  134OSM    H2S14494   5.352   5.019   6.595  0.1169 -0.6279  2.2304
  134OSM    C3S14495   5.555   5.022   6.528  0.5097  0.3624  0.0453
  134OSM    H3S14496   5.646   5.084   6.544  0.9655 -0.5615  1.1001
  134OSM     O314497   5.528   5.004   6.385  0.0322  0.2452 -0.4164
  134OSM    HO314498   5.447   5.053   6.369 -2.0267 -3.4014 -1.8132
  134OSM    C4S14499   5.574   4.883   6.597  0.5766  0.4376  0.0250
  134OSM    H4S14500   5.653   4.896   6.672 -0.5530 -0.0613  1.3161
  134OSM    C5S14501   5.516   4.764   6.562 -0.1319  0.7101 -0.7956
  134OSM    H5S14502   5.466   4.749   6.465  1.4901  0.7562 -1.6606
  134OSM    C6S14503   5.528   4.637   6.636  0.3648  0.0120 -0.3626
  134OSM    H6S14504   5.612   4.637   6.709  0.0477 -1.7020  0.0266
  134OSM    H6T14505   5.552   4.557   6.563 -1.1424 -0.8085  0.0117
  134OSM    C7S14506   5.405   4.591   6.725 -0.0355 -0.2000 -0.1646
  134OSM    H7S14507   5.403   4.480   6.737  1.5739 -0.3372 -1.0138
  134OSM    H7T14508   5.312   4.614   6.668  0.0215 -1.1404 -0.6545
  134OSM    C8S14509   5.401   4.658   6.861  0.0780  0.1020 -0.1408
  134OSM    H8S14510   5.296   4.665   6.895 -0.9282 -1.4047 -2.7653
  134OSM    H8T14511   5.429   4.765   6.853 -2.9225  0.8574 -1.2458
  134OSM    C9S14512   5.469   4.579   6.970 -0.2351  0.2083 -0.5658
  134OSM    H9S14513   5.574   4.552   6.945  0.4286  2.8090 -0.7228
  134OSM    H9T14514   5.419   4.482   6.988 -0.0655  0.1051 -0.6430
  134OSM   C10S14515   5.473   4.651   7.101 -0.3508 -0.6086 -0.1507
  134OSM   H10S14516   5.371   4.687   7.126 -0.4669 -2.4234  2.0830
  134OSM   H10T14517   5.530   4.747   7.093  0.5260 -0.7072  3.9362
  134OSM   C11S14518   5.527   4.560   7.212  0.2158 -0.1561  0.1185
  134OSM   H11S14519   5.634   4.544   7.190 -0.0730 -1.9848 -0.0212
  134OSM   H11T14520   5.484   4.458   7.203  0.1754 -0.0420 -1.0638
  134OSM   C12S14521   5.515   4.615   7.348  0.2158 -0.7100 -0.3197
  134OSM   H12S14522   5.408   4.620   7.376  0.5045 -1.0270  0.8430
  134OSM   H12T14523   5.557   4.718   7.349  1.3487 -1.1758  0.3519
  134OSM   C13S14524   5.584   4.539   7.458  0.0962  0.4401 -0.0841
  134OSM   H13S14525   5.693   4.555   7.450 -0.1369  2.1148 -0.0430
  134OSM   H13T14526   5.585   4.431   7.434  2.5141  0.9122 -2.3309
  134OSM   C14S14527   5.535   4.564   7.606 -0.2196 -0.0627 -0.2967
  134OSM   H14S14528   5.424   4.558   7.610 -0.3819  1.1970 -2.2168
  134OSM   H14T14529   5.548   4.672   7.629 -0.8260  0.1618 -0.9918
  134OSM   C15S14530   5.598   4.473   7.709 -0.2754  0.5439  0.2608
  134OSM   H15S14531   5.706   4.494   7.719 -0.6507  1.5307  2.4575
  134OSM   H15T14532   5.579   4.369   7.675 -3.2392  1.7979 -2.1716
  134OSM   C16S14533   5.547   4.488   7.852  0.7112  0.1044 -0.4188
  134OSM   H16S14534   5.437   4.493   7.863  0.4445 -1.2859 -2.0656
  134OSM   H16T14535   5.589   4.587   7.879  1.8957 -0.0336 -1.6574
  134OSM   C17S14536   5.613   4.389   7.943  0.8997 -0.0073  0.6375
  134OSM   H17S14537   5.723   4.398   7.944  0.8546  0.5670  4.2073
  134OSM   H17T14538   5.606   4.280   7.919 -1.2817 -0.0096  1.2051
  134OSM   C18S14539   5.559   4.405   8.087 -0.3155  0.3349 -0.6514
  134OSM   H18S14540   5.455   4.374   8.108  0.0841  0.9392  2.4979
  134OSM   H18T14541   5.557   4.511   8.120 -0.8165  0.2423 -0.3844
  134OSM   H18U14542   5.628   4.343   8.148 -1.6838 -1.2317 -0.6624
  134OSM    C1F14543   5.365   5.128   6.834  0.0860  0.2114  0.2140
  134OSM     OF14544   5.248   5.144   6.801 -0.6830 -0.4544 -0.1367
  134OSM    C2F14545   5.411   5.137   6.976 -0.2347 -0.7428  0.1615
  134OSM    H2F14546   5.413   5.243   7.008  1.0337 -0.9669  0.8742
  134OSM    H2G14547   5.512   5.091   6.985  0.8592  1.0792 -2.4577
  134OSM    C3F14548   5.312   5.076   7.070  0.2521  0.6337 -0.4205
  134OSM    H3F14549   5.287   4.972   7.037  3.9565 -1.1461  1.9744
  134OSM    H3G14550   5.231   5.150   7.078 -0.1391  0.0710  0.8874
  134OSM    C4F14551   5.364   5.032   7.211  0.8853  0.2331 -0.3338
  134OSM    H4F14552   5.452   4.965   7.209  2.0891  1.7307  0.6783
  134OSM    H4G14553   5.287   4.964   7.254  1.3922  0.6424  1.2324
  134OSM    C5F14554   5.381   5.153   7.305 -0.5561 -0.3338  0.4216
  134OSM    H5F14555   5.282   5.201   7.320  0.2555  1.5715 -0.2439
  134OSM    H5G14556   5.451   5.221   7.252  0.3635 -1.4980  0.1295
  134OSM    C6F14557   5.456   5.106   7.433  0.0057  0.4254  0.3120
  134OSM    H6F14558   5.567   5.109   7.432  0.1081 -1.5903  1.9107
  134OSM    H6G14559   5.435   4.998   7.451 -2.4976  0.9363  0.5603
  134OSM    C7F14560   5.415   5.177   7.568 -0.1445  0.3162  0.1968
  134OSM    H7F14561   5.307   5.158   7.589  0.1620 -0.3772  1.2127
  134OSM    H7G14562   5.424   5.285   7.547 -1.3144  0.1984 -1.0295
  134OSM    C8F14563   5.514   5.130   7.679  0.2524 -0.0971 -0.0335
  134OSM    H8F14564   5.619   5.155   7.656  0.1702 -0.0570 -0.3638
  134OSM    H8G14565   5.519   5.019   7.669  1.4292  0.0984 -1.7891
  134OSM    C9F14566   5.479   5.170   7.823  0.4273 -0.2366  1.1346
  134OSM    H9F14567   5.491   5.278   7.838 -0.6572  0.2788 -1.3713
  134OSM   C10F14568   5.410   5.096   7.912 -0.1188  0.8111 -0.3397
  134OSM   H10F14569   5.385   5.134   8.012  1.2084  0.7154  0.0401
  134OSM   C11F14570   5.357   4.957   7.893  0.6234 -0.1909 -0.1962
  134OSM   H11F14571   5.334   4.937   7.786 -0.6237 -2.1198  0.4051
  134OSM   H11G14572   5.263   4.943   7.950 -0.1870 -3.1959 -2.1152
  134OSM   C12F14573   5.464   4.850   7.928  0.1446 -0.3282  0.7283
  134OSM   H12F14574   5.548   4.864   7.857 -1.8084 -0.7255 -1.7504
  134OSM   H12G14575   5.426   4.748   7.905 -0.8728  0.1859  0.1087
  134OSM   C13F14576   5.506   4.840   8.079 -0.1722 -0.2674  0.8107
  134OSM   H13F14577   5.533   4.936   8.128  0.4905 -1.3538  2.6210
  134OSM   H13G14578   5.599   4.779   8.084  0.2976  0.3494 -0.1375
  134OSM   C14F14579   5.388   4.772   8.151  0.5538 -0.1285  0.4376
  134OSM   H14F14580   5.369   4.678   8.095 -1.0243  0.7267 -0.5032
  134OSM   H14G14581   5.302   4.842   8.137  2.4180  2.2593  0.5188
  134OSM   C15F14582   5.404   4.768   8.296 -0.5018  0.0281  0.3409
  134OSM   H15F14583   5.435   4.867   8.337 -1.0701  0.4183 -0.1705
  134OSM   H15G14584   5.491   4.705   8.323  0.9115  1.4074 -0.8615
  134OSM   C16F14585   5.274   4.710   8.360 -0.6183  0.2291 -0.1039
  134OSM   H16F14586   5.253   4.617   8.304 -1.4860  0.7641 -0.6838
  134OSM   H16G14587   5.192   4.780   8.333 -0.7273  0.4764  0.8548
  134OSM   C17F14588   5.273   4.692   8.513  1.8507  0.7085  0.8687
  134OSM   H17F14589   5.309   4.785   8.561  1.1591  1.2921  0.2665
  134OSM   H17G14590   5.352   4.624   8.551  3.3347  1.7411 -0.3063
  134OSM   C18F14591   5.136   4.648   8.558  0.4814  0.6770 -0.3846
  134OSM   H18F14592   5.116   4.632   8.666  2.0593  2.0039  0.1208
  134OSM   H18G14593   5.125   4.549   8.510 -0.6808 -0.3987  2.0032
  134OSM   H18H14594   5.060   4.718   8.517  0.8046  0.8342 -0.7134
  135OSM      N14595   5.062   4.778   6.190  0.2605 -0.4641 -0.2552
  135OSM    C1514596   4.973   4.852   6.094 -0.9141 -0.2562  0.6127
  135OSM   H15A14597   4.986   4.956   6.117  2.8490 -0.8292  1.3289
  135OSM   H15B14598   4.867   4.841   6.111 -1.3353  2.0149 -0.3034
  135OSM   H15C14599   4.992   4.827   5.990  0.0101 -0.6236  0.8615
  135OSM    C1414600   5.055   4.627   6.150  0.0610  0.3360  0.2757
  135OSM   H14A14601   5.108   4.606   6.059  2.0671  1.8444  1.0603
  135OSM   H14B14602   4.954   4.590   6.141  0.9253 -1.5474 -2.3367
  135OSM   H14C14603   5.094   4.571   6.233  1.5890 -1.0933 -1.3814
  135OSM    C1314604   5.203   4.827   6.179  0.9451 -0.4663  0.4714
  135OSM   H13A14605   5.224   4.821   6.073  0.1329  1.0794  0.2148
  135OSM   H13B14606   5.257   4.753   6.236 -0.1350  1.2741  3.8741
  135OSM   H13C14607   5.214   4.927   6.217 -4.3521  0.6893 -0.5948
  135OSM    C1214608   5.018   4.796   6.332  0.1582 -0.1485 -0.4072
  135OSM   H12A14609   5.061   4.724   6.400  2.3360  1.2607 -0.2506
  135OSM   H12B14610   4.911   4.780   6.333 -0.4018  3.3021  1.3660
  135OSM    C1114611   5.033   4.942   6.397  0.1126 -0.0316 -0.4071
  135OSM   H11A14612   5.142   4.963   6.389 -0.3254  2.2601 -0.6905
  135OSM   H11B14613   5.024   4.942   6.507 -0.9456 -1.0845 -0.4854
  135OSM      P14614   4.810   5.069   6.363  0.0725 -0.0722 -0.3677
  135OSM    O1314615   4.763   5.189   6.288  0.8196  0.1656 -0.3148
  135OSM    O1414616   4.724   4.949   6.354  0.0836  0.0456 -0.2143
  135OSM    O1114617   4.796   5.106   6.519  0.0594 -0.3731 -0.2126
  135OSM    O1214618   4.966   5.049   6.330  0.1416  0.2837 -0.2473
  135OSM    C1S14619   4.890   5.207   6.564 -0.1216 -0.0611 -0.4893
  135OSM    H1S14620   4.866   5.307   6.522  0.3439  0.4917  0.5375
  135OSM    H1T14621   4.993   5.168   6.547 -0.1983  0.2649 -1.6946
  135OSM     NF14622   5.020   5.306   6.744  0.2248 -0.1045 -0.3990
  135OSM    HNF14623   5.099   5.256   6.780  0.2631  1.5170  1.8374
  135OSM    C2S14624   4.897   5.229   6.720 -1.3262  0.3334  0.1543
  135OSM    H2S14625   4.811   5.285   6.763 -3.1928 -0.1517 -2.7961
  135OSM    C3S14626   4.900   5.088   6.802  0.0867  0.4944  0.7181
  135OSM    H3S14627   4.993   5.038   6.768  0.6501  2.6058 -0.9537
  135OSM     O314628   4.793   4.995   6.762  0.0003  0.0298  0.6318
  135OSM    HO314629   4.739   5.048   6.703 -0.4034  0.4185  1.3433
  135OSM    C4S14630   4.904   5.110   6.953  0.5081  0.2152 -0.0861
  135OSM    H4S14631   4.999   5.142   7.000 -0.2640  0.4839  1.3163
  135OSM    C5S14632   4.808   5.089   7.045  0.2482 -0.0484 -0.5526
  135OSM    H5S14633   4.707   5.055   7.022 -0.5803  0.4958  2.0678
  135OSM    C6S14634   4.838   5.112   7.192 -0.6489  0.3192 -0.2186
  135OSM    H6S14635   4.910   5.194   7.212 -0.8693  1.1338 -2.6180
  135OSM    H6T14636   4.877   5.022   7.245 -0.1853  0.8743  0.3843
  135OSM    C7S14637   4.720   5.166   7.273 -0.1789 -0.6782  0.3619
  135OSM    H7S14638   4.651   5.079   7.277 -0.6938 -0.2210  1.4259
  135OSM    H7T14639   4.683   5.260   7.227 -3.8247 -3.4083 -2.5978
  135OSM    C8S14640   4.752   5.208   7.419 -0.0703  0.7278  0.3001
  135OSM    H8S14641   4.664   5.265   7.456 -2.4962 -2.6051 -0.1162
  135OSM    H8T14642   4.842   5.274   7.426  1.3469 -0.9003 -1.7506
  135OSM    C9S14643   4.759   5.093   7.517 -0.0482  1.1619 -0.2822
  135OSM    H9S14644   4.822   5.010   7.477 -0.3810  0.8810 -0.2292
  135OSM    H9T14645   4.659   5.047   7.526  1.2610 -2.0108 -1.0499
  135OSM   C10S14646   4.816   5.129   7.659  0.2022 -0.0775 -0.9918
  135OSM   H10S14647   4.763   5.219   7.697  1.1778  0.3118 -0.5194
  135OSM   H10T14648   4.923   5.158   7.667 -0.5895  2.3714  1.5652
  135OSM   C11S14649   4.806   5.009   7.761 -0.2409 -0.0293  0.0992
  135OSM   H11S14650   4.877   4.933   7.722 -1.2598 -0.9579  0.0390
  135OSM   H11T14651   4.712   4.951   7.749 -0.3099  0.2873 -0.9923
  135OSM   C12S14652   4.826   5.050   7.912 -0.0328  0.4269 -0.3047
  135OSM   H12S14653   4.749   5.128   7.929 -1.0050 -0.9658  1.8118
  135OSM   H12T14654   4.928   5.095   7.920  0.1326  0.1293 -0.6997
  135OSM   C13S14655   4.798   4.941   8.005 -0.4542  0.8176 -0.4205
  135OSM   H13S14656   4.849   4.850   7.967  1.8566  0.5617  3.0778
  135OSM   H13T14657   4.691   4.913   8.017  0.0401 -1.0202 -0.1868
  135OSM   C14S14658   4.838   4.968   8.150  0.6632  0.7417  0.0787
  135OSM   H14S14659   4.813   4.874   8.203 -0.8469  2.1621  1.9716
  135OSM   H14T14660   4.788   5.049   8.208  1.6230  1.9440 -0.7271
  135OSM   C15S14661   4.989   4.996   8.185 -1.3106 -0.1521 -0.4825
  135OSM   H15S14662   5.031   5.077   8.122  0.5508 -0.7305 -0.0029
  135OSM   H15T14663   5.043   4.903   8.158 -0.1619  0.3135  0.2071
  135OSM   C16S14664   5.009   5.035   8.334  0.0798  0.0211 -0.1264
  135OSM   H16S14665   4.969   4.947   8.389  0.7787 -0.9141 -1.1044
  135OSM   H16T14666   4.943   5.122   8.357  0.4062 -0.0749  1.1951
  135OSM   C17S14667   5.155   5.070   8.365  0.9808  0.5881 -0.5941
  135OSM   H17S14668   5.176   5.142   8.283  3.3501 -1.7735 -2.1386
  135OSM   H17T14669   5.216   4.981   8.337  0.8226 -0.3935  2.0924
  135OSM   C18S14670   5.187   5.103   8.504 -0.1480 -0.0655  0.4146
  135OSM   H18S14671   5.115   5.181   8.538 -1.1195 -1.3877  1.4469
  135OSM   H18T14672   5.292   5.133   8.520 -0.5492  1.5316  0.1816
  135OSM   H18U14673   5.177   5.018   8.575  1.0217 -0.8808 -0.3824
  135OSM    C1F14674   5.022   5.439   6.725  0.3790 -0.3325 -0.0409
  135OSM     OF14675   4.933   5.508   6.676 -0.1798 -0.1800  0.1596
  135OSM    C2F14676   5.150   5.501   6.757  0.0658  0.0564  0.2398
  135OSM    H2F14677   5.150   5.609   6.729 -1.0519 -0.0337 -0.1332
  135OSM    H2G14678   5.233   5.449   6.706  0.5108  0.7683  0.2355
  135OSM    C3F14679   5.189   5.487   6.905  0.0388 -0.2758  0.0411
  135OSM    H3F14680   5.215   5.381   6.923 -0.5883 -0.8001 -1.8979
  135OSM    H3G14681   5.100   5.512   6.967  0.7764  2.3992  0.0766
  135OSM    C4F14682   5.304   5.578   6.954  0.1600  0.3085 -0.2697
  135OSM    H4F14683   5.277   5.684   6.939 -0.7389 -0.0203 -1.0068
  135OSM    H4G14684   5.399   5.567   6.897  1.0970 -1.1596  1.5064
  135OSM    C5F14685   5.322   5.574   7.110 -0.1731 -0.5382  0.5286
  135OSM    H5F14686   5.407   5.642   7.132  0.0882 -0.5818 -0.2925
  135OSM    H5G14687   5.357   5.471   7.133  1.1540 -0.5170 -1.2701
  135OSM    C6F14688   5.197   5.610   7.186 -0.2582 -0.2670  0.2944
  135OSM    H6F14689   5.126   5.526   7.196  2.3958 -2.9567 -2.3808
  135OSM    H6G14690   5.153   5.700   7.138  3.2623  1.7672  0.7007
  135OSM    C7F14691   5.221   5.651   7.338  0.1764 -0.6033  0.5611
  135OSM    H7F14692   5.145   5.722   7.378  0.8129  1.1718 -1.3285
  135OSM    H7G14693   5.317   5.707   7.337 -0.1289 -0.0909 -0.3620
  135OSM    C8F14694   5.213   5.537   7.438 -0.2257 -0.2072 -0.1596
  135OSM    H8F14695   5.271   5.455   7.390 -1.3323 -0.2335 -1.4718
  135OSM    H8G14696   5.107   5.507   7.444 -0.7040  1.0130 -2.0400
  135OSM    C9F14697   5.264   5.576   7.574 -0.3993  0.3174  0.3982
  135OSM    H9F14698   5.307   5.677   7.566 -1.0933  0.7529  2.0176
  135OSM   C10F14699   5.226   5.531   7.692 -0.0003  0.9431 -0.0080
  135OSM   H10F14700   5.270   5.580   7.780  1.0123 -0.2833  0.1831
  135OSM   C11F14701   5.122   5.412   7.732  0.2102  0.3111  0.0551
  135OSM   H11F14702   5.178   5.315   7.738 -1.3986 -0.6310  0.1374
  135OSM   H11G14703   5.038   5.404   7.660  0.7559  0.5678 -0.6153
  135OSM   C12F14704   5.062   5.442   7.875 -0.3085 -0.1396  0.5371
  135OSM   H12F14705   4.969   5.389   7.905 -0.4617  0.5070  1.2180
  135OSM   H12G14706   5.041   5.551   7.873 -0.6698 -0.1983  0.9436
  135OSM   C13F14707   5.159   5.398   7.984  0.2685  0.7517 -0.1791
  135OSM   H13F14708   5.254   5.450   7.959  1.4117 -1.8848 -1.5452
  135OSM   H13G14709   5.184   5.290   7.979 -1.4158  0.4436 -2.1151
  135OSM   C14F14710   5.117   5.431   8.127 -0.4728  0.1458 -0.1857
  135OSM   H14F14711   5.049   5.355   8.170 -2.5373  0.0682 -3.4403
  135OSM   H14G14712   5.065   5.529   8.121  2.2100  1.6634  0.3267
  135OSM   C15F14713   5.232   5.446   8.234 -0.2245 -0.1109 -0.4086
  135OSM   H15F14714   5.326   5.473   8.182  0.0326  0.1567  0.1823
  135OSM   H15G14715   5.240   5.346   8.282  0.7874 -0.0305 -0.3976
  135OSM   C16F14716   5.196   5.539   8.349 -0.0395  0.1447 -0.0413
  135OSM   H16F14717   5.149   5.479   8.430 -0.3693 -0.5384 -0.7325
  135OSM   H16G14718   5.132   5.626   8.325  0.8335  1.4050  2.0369
  135OSM   C17F14719   5.332   5.606   8.388  0.8034  0.3291  0.2709
  135OSM   H17F14720   5.345   5.699   8.328  1.3278  1.0744  1.5364
  135OSM   H17G14721   5.415   5.536   8.366 -0.3658 -0.9071 -0.2715
  135OSM   C18F14722   5.334   5.655   8.530 -0.3499  0.1503  0.1112
  135OSM   H18F14723   5.233   5.692   8.557 -0.5622 -1.8936  2.2984
  135OSM   H18G14724   5.404   5.735   8.564  0.1562 -0.8189  1.4118
  135OSM   H18H14725   5.358   5.564   8.590  0.8300  0.0836 -0.4408
  136OSM      N14726   2.643   5.522   6.166  0.0259  0.1014  0.7497
  136OSM    C1514727   2.570   5.449   6.265  0.4265  0.2099 -0.0051
  136OSM   H15A14728   2.547   5.512   6.350  1.1868 -0.4304  0.6822
  136OSM   H15B14729   2.636   5.369   6.296  1.5140 -0.2096 -3.2631
  136OSM   H15C14730   2.481   5.405   6.221  0.0466 -0.2919  1.2411
  136OSM    C1414731   2.788   5.513   6.205  0.1050 -0.4416 -0.7399
  136OSM   H14A14732   2.806   5.563   6.299 -1.4087  0.6222 -0.9778
  136OSM   H14B14733   2.848   5.553   6.125 -1.4079  0.5953 -1.3816
  136OSM   H14C14734   2.828   5.414   6.217 -2.1036 -1.1962  0.7826
  136OSM    C1314735   2.634   5.443   6.027 -0.2758 -0.0257  0.7216
  136OSM   H13A14736   2.663   5.340   6.042 -0.5739 -0.1283  0.5829
  136OSM   H13B14737   2.699   5.489   5.954  0.0897  0.9189  1.6215
  136OSM   H13C14738   2.534   5.429   5.988  1.2643 -1.3859 -2.9702
  136OSM    C1214739   2.597   5.662   6.151 -0.7522 -0.3613  0.6130
  136OSM   H12A14740   2.510   5.665   6.087 -0.2322 -0.4012 -0.1025
  136OSM   H12B14741   2.668   5.711   6.087 -0.1286 -0.9835  0.8256
  136OSM    C1114742   2.583   5.744   6.278  0.7504  0.2626  1.0702
  136OSM   H11A14743   2.533   5.685   6.358 -0.7000 -0.5412 -0.4009
  136OSM   H11B14744   2.522   5.837   6.269 -2.4335 -2.0929 -3.4842
  136OSM      P14745   2.795   5.888   6.259  0.0793  0.3429  0.4013
  136OSM    O1314746   2.926   5.925   6.325  0.6008  0.9437  0.2535
  136OSM    O1414747   2.790   5.876   6.115  0.6173 -0.1776  0.3595
  136OSM    O1114748   2.710   6.011   6.297  0.2562  0.4331  0.0361
  136OSM    O1214749   2.721   5.765   6.318 -0.1224  0.2542  0.2279
  136OSM    C1S14750   2.654   6.022   6.434 -0.1289 -0.4349  0.2685
  136OSM    H1S14751   2.618   5.925   6.476 -0.1697  0.7343  3.0398
  136OSM    H1T14752   2.575   6.099   6.422  0.4276  0.0545 -0.2736
  136OSM     NF14753   2.710   6.077   6.670  0.8719  0.1279  0.0842
  136OSM    HNF14754   2.656   6.152   6.709 -1.7650 -1.7613  0.2174
  136OSM    C2S14755   2.748   6.091   6.531  0.1432 -0.0086  0.1502
  136OSM    H2S14756   2.852   6.054   6.525 -0.9999 -3.5971  0.8702
  136OSM    C3S14757   2.760   6.242   6.482 -0.1943 -0.2184  0.6057
  136OSM    H3S14758   2.660   6.290   6.493  0.3021  1.2973 -1.2969
  136OSM     O314759   2.808   6.259   6.347 -0.1119  0.4897 -0.0424
  136OSM    HO314760   2.804   6.173   6.306  2.0624 -0.8039  2.3363
  136OSM    C4S14761   2.856   6.322   6.574 -0.1706 -0.1232 -0.2243
  136OSM    H4S14762   2.958   6.322   6.533 -0.2152  2.1882 -0.4131
  136OSM    C5S14763   2.829   6.416   6.665 -1.0545 -0.9474  0.0634
  136OSM    H5S14764   2.727   6.455   6.680 -0.6118  0.4111 -0.3393
  136OSM    C6S14765   2.937   6.495   6.726 -0.3939  0.1004 -1.2587
  136OSM    H6S14766   2.906   6.602   6.722 -1.0327 -0.0415 -0.2616
  136OSM    H6T14767   3.033   6.475   6.674  0.2491  0.0782 -0.0678
  136OSM    C7S14768   2.960   6.470   6.876  0.0702 -0.2431 -0.2600
  136OSM    H7S14769   2.877   6.520   6.932 -0.9190 -2.4955  0.3724
  136OSM    H7T14770   3.053   6.521   6.909 -1.4487  2.5301 -0.1078
  136OSM    C8S14771   2.958   6.325   6.935  0.0473 -1.2767 -0.5309
  136OSM    H8S14772   3.016   6.258   6.868 -1.7084 -2.5521 -0.7827
  136OSM    H8T14773   2.851   6.297   6.931 -0.6098  0.5660  2.3919
  136OSM    C9S14774   3.029   6.308   7.070  0.2956 -0.2914 -0.0729
  136OSM    H9S14775   3.124   6.365   7.061  1.1539 -1.8938 -1.3554
  136OSM    H9T14776   3.043   6.201   7.096  0.7715  0.0363  1.0657
  136OSM   C10S14777   2.952   6.364   7.195 -0.3820 -0.1116  0.2513
  136OSM   H10S14778   2.853   6.315   7.207  0.1862 -1.3655 -0.1850
  136OSM   H10T14779   2.942   6.475   7.188  2.3998  0.2748  1.9696
  136OSM   C11S14780   3.041   6.346   7.318  0.2484  0.4979 -0.4635
  136OSM   H11S14781   3.135   6.401   7.297 -0.8763  2.3860 -0.7019
  136OSM   H11T14782   3.059   6.237   7.321 -1.3362  0.2437  0.6989
  136OSM   C12S14783   2.991   6.393   7.452 -0.0486  0.2544  0.2597
  136OSM   H12S14784   2.898   6.334   7.470  0.2042 -0.5251 -0.9618
  136OSM   H12T14785   2.950   6.496   7.445  0.7643  0.6033  0.6618
  136OSM   C13S14786   3.092   6.387   7.566  0.3064  0.3076  0.2178
  136OSM   H13S14787   3.167   6.468   7.552  0.2632  0.6852  2.0367
  136OSM   H13T14788   3.147   6.291   7.571  1.8895  1.1726 -0.1143
  136OSM   C14S14789   3.015   6.411   7.692  0.3033 -0.1541 -0.8869
  136OSM   H14S14790   2.973   6.313   7.722 -1.5250  1.0158  0.5010
  136OSM   H14T14791   2.938   6.490   7.679 -0.3333 -0.5620  0.2697
  136OSM   C15S14792   3.103   6.452   7.810  0.5261 -0.2129 -0.5345
  136OSM   H15S14793   3.159   6.543   7.779  3.9374 -1.7680  0.7470
  136OSM   H15T14794   3.174   6.370   7.839 -2.3280 -2.5939 -0.0670
  136OSM   C16S14795   3.022   6.477   7.937 -0.2081 -0.3465 -0.3741
  136OSM   H16S14796   3.094   6.482   8.021 -2.3171  2.5856  1.3551
  136OSM   H16T14797   2.969   6.386   7.972  1.3506 -0.4687  1.7108
  136OSM   C17S14798   2.947   6.599   7.937  0.2853  0.3882 -0.2192
  136OSM   H17S14799   2.850   6.580   7.886 -0.2524  0.9017  0.6030
  136OSM   H17T14800   3.006   6.679   7.887  2.2196  0.9171  2.8166
  136OSM   C18S14801   2.911   6.645   8.081  0.1735 -0.2436 -0.0338
  136OSM   H18S14802   2.851   6.739   8.083  1.1548  0.3803  0.5740
  136OSM   H18T14803   3.000   6.658   8.146  0.7418 -1.7234 -0.4898
  136OSM   H18U14804   2.845   6.571   8.131 -1.4164  0.8990 -0.3756
  136OSM    C1F14805   2.715   5.957   6.739 -0.2755 -0.2314  0.1895
  136OSM     OF14806   2.767   5.855   6.695  0.3127  0.1964  0.0900
  136OSM    C2F14807   2.657   5.940   6.877 -0.1225 -0.6040  0.2018
  136OSM    H2F14808   2.630   5.836   6.903  1.1686 -0.6743  1.2918
  136OSM    H2G14809   2.569   6.006   6.893  0.9032  0.9305 -0.3461
  136OSM    C3F14810   2.763   5.986   6.985  0.0905 -0.5697  0.4583
  136OSM    H3F14811   2.782   6.095   6.977 -0.4395 -0.4553  0.7301
  136OSM    H3G14812   2.863   5.946   6.959 -0.1081  0.1878 -1.5604
  136OSM    C4F14813   2.727   5.958   7.131 -0.6785 -0.5954 -0.1868
  136OSM    H4F14814   2.721   5.848   7.142  2.4406 -0.8350 -0.5474
  136OSM    H4G14815   2.624   5.992   7.157 -1.0146 -0.2996 -1.7890
  136OSM    C5F14816   2.824   6.002   7.243 -0.4654  0.2075  0.1537
  136OSM    H5F14817   2.814   6.112   7.250 -2.7520  0.0704 -0.3940
  136OSM    H5G14818   2.928   5.977   7.212  0.0557  2.1861  0.2696
  136OSM    C6F14819   2.792   5.944   7.378 -0.6873  0.5146 -0.3786
  136OSM    H6F14820   2.829   5.839   7.378  3.0682  1.7473  1.7095
  136OSM    H6G14821   2.682   5.949   7.397 -0.4677  1.1863  0.7562
  136OSM    C7F14822   2.856   6.029   7.491  0.1293 -0.5546 -0.0119
  136OSM    H7F14823   2.812   6.130   7.499  1.6947  0.2580 -1.5159
  136OSM    H7G14824   2.963   6.043   7.465  0.1391  1.3366  0.9971
  136OSM    C8F14825   2.852   5.955   7.624 -0.0851 -0.3229  0.5019
  136OSM    H8F14826   2.901   5.857   7.615 -0.9596 -0.6367 -0.9661
  136OSM    H8G14827   2.748   5.924   7.651 -1.1012  1.4492 -1.2521
  136OSM    C9F14828   2.924   6.023   7.737 -0.4816  0.6683  0.0271
  136OSM    H9F14829   3.033   6.010   7.724 -0.5795  0.3372 -0.4734
  136OSM   C10F14830   2.878   6.081   7.851  0.2251 -0.2547  0.3614
  136OSM   H10F14831   2.954   6.118   7.922  0.6668 -0.4878  0.0119
  136OSM   C11F14832   2.735   6.108   7.896  0.2271 -0.2417  0.9525
  136OSM   H11F14833   2.727   6.109   8.007  1.7403  2.2241  1.0789
  136OSM   H11G14834   2.670   6.033   7.848  0.9648 -0.6408  0.5689
  136OSM   C12F14835   2.706   6.260   7.853 -0.2732  0.3649  0.0612
  136OSM   H12F14836   2.710   6.272   7.742 -2.0346 -1.3041 -0.2189
  136OSM   H12G14837   2.781   6.331   7.892  0.5747 -0.6834  0.3418
  136OSM   C13F14838   2.569   6.316   7.902 -0.8184  0.7558 -0.8089
  136OSM   H13F14839   2.499   6.230   7.910  0.0453  0.1122  0.0350
  136OSM   H13G14840   2.536   6.389   7.825  1.1094  2.6152  0.0708
  136OSM   C14F14841   2.590   6.383   8.042  0.6508  0.5484 -0.0887
  136OSM   H14F14842   2.677   6.450   8.025  2.9191 -2.5360 -1.1768
  136OSM   H14G14843   2.608   6.297   8.110 -0.5443 -0.0214 -0.4696
  136OSM   C15F14844   2.470   6.464   8.094 -0.0479  0.6056 -0.0140
  136OSM   H15F14845   2.394   6.388   8.121  1.4674 -0.2115  2.0757
  136OSM   H15G14846   2.432   6.521   8.007 -2.4280  0.2192  0.7246
  136OSM   C16F14847   2.500   6.556   8.209  0.0653  0.2119  0.2495
  136OSM   H16F14848   2.541   6.649   8.164  2.1920 -1.5435 -1.5391
  136OSM   H16G14849   2.583   6.511   8.267  1.0530  1.8286  0.0988
  136OSM   C17F14850   2.385   6.612   8.296  0.6162  0.6240  0.3343
  136OSM   H17F14851   2.300   6.649   8.233 -0.4144  0.7809  1.7852
  136OSM   H17G14852   2.422   6.699   8.355 -0.1034  0.4338  1.0812
  136OSM   C18F14853   2.332   6.513   8.406 -0.9869 -0.6103 -0.7288
  136OSM   H18F14854   2.290   6.425   8.352 -0.7532 -0.2080 -1.5846
  136OSM   H18G14855   2.248   6.565   8.457 -0.5433  0.9003 -1.5005
  136OSM   H18H14856   2.408   6.475   8.477 -0.4848 -0.0256 -0.9454
  137OSM      N14857   6.127   4.259   6.307 -0.2860 -0.7393  0.1809
  137OSM    C1514858   6.060   4.197   6.426 -0.1312 -0.3567  0.6380
  137OSM   H15A14859   6.133   4.145   6.487 -2.8558 -0.6832  3.7315
  137OSM   H15B14860   5.976   4.137   6.394  1.3017 -1.3653 -1.3623
  137OSM   H15C14861   6.013   4.269   6.491 -1.1706 -0.9505  0.5573
  137OSM    C1414862   6.185   4.158   6.218  0.1333  0.4022 -0.5416
  137OSM   H14A14863   6.118   4.099   6.157 -0.5317  2.1871 -1.5553
  137OSM   H14B14864   6.263   4.098   6.262 -0.0656 -0.0299 -0.7713
  137OSM   H14C14865   6.234   4.215   6.140  0.9412  1.1975  0.5282
  137OSM    C1314866   6.029   4.323   6.220 -0.6460 -0.1349  0.3528
  137OSM   H13A14867   6.078   4.386   6.148  1.8777 -0.8447  1.4020
  137OSM   H13B14868   5.965   4.384   6.282 -1.8600 -0.0507 -0.9634
  137OSM   H13C14869   5.965   4.254   6.168  1.1121 -0.1311 -1.8791
  137OSM    C1214870   6.232   4.359   6.360 -0.1567  0.6302  0.1987
  137OSM   H12A14871   6.184   4.450   6.394 -2.4600  0.1407 -1.6159
  137OSM   H12B14872   6.297   4.387   6.278  1.1958 -1.5327  0.4687
  137OSM    C1114873   6.338   4.302   6.464  0.6298  0.2032 -0.3984
  137OSM   H11A14874   6.275   4.280   6.553  1.2458  0.4194  0.0868
  137OSM   H11B14875   6.412   4.379   6.491 -0.5810  1.3979 -0.4488
  137OSM      P14876   6.422   4.037   6.495  0.3642 -0.0501  0.1382
  137OSM    O1314877   6.378   3.940   6.393  0.3749  0.2221  0.1023
  137OSM    O1414878   6.566   4.037   6.538 -0.0763 -0.2263 -0.2050
  137OSM    O1114879   6.318   4.051   6.619  0.1427  0.4054  0.2386
  137OSM    O1214880   6.402   4.175   6.414  0.5429 -0.0906  0.0736
  137OSM    C1S14881   6.377   4.116   6.738 -1.5361  0.6445  0.0105
  137OSM    H1S14882   6.403   4.223   6.725 -0.8010  0.2841 -1.6522
  137OSM    H1T14883   6.463   4.053   6.770 -1.1865  0.6790 -0.8363
  137OSM     NF14884   6.354   4.168   6.974 -0.1838 -0.4506 -0.1651
  137OSM    HNF14885   6.389   4.110   7.048  0.7284 -0.1224 -0.3281
  137OSM    C2S14886   6.274   4.117   6.862 -0.3010  0.1342 -0.0955
  137OSM    H2S14887   6.190   4.187   6.842 -2.7599 -3.0401 -1.4749
  137OSM    C3S14888   6.214   3.974   6.883 -0.3860  0.1004  0.3132
  137OSM    H3S14889   6.291   3.895   6.877 -2.4968 -1.8541 -2.7817
  137OSM     O314890   6.119   3.948   6.786 -0.6132  0.4295 -0.2399
  137OSM    HO314891   6.141   4.000   6.709  1.5139  0.7982  0.6049
  137OSM    C4S14892   6.150   3.960   7.024 -0.4476 -0.2302 -0.0212
  137OSM    H4S14893   6.224   3.961   7.105  0.5348 -0.3128 -0.8908
  137OSM    C5S14894   6.017   3.958   7.058  0.5083 -0.3457  0.2379
  137OSM    H5S14895   5.940   3.980   6.983  0.3244 -0.0733  0.5078
  137OSM    C6S14896   5.967   3.943   7.201  0.5827  0.4082 -0.9489
  137OSM    H6S14897   5.884   3.870   7.215  1.6417 -0.5716  0.3754
  137OSM    H6T14898   5.915   4.035   7.235  0.7035 -0.7004  2.3949
  137OSM    C7S14899   6.075   3.897   7.309 -0.1446  0.4628  0.1219
  137OSM    H7S14900   6.154   3.974   7.322 -1.1787  1.3726  1.0510
  137OSM    H7T14901   6.124   3.805   7.270 -1.1922  0.8309 -2.1888
  137OSM    C8S14902   5.989   3.866   7.430 -0.8274  0.1669  0.5676
  137OSM    H8S14903   5.931   3.776   7.404  0.1163 -0.5588  0.9327
  137OSM    H8T14904   5.920   3.950   7.451 -2.5607 -0.6952 -1.5113
  137OSM    C9S14905   6.069   3.843   7.560 -0.2892  0.6740 -0.2303
  137OSM    H9S14906   6.148   3.921   7.570  2.8039 -2.3472 -0.0562
  137OSM    H9T14907   6.121   3.746   7.551 -1.5933  0.0667 -1.5597
  137OSM   C10S14908   5.964   3.833   7.675  0.1762  0.4514 -0.6871
  137OSM   H10S14909   5.886   3.763   7.637 -1.6134  0.5742  2.5627
  137OSM   H10T14910   5.936   3.939   7.689  0.6960  1.0365 -3.7432
  137OSM   C11S14911   6.037   3.784   7.809  0.3079  0.1537  0.5410
  137OSM   H11S14912   6.124   3.850   7.832  0.2003  0.3044  0.5161
  137OSM   H11T14913   6.071   3.681   7.784 -1.8091 -0.6757  0.9363
  137OSM   C12S14914   5.938   3.782   7.918 -0.7358 -0.8518 -0.8561
  137OSM   H12S14915   5.874   3.691   7.913  0.3288 -1.6905  0.3466
  137OSM   H12T14916   5.871   3.870   7.908  1.2330  0.7528 -0.3748
  137OSM   C13S14917   5.996   3.783   8.064 -0.7190  0.2580  0.4234
  137OSM   H13S14918   6.071   3.861   8.087 -1.5696  1.2920 -0.2219
  137OSM   H13T14919   6.049   3.686   8.072  0.4321  0.7510 -0.8751
  137OSM   C14S14920   5.886   3.772   8.167  0.5988 -0.3601  0.2714
  137OSM   H14S14921   5.927   3.703   8.243  1.9336 -0.6405 -0.6715
  137OSM   H14T14922   5.802   3.722   8.114  0.9041  0.0197 -0.5782
  137OSM   C15S14923   5.853   3.909   8.228  0.2440 -0.6955 -0.2231
  137OSM   H15S14924   5.810   3.972   8.147 -0.7952 -2.3541 -0.9940
  137OSM   H15T14925   5.944   3.953   8.275 -1.6541  1.4187  1.6217
  137OSM   C16S14926   5.764   3.911   8.349  0.0803  0.0990  0.2252
  137OSM   H16S14927   5.797   3.822   8.407 -1.6913 -1.0375 -0.5031
  137OSM   H16T14928   5.658   3.895   8.320  0.8790  0.4115 -3.0676
  137OSM   C17S14929   5.795   4.036   8.439  0.3703  0.4086  0.6693
  137OSM   H17S14930   5.754   4.119   8.378  0.3407 -0.5467 -0.6364
  137OSM   H17T14931   5.905   4.048   8.452  0.5304 -1.9792  1.8297
  137OSM   C18S14932   5.721   4.032   8.572  0.0206 -0.7563  0.1709
  137OSM   H18S14933   5.772   4.106   8.638 -1.4544 -0.1233  0.6138
  137OSM   H18T14934   5.736   3.938   8.629 -0.5478 -1.0764 -0.2024
  137OSM   H18U14935   5.615   4.064   8.557 -0.6655 -1.1559  3.6952
  137OSM    C1F14936   6.395   4.293   6.990 -0.1172 -0.3626  0.1738
  137OSM     OF14937   6.375   4.385   6.911 -0.0969 -0.3113 -0.2397
  137OSM    C2F14938   6.453   4.322   7.122  0.8930  0.3287  0.5999
  137OSM    H2F14939   6.556   4.280   7.118  0.3072 -1.1605  1.0773
  137OSM    H2G14940   6.406   4.265   7.205 -2.1276  2.5733  0.5225
  137OSM    C3F14941   6.465   4.481   7.158  0.1967 -0.2381  0.3043
  137OSM    H3F14942   6.363   4.525   7.157  0.2095 -0.2024 -2.6544
  137OSM    H3G14943   6.513   4.540   7.078 -0.1917  1.6176  1.4103
  137OSM    C4F14944   6.550   4.500   7.288  0.5315  0.2489 -0.0717
  137OSM    H4F14945   6.525   4.602   7.325 -2.0782  0.0832 -1.3100
  137OSM    H4G14946   6.660   4.495   7.271  0.4030 -1.4006 -0.5271
  137OSM    C5F14947   6.516   4.396   7.400 -0.5139 -0.0135  0.2303
  137OSM    H5F14948   6.575   4.303   7.386 -2.0690 -1.1823  1.2652
  137OSM    H5G14949   6.405   4.385   7.396 -0.3441 -1.5825 -0.5355
  137OSM    C6F14950   6.554   4.453   7.532  0.3814  0.7957  0.1984
  137OSM    H6F14951   6.491   4.543   7.548  0.0828  0.5185  0.5797
  137OSM    H6G14952   6.659   4.487   7.533  0.8195 -0.5283  0.4435
  137OSM    C7F14953   6.519   4.354   7.654 -0.8914 -0.6759 -0.0180
  137OSM    H7F14954   6.593   4.272   7.639  1.4574  1.5754 -1.1177
  137OSM    H7G14955   6.417   4.313   7.641 -0.4763 -0.9757 -2.7366
  137OSM    C8F14956   6.529   4.423   7.793 -0.1337 -0.3315  0.9106
  137OSM    H8F14957   6.461   4.511   7.793 -0.6460 -0.7230  0.8539
  137OSM    H8G14958   6.631   4.467   7.794  0.5502 -1.7869 -1.9182
  137OSM    C9F14959   6.508   4.339   7.913 -0.0558  0.0064 -0.1848
  137OSM    H9F14960   6.544   4.236   7.901 -1.0505 -0.3782  0.0222
  137OSM   C10F14961   6.419   4.368   8.013 -0.9450 -0.4730 -0.2575
  137OSM   H10F14962   6.406   4.283   8.081  0.3312 -0.1526  0.4110
  137OSM   C11F14963   6.350   4.495   8.041  0.1224 -0.4464 -0.2567
  137OSM   H11F14964   6.269   4.462   8.111 -1.3710  0.5132 -1.4916
  137OSM   H11G14965   6.296   4.537   7.953 -2.5500  1.7922  2.3334
  137OSM   C12F14966   6.424   4.599   8.117  0.0399 -0.5124  0.2030
  137OSM   H12F14967   6.379   4.697   8.091  0.4631 -0.3897 -0.0635
  137OSM   H12G14968   6.527   4.599   8.077 -0.1684 -2.6687 -0.3907
  137OSM   C13F14969   6.418   4.580   8.271  0.5498  0.3496  0.8632
  137OSM   H13F14970   6.315   4.555   8.306  0.2191  0.7938  0.2205
  137OSM   H13G14971   6.454   4.675   8.315  2.5058  0.2791 -0.5174
  137OSM   C14F14972   6.504   4.470   8.321  0.2955  0.2938  0.5608
  137OSM   H14F14973   6.470   4.374   8.278  1.5140  1.0552 -2.2746
  137OSM   H14G14974   6.483   4.454   8.429 -0.9065  0.2956  0.3353
  137OSM   C15F14975   6.655   4.481   8.286 -0.0353  0.4006  0.4347
  137OSM   H15F14976   6.673   4.441   8.184 -0.0838 -0.3309  0.7113
  137OSM   H15G14977   6.696   4.399   8.349 -0.8088  2.3458  3.5895
  137OSM   C16F14978   6.723   4.616   8.316 -0.1739  0.4338 -0.6273
  137OSM   H16F14979   6.667   4.699   8.267  3.3633  2.7716 -0.9098
  137OSM   H16G14980   6.825   4.611   8.271  0.7749  1.4266  1.3741
  137OSM   C17F14981   6.729   4.659   8.468 -0.1083  0.4685 -0.1870
  137OSM   H17F14982   6.625   4.690   8.491 -0.2698 -0.2156  0.0014
  137OSM   H17G14983   6.796   4.747   8.483  0.0339  0.2184  0.6699
  137OSM   C18F14984   6.781   4.555   8.572  0.9295  0.0101 -0.2277
  137OSM   H18F14985   6.885   4.524   8.549  0.6438 -1.5704  0.4919
  137OSM   H18G14986   6.722   4.461   8.576  1.2581 -0.2346 -1.0901
  137OSM   H18H14987   6.789   4.605   8.671  3.2796 -0.9592  0.1045
  138OSM      N14988   0.243   5.961   6.180 -0.1220  0.1622 -0.6126
  138OSM    C1514989   0.192   5.980   6.038 -0.1537  0.9324  0.2375
  138OSM   H15A14990   0.098   5.927   6.032 -0.5486  1.6778 -0.1410
  138OSM   H15B14991   0.265   5.950   5.963 -0.3530  2.2100 -0.4775
  138OSM   H15C14992   0.169   6.082   6.014 -0.2738  0.7977 -0.2289
  138OSM    C1414993   0.148   5.992   6.284  0.0767  0.4219 -0.0482
  138OSM   H14A14994   0.185   5.982   6.385 -1.3397 -1.4217  0.2975
  138OSM   H14B14995   0.054   5.940   6.276  0.2322 -0.0182  0.8631
  138OSM   H14C14996   0.127   6.097   6.273 -0.6490  0.2707 -0.0981
  138OSM    C1314997   0.303   5.825   6.194  0.4853 -0.1771 -0.7061
  138OSM   H13A14998   0.333   5.800   6.295  2.7273  1.9722 -0.7703
  138OSM   H13B14999   0.397   5.812   6.142  0.4027 -3.1306 -0.2229
  138OSM   H13C15000   0.237   5.750   6.153  1.2494 -0.8042 -0.8133
  138OSM    C1215001   0.357   6.070   6.196 -0.1753  0.1437 -0.4405
  138OSM   H12A15002   0.431   6.047   6.121 -0.2211  1.1432 -0.7861
  138OSM   H12B15003   0.406   6.056   6.291  0.5390  1.0448 -0.6724
  138OSM    C1115004   0.313   6.218   6.193 -0.3208 -0.6751 -0.9019
  138OSM   H11A15005   0.398   6.284   6.219 -0.5083 -1.3295  1.5297
  138OSM   H11B15006   0.245   6.247   6.276  2.2291  0.2441  0.9293
  138OSM      P15007   0.219   6.401   6.022 -0.1172 -0.2421  0.2985
  138OSM    O1315008   0.327   6.455   5.935 -0.0455 -0.3758 -0.2928
  138OSM    O1415009   0.088   6.396   5.951  0.5944 -0.2797 -0.0183
  138OSM    O1115010   0.213   6.486   6.164  0.2259  0.0068 -0.4617
  138OSM    O1215011   0.255   6.259   6.067  0.7347  0.0715 -0.5112
  138OSM    C1S15012   0.094   6.482   6.239 -0.0672 -0.0364 -0.6432
  138OSM    H1S15013   0.068   6.374   6.236  1.3500 -0.3800 -1.0463
  138OSM    H1T15014   0.004   6.532   6.199  0.5814  0.0945 -1.9536
  138OSM     NF15015   0.019   6.463   6.477 -0.2284 -0.5840  0.4773
  138OSM    HNF15016  -0.059   6.522   6.497 -1.3360 -1.3189 -1.6288
  138OSM    C2S15017   0.124   6.514   6.390 -0.4213  0.0524  0.8359
  138OSM    H2S15018   0.222   6.465   6.410  0.6907  1.9043  0.0488
  138OSM    C3S15019   0.146   6.667   6.408  0.0827 -0.1717  0.2154
  138OSM    H3S15020   0.050   6.718   6.383  0.9559  1.8934  0.9802
  138OSM     O315021   0.236   6.727   6.308  0.4712 -0.3212  0.3984
  138OSM    HO315022   0.255   6.655   6.247 -3.1951  0.8184 -2.2183
  138OSM    C4S15023   0.178   6.712   6.550 -0.0814 -0.1374  0.5718
  138OSM    H4S15024   0.086   6.729   6.608 -0.8151 -1.5616 -0.1383
  138OSM    C5S15025   0.301   6.734   6.597  0.2200  0.1452  0.0304
  138OSM    H5S15026   0.387   6.709   6.534  0.4508 -0.7738  0.7047
  138OSM    C6S15027   0.326   6.781   6.735 -0.7425 -0.2885  0.2094
  138OSM    H6S15028   0.410   6.853   6.737  0.3163 -1.3799 -2.1314
  138OSM    H6T15029   0.366   6.690   6.785 -0.4200 -0.2587  0.0070
  138OSM    C7S15030   0.210   6.848   6.823 -0.4092  0.1003 -0.0538
  138OSM    H7S15031   0.125   6.777   6.834 -0.0331 -0.5399 -1.2063
  138OSM    H7T15032   0.172   6.933   6.763  0.9605  1.2811  0.7107
  138OSM    C8S15033   0.249   6.898   6.963  0.1150  0.8853  0.1396
  138OSM    H8S15034   0.341   6.956   6.939  0.5155  0.7539  1.3064
  138OSM    H8T15035   0.278   6.820   7.036  1.7611 -1.3732 -2.7872
  138OSM    C9S15036   0.151   6.992   7.024  0.5033 -0.8435  0.2745
  138OSM    H9S15037   0.045   6.961   7.017 -0.1908  1.6166 -0.8603
  138OSM    H9T15038   0.161   7.093   6.978  0.3059 -1.7048 -1.7458
  138OSM   C10S15039   0.159   6.999   7.172 -0.1966  0.0190 -1.0782
  138OSM   H10S15040   0.174   7.106   7.200 -0.5772 -0.1102 -0.3532
  138OSM   H10T15041   0.255   6.954   7.205 -1.6721 -1.3625  1.4772
  138OSM   C11S15042   0.048   6.938   7.257  0.3587 -0.3299  0.9693
  138OSM   H11S15043   0.022   6.834   7.229  0.7879 -0.2825  0.3800
  138OSM   H11T15044  -0.043   6.999   7.239 -1.1184 -2.3732  1.3202
  138OSM   C12S15045   0.082   6.931   7.414 -0.3986 -0.0549 -0.3680
  138OSM   H12S15046   0.114   7.027   7.461 -0.8452 -0.3247  0.4939
  138OSM   H12T15047   0.171   6.866   7.416 -1.3968 -1.4532 -0.7248
  138OSM   C13S15048  -0.026   6.862   7.497  0.1173 -0.0719  0.6878
  138OSM   H13S15049  -0.067   6.765   7.462  1.0628  0.1264 -1.0717
  138OSM   H13T15050  -0.104   6.940   7.486 -0.5739 -0.6523  1.4563
  138OSM   C14S15051   0.032   6.847   7.640 -0.6070 -0.3261 -0.3249
  138OSM   H14S15052   0.079   6.944   7.669 -2.4809  1.3795 -2.7678
  138OSM   H14T15053   0.109   6.767   7.648  1.3741  1.6109  0.4355
  138OSM   C15S15054  -0.074   6.803   7.736  0.0343  0.0601  0.7243
  138OSM   H15S15055  -0.152   6.742   7.687  1.7105  1.0145 -3.3464
  138OSM   H15T15056  -0.124   6.892   7.781  1.6238  0.3997  1.8717
  138OSM   C16S15057  -0.024   6.709   7.845  0.9547 -0.9515  0.4437
  138OSM   H16S15058   0.024   6.619   7.800  5.5789  1.8715 -0.5155
  138OSM   H16T15059  -0.107   6.680   7.913 -1.3101  1.2205 -1.3266
  138OSM   C17S15060   0.091   6.782   7.920  0.4053 -0.1869  0.1141
  138OSM   H17S15061   0.062   6.885   7.953 -2.3593 -1.1166  0.7026
  138OSM   H17T15062   0.172   6.798   7.846 -0.7319  2.7125 -0.6191
  138OSM   C18S15063   0.147   6.711   8.044 -0.0962 -0.3188  0.9821
  138OSM   H18S15064   0.232   6.774   8.076 -0.0829  0.0663  0.1924
  138OSM   H18T15065   0.180   6.610   8.011  1.0027  0.5548 -0.6570
  138OSM   H18U15066   0.063   6.687   8.112 -2.2992  0.6656 -1.2972
  138OSM    C1F15067  -0.007   6.335   6.503  0.7328  0.9685 -0.4589
  138OSM     OF15068   0.067   6.247   6.462 -0.0504  0.3209 -0.0567
  138OSM    C2F15069  -0.140   6.304   6.565  0.2369 -0.2423  0.6911
  138OSM    H2F15070  -0.203   6.268   6.481 -1.0452 -0.4260  1.7095
  138OSM    H2G15071  -0.171   6.402   6.609  1.5725 -0.5551  2.4040
  138OSM    C3F15072  -0.138   6.196   6.671  0.3308  0.5413  0.5698
  138OSM    H3F15073  -0.111   6.098   6.627 -0.0866  0.4646  0.4787
  138OSM    H3G15074  -0.246   6.176   6.686  0.1796 -0.9636 -2.0839
  138OSM    C4F15075  -0.056   6.208   6.799  0.6662  0.1776  0.5999
  138OSM    H4F15076  -0.085   6.297   6.860  1.4507 -1.2265  3.1090
  138OSM    H4G15077   0.050   6.209   6.766 -0.3385  0.4106 -2.7834
  138OSM    C5F15078  -0.086   6.093   6.897  0.6931  0.3668  0.7091
  138OSM    H5F15079  -0.047   6.003   6.846 -0.3074  1.8958 -2.9416
  138OSM    H5G15080  -0.197   6.087   6.907  0.4698  0.1204 -1.7074
  138OSM    C6F15081  -0.019   6.109   7.043 -0.0372 -0.4718  0.3090
  138OSM    H6F15082  -0.072   6.190   7.098  1.3246  0.7141 -0.0935
  138OSM    H6G15083   0.089   6.133   7.041 -0.2158  0.4116  0.8077
  138OSM    C7F15084  -0.045   5.976   7.122 -0.3946  0.9787 -0.6256
  138OSM    H7F15085  -0.009   5.885   7.070 -3.2603 -0.7597  0.3278
  138OSM    H7G15086  -0.155   5.972   7.138 -0.1531 -0.2491  0.7818
  138OSM    C8F15087   0.027   5.976   7.256  0.5700 -0.4114  0.1391
  138OSM    H8F15088   0.131   6.012   7.248  0.9751 -1.4255  0.7005
  138OSM    H8G15089   0.030   5.873   7.298  2.5244 -0.1677  0.6447
  138OSM    C9F15090  -0.052   6.058   7.354  0.7285  0.8669 -0.3306
  138OSM    H9F15091  -0.072   6.161   7.321 -1.1158  0.5740 -0.2022
  138OSM   C10F15092  -0.093   6.026   7.479 -0.9253 -0.1024  0.0891
  138OSM   H10F15093  -0.154   6.100   7.534 -1.1262 -0.1328 -0.0925
  138OSM   C11F15094  -0.079   5.899   7.557 -1.1557  1.0151 -0.7026
  138OSM   H11F15095  -0.002   5.838   7.505 -0.8781  1.4818 -0.8475
  138OSM   H11G15096  -0.168   5.834   7.571 -0.0350 -0.2482  0.6969
  138OSM   C12F15097  -0.019   5.931   7.700  0.3169  0.8464 -0.0044
  138OSM   H12F15098  -0.079   6.015   7.743 -0.2322  0.7729 -0.6014
  138OSM   H12G15099   0.082   5.965   7.671  0.5581 -2.3381 -3.2015
  138OSM   C13F15100  -0.028   5.806   7.791 -0.7950 -0.1257 -0.4241
  138OSM   H13F15101   0.035   5.725   7.749 -0.3991  0.0016 -0.0872
  138OSM   H13G15102  -0.132   5.770   7.796 -1.6782  2.2367 -0.8961
  138OSM   C14F15103   0.017   5.839   7.930  0.8642  0.0439 -0.0257
  138OSM   H14F15104  -0.054   5.919   7.958  0.2582 -0.7258  0.6667
  138OSM   H14G15105   0.125   5.865   7.927  1.0270 -0.4745  1.0973
  138OSM   C15F15106   0.007   5.715   8.016  0.0568 -0.0916 -0.2756
  138OSM   H15F15107   0.054   5.744   8.113  0.8314  0.3898 -0.7871
  138OSM   H15G15108   0.066   5.632   7.971 -1.0462 -0.7549 -0.5315
  138OSM   C16F15109  -0.134   5.670   8.045 -0.3515  0.3490  0.2581
  138OSM   H16F15110  -0.192   5.642   7.955  0.3975 -1.6120  0.3636
  138OSM   H16G15111  -0.188   5.755   8.092  1.0575  0.5278  1.6236
  138OSM   C17F15112  -0.140   5.550   8.146 -0.4450  0.1572  0.2686
  138OSM   H17F15113  -0.106   5.459   8.093 -0.5743  0.4895 -0.3902
  138OSM   H17G15114  -0.244   5.534   8.183 -0.1639 -1.5202  0.3532
  138OSM   C18F15115  -0.064   5.563   8.280 -0.1090  0.0292 -0.0952
  138OSM   H18F15116   0.046   5.557   8.271 -0.1163 -1.4165  0.6354
  138OSM   H18G15117  -0.094   5.477   8.343 -1.3873  1.3031  1.0876
  138OSM   H18H15118  -0.084   5.662   8.328  2.2761 -0.7032  2.6173
  139OSM      N15119   6.382   0.371   5.843  0.0704  0.7798 -0.2705
  139OSM    C1515120   6.253   0.452   5.813 -0.4200 -0.2845 -0.6400
  139OSM   H15A15121   6.252   0.478   5.708  0.5291 -0.2619 -0.6571
  139OSM   H15B15122   6.242   0.544   5.869 -0.2732  0.0981 -1.2307
  139OSM   H15C15123   6.166   0.394   5.837  0.7948 -1.8653 -0.0072
  139OSM    C1415124   6.380   0.249   5.760  0.7587  0.6122  0.0160
  139OSM   H14A15125   6.281   0.206   5.757  0.0967  2.0539  0.5179
  139OSM   H14B15126   6.450   0.175   5.796 -0.3535 -0.3921  0.1324
  139OSM   H14C15127   6.410   0.268   5.658 -2.5781  1.8119 -0.8117
  139OSM    C1315128   6.497   0.456   5.812  0.1189  0.1786  0.2104
  139OSM   H13A15129   6.593   0.409   5.795  1.4471  3.6170 -2.1908
  139OSM   H13B15130   6.507   0.539   5.880  0.5779 -0.2747  0.6992
  139OSM   H13C15131   6.484   0.503   5.716  0.3701  1.3946  0.7697
  139OSM    C1215132   6.391   0.321   5.989 -0.4676  0.8521  0.2547
  139OSM   H12A15133   6.478   0.257   5.988 -1.4395 -0.5217  1.9686
  139OSM   H12B15134   6.319   0.241   5.999  2.6058 -2.2248 -1.2364
  139OSM    C1115135   6.376   0.425   6.099  0.0420 -0.6447 -0.2944
  139OSM   H11A15136   6.449   0.507   6.084  0.3198 -0.3449  2.4510
  139OSM   H11B15137   6.400   0.386   6.201 -1.1702 -0.3539  0.1079
  139OSM      P15138   6.127   0.405   6.163  0.2094  0.0216  0.2890
  139OSM    O1315139   6.009   0.493   6.163 -0.0576 -0.2591  0.1024
  139OSM    O1415140   6.107   0.283   6.085  0.0806  0.3557 -0.2331
  139OSM    O1115141   6.160   0.373   6.313  0.1997  0.5011 -0.4149
  139OSM    O1215142   6.251   0.483   6.101  0.4669  0.3083  0.1626
  139OSM    C1S15143   6.220   0.471   6.401  0.2923 -0.5997 -0.2087
  139OSM    H1S15144   6.281   0.549   6.350 -0.3658  0.0575  0.0011
  139OSM    H1T15145   6.291   0.413   6.463 -1.5810  0.1713  2.7418
  139OSM     NF15146   6.220   0.620   6.597 -0.0388  0.3291 -0.4599
  139OSM    HNF15147   6.237   0.615   6.695  0.0227  2.4669 -0.3448
  139OSM    C2S15148   6.129   0.534   6.516  0.5693 -0.5982  0.4853
  139OSM    H2S15149   6.058   0.599   6.459  0.4610 -1.8237 -0.8112
  139OSM    C3S15150   6.051   0.429   6.602  0.2249 -0.2112  0.9185
  139OSM    H3S15151   6.136   0.376   6.651 -0.5296 -3.1866 -0.8258
  139OSM     O315152   5.988   0.336   6.514  0.0375 -0.3334 -0.2565
  139OSM    HO315153   6.029   0.364   6.432 -0.8029  0.2921 -0.4635
  139OSM    C4S15154   5.960   0.485   6.703 -0.1925 -0.5987  0.4063
  139OSM    H4S15155   5.998   0.482   6.806  2.7791  3.0029 -0.4669
  139OSM    C5S15156   5.840   0.537   6.685 -0.5011 -0.7760  0.4530
  139OSM    H5S15157   5.788   0.513   6.591 -0.6131  0.4198  0.1994
  139OSM    C6S15158   5.759   0.606   6.783  0.7253 -0.3270 -0.6892
  139OSM    H6S15159   5.792   0.588   6.888  3.0085 -1.1339 -1.5113
  139OSM    H6T15160   5.653   0.575   6.772  0.7556 -0.7608  0.1672
  139OSM    C7S15161   5.765   0.757   6.774 -0.1077  0.0804  0.7707
  139OSM    H7S15162   5.690   0.809   6.838 -1.0046  0.4813 -0.5931
  139OSM    H7T15163   5.735   0.791   6.673  0.2878 -1.4416  0.1323
  139OSM    C8S15164   5.900   0.818   6.806 -0.4974  0.4456  1.0573
  139OSM    H8S15165   5.913   0.921   6.769  0.6192  1.4363  4.0040
  139OSM    H8T15166   5.971   0.765   6.739 -0.1837  4.1166 -1.6244
  139OSM    C9S15167   5.953   0.796   6.956  0.3247  1.0482  0.0368
  139OSM    H9S15168   6.062   0.782   6.942 -0.5015 -2.5295 -3.8066
  139OSM    H9T15169   5.921   0.693   6.982  0.1839  0.9907 -0.3687
  139OSM   C10S15170   5.907   0.899   7.071 -0.2426 -0.1918 -0.3962
  139OSM   H10S15171   5.797   0.908   7.066 -0.1255  1.2375 -0.6418
  139OSM   H10T15172   5.943   0.999   7.039 -0.4083 -0.2233 -0.6779
  139OSM   C11S15173   5.958   0.853   7.208 -0.2881  0.0101 -0.0917
  139OSM   H11S15174   6.058   0.804   7.212  1.1432  2.7680 -1.0327
  139OSM   H11T15175   5.882   0.778   7.238  0.8458 -0.5826  1.3775
  139OSM   C12S15176   5.949   0.964   7.310 -0.1119  0.5245  0.6345
  139OSM   H12S15177   5.853   1.020   7.302 -0.5835 -0.2678  0.7003
  139OSM   H12T15178   6.034   1.031   7.286  0.4966 -0.8883 -1.2150
  139OSM   C13S15179   5.980   0.924   7.458 -0.3978 -0.4326 -0.0786
  139OSM   H13S15180   6.087   0.898   7.477  0.0731  1.8438  0.6163
  139OSM   H13T15181   5.921   0.831   7.462  0.4457 -0.9324  0.7616
  139OSM   C14S15182   5.937   1.039   7.553  0.2454  0.3448  0.5515
  139OSM   H14S15183   5.834   1.071   7.526  0.7533 -0.9157 -3.2174
  139OSM   H14T15184   6.003   1.127   7.536  1.8870 -1.3370 -2.1827
  139OSM   C15S15185   5.943   0.984   7.692  0.3949  0.5243 -0.3358
  139OSM   H15S15186   6.047   0.953   7.714  1.2582  3.2277 -0.5076
  139OSM   H15T15187   5.881   0.893   7.706  1.2678  0.2302  1.8332
  139OSM   C16S15188   5.904   1.096   7.791 -0.0226  0.5650 -0.5410
  139OSM   H16S15189   5.798   1.128   7.782 -0.2284  0.3322  1.0522
  139OSM   H16T15190   5.962   1.190   7.774  0.3966  0.9761  2.9579
  139OSM   C17S15191   5.937   1.056   7.938  0.8107  0.7411 -0.3103
  139OSM   H17S15192   5.894   1.135   8.003  0.8530 -0.6543  1.4646
  139OSM   H17T15193   6.046   1.056   7.955  0.9389  1.0112 -1.1120
  139OSM   C18S15194   5.871   0.923   7.987 -0.1019 -0.2747 -0.5221
  139OSM   H18S15195   5.937   0.882   8.066  1.9342 -0.5780 -2.3552
  139OSM   H18T15196   5.863   0.849   7.905  2.7330  2.0260 -2.9550
  139OSM   H18U15197   5.769   0.944   8.026  0.5714 -0.2308  1.2601
  139OSM    C1F15198   6.289   0.723   6.543 -0.3345 -0.6204 -0.9190
  139OSM     OF15199   6.246   0.787   6.446  0.0695 -0.5632  0.0542
  139OSM    C2F15200   6.415   0.758   6.614 -0.7540 -0.6063  0.2953
  139OSM    H2F15201   6.497   0.732   6.543 -0.0381 -2.9287  1.9199
  139OSM    H2G15202   6.432   0.696   6.704  0.7884 -0.2958  0.2365
  139OSM    C3F15203   6.434   0.910   6.629  0.1205 -0.4099 -0.3889
  139OSM    H3F15204   6.430   0.963   6.531 -0.6187  0.2018 -0.0333
  139OSM    H3G15205   6.541   0.928   6.654 -0.4364 -0.1654  1.9136
  139OSM    C4F15206   6.351   0.984   6.739 -0.0106 -0.0725  0.2010
  139OSM    H4F15207   6.250   1.001   6.698  0.9194  2.2460 -1.1891
  139OSM    H4G15208   6.408   1.077   6.757  1.0100 -0.1833 -2.3319
  139OSM    C5F15209   6.317   0.904   6.866  0.3653 -0.6816 -0.5042
  139OSM    H5F15210   6.412   0.861   6.905  1.7155  1.2693 -1.5144
  139OSM    H5G15211   6.236   0.831   6.844  0.5464 -1.1018  0.2140
  139OSM    C6F15212   6.273   1.002   6.978 -0.3296 -0.1414 -0.1718
  139OSM    H6F15213   6.244   0.933   7.059  0.5009  0.7652  0.9118
  139OSM    H6G15214   6.183   1.057   6.942  2.6973  2.9031 -3.5179
  139OSM    C7F15215   6.378   1.098   7.019 -0.6602 -0.5260 -0.5286
  139OSM    H7F15216   6.394   1.174   6.940 -2.9686 -1.1382 -1.6277
  139OSM    H7G15217   6.477   1.049   7.028 -0.8331 -0.5474  1.5995
  139OSM    C8F15218   6.338   1.145   7.163  0.3710 -0.1351  0.4695
  139OSM    H8F15219   6.381   1.071   7.235 -1.7770 -2.5628 -0.6795
  139OSM    H8G15220   6.229   1.138   7.181  0.0884 -0.8688 -1.3898
  139OSM    C9F15221   6.402   1.281   7.178 -0.1862  0.0124 -0.2930
  139OSM    H9F15222   6.510   1.273   7.158 -0.5210 -0.0286 -2.2170
  139OSM   C10F15223   6.341   1.398   7.220 -0.0757  0.3543  0.3511
  139OSM   H10F15224   6.407   1.482   7.246 -0.5062  1.2326 -1.3596
  139OSM   C11F15225   6.194   1.417   7.256 -0.0445 -0.6564  0.8596
  139OSM   H11F15226   6.137   1.322   7.253 -0.8876 -0.1133 -0.7662
  139OSM   H11G15227   6.143   1.475   7.176  1.9861 -1.2466 -0.9031
  139OSM   C12F15228   6.163   1.490   7.391 -0.0600 -0.6444  0.1273
  139OSM   H12F15229   6.054   1.502   7.403  0.1148  1.7039 -0.4034
  139OSM   H12G15230   6.208   1.591   7.380 -2.4056  0.4858  0.6434
  139OSM   C13F15231   6.222   1.414   7.510  0.2745  0.2690 -0.6850
  139OSM   H13F15232   6.329   1.389   7.496 -0.2699 -1.9201 -1.0869
  139OSM   H13G15233   6.171   1.316   7.503  2.3231 -0.8458 -0.0500
  139OSM   C14F15234   6.201   1.481   7.652  0.1081  0.1457  0.7111
  139OSM   H14F15235   6.092   1.500   7.658  0.1019  0.5457 -0.6407
  139OSM   H14G15236   6.267   1.568   7.672  0.9453 -0.0974 -0.9703
  139OSM   C15F15237   6.231   1.380   7.756  0.2956 -0.2045  0.3991
  139OSM   H15F15238   6.339   1.356   7.740  0.7014  1.6314  0.2774
  139OSM   H15G15239   6.158   1.297   7.749  0.1250 -0.0756  0.6177
  139OSM   C16F15240   6.224   1.444   7.898 -0.3946 -0.1541  0.4539
  139OSM   H16F15241   6.123   1.488   7.912 -1.3218 -2.1464  0.1799
  139OSM   H16G15242   6.302   1.522   7.914  0.9433 -1.5849  1.0518
  139OSM   C17F15243   6.241   1.337   8.001  0.3605  0.4349 -0.2644
  139OSM   H17F15244   6.345   1.297   8.008 -0.1826 -0.7482  1.5147
  139OSM   H17G15245   6.180   1.249   7.973 -2.1364  2.0661 -0.1055
  139OSM   C18F15246   6.188   1.385   8.139 -0.2774 -0.1479 -0.5648
  139OSM   H18F15247   6.264   1.406   8.218 -1.2348  0.6981  0.1436
  139OSM   H18G15248   6.121   1.309   8.185 -1.9649  2.4438  1.3643
  139OSM   H18H15249   6.126   1.477   8.141 -1.9756 -1.2748 -0.3760
  140OSM      N15250   6.038   2.531   6.263 -0.0994  0.7192  0.0173
  140OSM    C1515251   6.166   2.579   6.184  0.2472  0.1782  0.0138
  140OSM   H15A15252   6.134   2.620   6.089  1.6419 -1.2861 -1.1218
  140OSM   H15B15253   6.235   2.498   6.167  1.6146  1.4826 -0.8441
  140OSM   H15C15254   6.215   2.658   6.239  1.6166 -0.9918  0.4848
  140OSM    C1415255   5.937   2.641   6.238 -0.2931 -0.3809  0.4772
  140OSM   H14A15256   5.837   2.612   6.266 -0.2956 -0.1869  0.6757
  140OSM   H14B15257   5.938   2.664   6.133 -1.0769  0.2214  0.5995
  140OSM   H14C15258   5.970   2.727   6.296  0.1012 -0.6034  0.5832
  140OSM    C1315259   5.985   2.407   6.203 -0.1934  0.3792 -0.2224
  140OSM   H13A15260   5.973   2.421   6.097  1.0802 -0.4483 -0.4906
  140OSM   H13B15261   5.900   2.367   6.255  0.9431  0.5751  1.8436
  140OSM   H13C15262   6.051   2.322   6.192  0.7343  1.1765 -0.9460
  140OSM    C1215263   6.067   2.519   6.413  0.2158  1.2039  0.5655
  140OSM   H12A15264   5.981   2.469   6.454  1.5495 -1.0509  0.6511
  140OSM   H12B15265   6.065   2.617   6.460 -3.9736  1.3978  0.2255
  140OSM    C1115266   6.191   2.437   6.458 -0.6221 -0.3768 -0.1702
  140OSM   H11A15267   6.184   2.410   6.565 -2.6413  2.0204  0.3526
  140OSM   H11B15268   6.283   2.500   6.448  1.8799 -3.5554  1.6793
  140OSM      P15269   6.162   2.184   6.418  0.2581  0.2241 -0.1922
  140OSM    O1315270   6.016   2.192   6.442  0.3487  0.3613 -0.1135
  140OSM    O1415271   6.204   2.075   6.327  0.0567  0.4461 -0.7819
  140OSM    O1115272   6.235   2.169   6.553  0.3346 -0.2978 -0.4369
  140OSM    O1215273   6.217   2.324   6.369  0.4055  0.1387 -0.1155
  140OSM    C1S15274   6.375   2.178   6.574 -0.1398  0.0614  0.4089
  140OSM    H1S15275   6.419   2.234   6.489 -0.9239 -1.2032 -0.8431
  140OSM    H1T15276   6.427   2.080   6.564  0.3975  0.5716 -2.3160
  140OSM     NF15277   6.562   2.239   6.725 -0.7320  0.2577  0.4206
  140OSM    HNF15278   6.594   2.179   6.798 -1.9931 -1.1188 -0.1164
  140OSM    C2S15279   6.416   2.244   6.714  0.5194  0.0969  0.8486
  140OSM    H2S15280   6.379   2.349   6.709 -0.8380 -0.3804  0.5671
  140OSM    C3S15281   6.342   2.166   6.830 -0.0305 -0.3641  0.1202
  140OSM    H3S15282   6.391   2.066   6.818  3.8512  1.2333  1.7258
  140OSM     O315283   6.201   2.151   6.819 -0.4222 -0.2900  0.3728
  140OSM    HO315284   6.175   2.150   6.726 -0.3693  1.1405  0.3318
  140OSM    C4S15285   6.392   2.235   6.958  0.0329  0.5218 -0.3203
  140OSM    H4S15286   6.460   2.173   7.018  0.1372  1.7556  0.8572
  140OSM    C5S15287   6.361   2.360   6.991  0.5075 -0.4954 -0.3986
  140OSM    H5S15288   6.304   2.421   6.920  4.8023  1.9587 -1.8649
  140OSM    C6S15289   6.416   2.439   7.110 -0.2831 -0.1681 -0.3358
  140OSM    H6S15290   6.348   2.523   7.138  0.2860 -0.3096  1.5691
  140OSM    H6T15291   6.510   2.492   7.085 -0.0752  0.6097  1.9746
  140OSM    C7S15292   6.429   2.356   7.238  0.4104  0.7629 -0.3408
  140OSM    H7S15293   6.492   2.425   7.298 -1.0883  1.3757  0.5684
  140OSM    H7T15294   6.477   2.260   7.210  2.7923  2.1939 -1.2826
  140OSM    C8S15295   6.298   2.331   7.318  0.5675  0.5239  0.3970
  140OSM    H8S15296   6.251   2.233   7.293 -0.5385  1.0351  0.4218
  140OSM    H8T15297   6.228   2.410   7.284 -0.8530 -1.1952 -0.7460
  140OSM    C9S15298   6.323   2.318   7.469  0.0047 -0.3099  0.1896
  140OSM    H9S15299   6.415   2.256   7.474 -1.3463 -2.4818 -1.0907
  140OSM    H9T15300   6.237   2.268   7.518  0.3132 -0.3637  0.6735
  140OSM   C10S15301   6.332   2.456   7.542  0.2303 -0.6031  0.4380
  140OSM   H10S15302   6.233   2.501   7.562  1.5601  2.6252  0.0436
  140OSM   H10T15303   6.391   2.528   7.482 -0.8962  1.1499  1.3961
  140OSM   C11S15304   6.397   2.428   7.673  0.0243  0.3059 -0.1552
  140OSM   H11S15305   6.502   2.399   7.652  0.6464  1.3269  1.4745
  140OSM   H11T15306   6.346   2.346   7.728 -0.1733  1.1484  0.9228
  140OSM   C12S15307   6.399   2.558   7.756 -0.8928  0.0520  0.2018
  140OSM   H12S15308   6.344   2.633   7.695 -1.6450 -1.2408 -0.7158
  140OSM   H12T15309   6.505   2.590   7.760 -0.8291 -0.0536 -0.5934
  140OSM   C13S15310   6.347   2.547   7.895 -0.7219  0.1340 -0.1152
  140OSM   H13S15311   6.389   2.635   7.949 -1.1228  0.9733 -1.1471
  140OSM   H13T15312   6.380   2.457   7.951 -1.2793 -0.6220 -0.9729
  140OSM   C14S15313   6.196   2.568   7.902 -0.5118  0.2420  0.0269
  140OSM   H14S15314   6.157   2.473   7.861  1.4924  0.2427 -1.9472
  140OSM   H14T15315   6.171   2.637   7.819  3.8068  0.7483 -0.9633
  140OSM   C15S15316   6.138   2.599   8.041  0.3165 -0.3067 -0.3537
  140OSM   H15S15317   6.030   2.615   8.021  0.2637  1.1697  0.9490
  140OSM   H15T15318   6.184   2.689   8.087  1.5950 -1.5947  0.9161
  140OSM   C16S15319   6.151   2.486   8.137 -1.0985 -0.6578 -0.2332
  140OSM   H16S15320   6.250   2.478   8.187 -2.2923 -1.5730  2.0755
  140OSM   H16T15321   6.120   2.399   8.076 -0.9822 -0.6520 -0.3019
  140OSM   C17S15322   6.059   2.517   8.256 -0.3824  0.1716 -0.0905
  140OSM   H17S15323   5.962   2.562   8.226 -0.5942  0.0875  0.4593
  140OSM   H17T15324   6.117   2.593   8.315 -0.6207 -0.5451  1.0855
  140OSM   C18S15325   6.032   2.393   8.346  0.3929 -0.3687 -0.1653
  140OSM   H18S15326   5.957   2.428   8.421 -0.3766  0.6226 -1.3709
  140OSM   H18T15327   6.130   2.363   8.388  1.4539  0.8906 -1.7061
  140OSM   H18U15328   6.007   2.302   8.289  1.8989 -0.7587 -0.2270
  140OSM    C1F15329   6.641   2.316   6.653 -0.6090  0.8933 -0.3029
  140OSM     OF15330   6.591   2.410   6.594 -0.8288  0.0329  0.5311
  140OSM    C2F15331   6.789   2.294   6.657  0.6458  0.2960  0.0391
  140OSM    H2F15332   6.819   2.401   6.657 -1.0369  0.7789 -0.7039
  140OSM    H2G15333   6.823   2.241   6.565  0.3017  2.4182 -1.3513
  140OSM    C3F15334   6.837   2.226   6.784  0.0957  0.0131  0.0366
  140OSM    H3F15335   6.948   2.224   6.780  0.1328  1.0148  0.3089
  140OSM    H3G15336   6.799   2.123   6.769  1.1694 -0.1513 -1.6736
  140OSM    C4F15337   6.800   2.292   6.914 -0.1514 -0.4029  0.6747
  140OSM    H4F15338   6.691   2.303   6.930 -0.3283 -1.8975  0.5790
  140OSM    H4G15339   6.842   2.395   6.917  1.4675 -0.9549 -1.6689
  140OSM    C5F15340   6.853   2.212   7.041 -0.5846  0.0710  0.6297
  140OSM    H5F15341   6.963   2.201   7.034 -0.7123  0.1493 -1.9511
  140OSM    H5G15342   6.805   2.112   7.049  2.4243 -1.6287 -1.4200
  140OSM    C6F15343   6.818   2.275   7.176 -0.9449 -0.5742 -0.5724
  140OSM    H6F15344   6.712   2.306   7.182 -0.3692  1.6594 -1.3075
  140OSM    H6G15345   6.874   2.370   7.163 -1.9714 -0.1866 -2.3559
  140OSM    C7F15346   6.875   2.198   7.294 -0.6808 -0.3408 -0.5838
  140OSM    H7F15347   6.977   2.172   7.257 -1.4621 -1.7686 -1.7524
  140OSM    H7G15348   6.820   2.105   7.322 -0.5467  0.1412  1.4035
  140OSM    C8F15349   6.883   2.289   7.418  0.2686  0.9346  0.5497
  140OSM    H8F15350   6.904   2.393   7.387  1.1586  1.1544  1.8662
  140OSM    H8G15351   6.972   2.260   7.479 -1.2646 -0.8509  2.0248
  140OSM    C9F15352   6.754   2.285   7.494 -0.0852 -0.0206  0.2761
  140OSM    H9F15353   6.676   2.348   7.449 -0.1746 -1.1142 -1.1298
  140OSM   C10F15354   6.730   2.184   7.591 -0.0250 -0.6713  0.2786
  140OSM   H10F15355   6.634   2.174   7.645  0.8458 -0.6512  1.8455
  140OSM   C11F15356   6.826   2.071   7.627  0.7783 -0.6907 -0.2892
  140OSM   H11F15357   6.899   2.057   7.544  1.8973 -1.9111  0.8631
  140OSM   H11G15358   6.774   1.973   7.638 -0.7577  0.2711  1.1996
  140OSM   C12F15359   6.904   2.108   7.751 -0.3409 -0.3866 -0.1135
  140OSM   H12F15360   6.942   2.212   7.753 -1.4870  0.0290  0.3638
  140OSM   H12G15361   7.003   2.056   7.757  0.3472  0.6663 -2.0377
  140OSM   C13F15362   6.841   2.068   7.890  0.1305  0.4418  0.2300
  140OSM   H13F15363   6.918   2.045   7.967 -0.0033  2.4610  0.9791
  140OSM   H13G15364   6.776   1.979   7.872  1.9817 -1.5872  3.2192
  140OSM   C14F15365   6.756   2.179   7.934 -0.0074 -0.2822 -0.5182
  140OSM   H14F15366   6.677   2.218   7.867 -0.6836 -1.7601 -0.5911
  140OSM   H14G15367   6.821   2.269   7.945  0.1978 -0.7376  2.3969
  140OSM   C15F15368   6.691   2.160   8.077  0.4420  0.9313 -0.5007
  140OSM   H15F15369   6.764   2.138   8.158 -0.3297  0.8596  0.1883
  140OSM   H15G15370   6.630   2.068   8.066  1.6535 -0.2047  1.8878
  140OSM   C16F15371   6.607   2.283   8.103 -0.3477 -0.8641 -0.3607
  140OSM   H16F15372   6.534   2.287   8.019 -1.3584  0.9423  0.5612
  140OSM   H16G15373   6.671   2.374   8.104  0.9278 -1.6962 -2.3417
  140OSM   C17F15374   6.533   2.276   8.231 -0.0816  0.0795 -0.2778
  140OSM   H17F15375   6.519   2.172   8.266  1.4712  0.4892  1.6369
  140OSM   H17G15376   6.437   2.331   8.222  0.3761  0.9287 -0.0332
  140OSM   C18F15377   6.610   2.350   8.348 -0.4501  0.7467  0.1548
  140OSM   H18F15378   6.568   2.315   8.445 -0.4430  0.7718  0.1670
  140OSM   H18G15379   6.609   2.461   8.346  2.0163  0.8812  2.9876
  140OSM   H18H15380   6.719   2.327   8.344 -0.7517 -0.9050  1.0565
  141OSM      N15381   5.279   4.215   5.782 -0.8859 -0.1935  0.6552
  141OSM    C1515382   5.292   4.067   5.763  0.0854  0.4712 -0.1837
  141OSM   H15A15383   5.337   4.044   5.668 -0.1403  1.7962 -0.6260
  141OSM   H15B15384   5.195   4.021   5.768 -0.3304  1.2685 -0.9851
  141OSM   H15C15385   5.354   4.023   5.840  3.0329 -0.0312 -2.7511
  141OSM    C1415386   5.413   4.276   5.739 -0.2178  0.6767 -0.6304
  141OSM   H14A15387   5.496   4.238   5.797 -0.7678 -0.3464 -0.5027
  141OSM   H14B15388   5.407   4.384   5.740 -0.0188  0.7720  3.9864
  141OSM   H14C15389   5.444   4.238   5.644 -0.8288  0.0851 -0.5949
  141OSM    C1315390   5.177   4.268   5.695  0.0751 -0.0046 -0.2279
  141OSM   H13A15391   5.161   4.375   5.686 -3.1992 -0.3257  0.8566
  141OSM   H13B15392   5.089   4.222   5.737  0.0861  1.9111  2.0116
  141OSM   H13C15393   5.191   4.229   5.596 -0.0977 -0.5795 -0.0283
  141OSM    C1215394   5.242   4.242   5.926  0.4343 -0.6898  0.5809
  141OSM   H12A15395   5.156   4.180   5.946  0.2226 -0.6338 -0.1560
  141OSM   H12B15396   5.202   4.341   5.943 -1.2956 -1.2343 -0.2553
  141OSM    C1115397   5.338   4.218   6.042  0.6976 -0.2807 -0.0529
  141OSM   H11A15398   5.302   4.266   6.136 -1.2274  3.7190 -2.6608
  141OSM   H11B15399   5.429   4.271   6.006  0.8374 -0.1960  0.4355
  141OSM      P15400   5.263   3.987   6.143  0.9597  0.5226  0.1413
  141OSM    O1315401   5.125   4.019   6.106 -0.4763 -0.0530  0.0321
  141OSM    O1415402   5.302   3.844   6.128 -0.0611 -0.6538 -0.2003
  141OSM    O1115403   5.278   4.044   6.290 -0.4835  0.3110 -0.4932
  141OSM    O1215404   5.363   4.076   6.063 -0.4988 -0.5245  0.1402
  141OSM    C1S15405   5.405   4.043   6.362 -0.0914 -0.2284 -0.0207
  141OSM    H1S15406   5.479   4.099   6.301 -0.5991  1.6295  1.0625
  141OSM    H1T15407   5.439   3.940   6.387 -1.6140 -1.4687 -2.8479
  141OSM     NF15408   5.508   4.120   6.571 -0.6756 -0.0117 -0.4773
  141OSM    HNF15409   5.514   4.056   6.647 -0.2744 -0.0569 -0.5423
  141OSM    C2S15410   5.386   4.113   6.502 -0.1709 -0.0025  0.3541
  141OSM    H2S15411   5.351   4.217   6.489 -0.4523 -0.1282  0.0992
  141OSM    C3S15412   5.272   4.039   6.584  0.7704  0.3262  0.5024
  141OSM    H3S15413   5.311   3.938   6.612 -0.0418  0.3373  1.7435
  141OSM     O315414   5.147   4.020   6.526 -0.1625 -0.7479 -0.9103
  141OSM    HO315415   5.162   4.045   6.434  0.0253  0.1996 -0.6287
  141OSM    C4S15416   5.250   4.103   6.719 -0.2244  0.7613  0.5108
  141OSM    H4S15417   5.297   4.042   6.798 -0.0103 -0.9744 -0.9253
  141OSM    C5S15418   5.187   4.218   6.749 -0.8691  1.2083  0.3585
  141OSM    H5S15419   5.131   4.273   6.673 -1.0901  0.2068 -0.2214
  141OSM    C6S15420   5.155   4.278   6.889 -0.4944 -0.1977 -0.1261
  141OSM    H6S15421   5.045   4.282   6.902 -0.4358 -1.2770  0.7370
  141OSM    H6T15422   5.192   4.383   6.898  0.5080 -0.3694 -1.9934
  141OSM    C7S15423   5.216   4.214   7.017 -0.4655 -0.4614  0.1964
  141OSM    H7S15424   5.325   4.235   7.015 -0.8390  1.6413  0.2595
  141OSM    H7T15425   5.193   4.106   7.026  0.5595 -0.5707  1.8637
  141OSM    C8S15426   5.172   4.286   7.153 -0.1281 -0.4154 -0.1023
  141OSM    H8S15427   5.063   4.286   7.175  0.1780 -1.6835  1.5921
  141OSM    H8T15428   5.202   4.393   7.153 -2.2164  0.2253  2.8611
  141OSM    C9S15429   5.238   4.225   7.286  0.3149  0.3313  0.9636
  141OSM    H9S15430   5.346   4.229   7.263 -0.2107 -0.2574 -1.8406
  141OSM    H9T15431   5.225   4.115   7.284 -0.2440  0.3827 -2.4947
  141OSM   C10S15432   5.207   4.298   7.419  0.0021 -0.5444 -0.7012
  141OSM   H10S15433   5.101   4.331   7.412  0.2775  1.4443  3.0720
  141OSM   H10T15434   5.278   4.381   7.437  0.0489 -0.6849 -0.2106
  141OSM   C11S15435   5.231   4.220   7.553 -0.5216 -0.2479 -0.3574
  141OSM   H11S15436   5.340   4.224   7.574 -0.5895 -1.0285  0.1379
  141OSM   H11T15437   5.204   4.113   7.543  0.0386 -0.4199 -0.0765
  141OSM   C12S15438   5.167   4.282   7.674 -0.2153 -0.8883  0.7234
  141OSM   H12S15439   5.057   4.274   7.657 -0.0262 -2.3576  0.0910
  141OSM   H12T15440   5.170   4.392   7.680 -1.5037 -0.5644 -2.8735
  141OSM   C13S15441   5.197   4.206   7.810 -0.0292 -0.2564  0.4845
  141OSM   H13S15442   5.302   4.230   7.839 -0.0794  0.0086  0.4477
  141OSM   H13T15443   5.190   4.097   7.788  1.9300  0.0825 -2.1443
  141OSM   C14S15444   5.105   4.225   7.931 -0.1877  0.3204  0.8634
  141OSM   H14S15445   4.999   4.193   7.922  0.5690 -1.7225 -1.1248
  141OSM   H14T15446   5.110   4.334   7.953 -0.3681  0.7835 -1.2134
  141OSM   C15S15447   5.170   4.151   8.054 -0.0631  0.2514  0.3746
  141OSM   H15S15448   5.278   4.177   8.049  0.1233 -0.1870  1.7957
  141OSM   H15T15449   5.163   4.046   8.021  0.6070  0.3557 -0.1238
  141OSM   C16S15450   5.096   4.192   8.181 -0.4996 -0.4568 -0.8614
  141OSM   H16S15451   4.988   4.167   8.171 -0.4019 -1.4173  0.3526
  141OSM   H16T15452   5.097   4.302   8.197  0.5448 -0.8966  2.2985
  141OSM   C17S15453   5.140   4.105   8.299 -0.3250 -0.3778 -0.1635
  141OSM   H17S15454   5.152   4.004   8.256  0.6095  0.0350 -0.8786
  141OSM   H17T15455   5.066   4.104   8.382  0.3132  3.4204  0.5408
  141OSM   C18S15456   5.276   4.145   8.364 -0.3281  0.8047 -0.5045
  141OSM   H18S15457   5.350   4.133   8.281  0.4232 -0.7635  0.3660
  141OSM   H18T15458   5.299   4.074   8.446  1.4073 -0.1833 -1.7844
  141OSM   H18U15459   5.257   4.250   8.395  0.8999  0.5961  1.0263
  141OSM    C1F15460   5.607   4.197   6.542 -0.1387 -0.1835 -0.6110
  141OSM     OF15461   5.606   4.269   6.444 -0.4889  0.0685 -0.3913
  141OSM    C2F15462   5.713   4.204   6.641  0.5279 -0.3028  0.0916
  141OSM    H2F15463   5.810   4.190   6.589  2.2574  0.6515  2.9212
  141OSM    H2G15464   5.712   4.116   6.708  0.6466 -0.0630  0.4127
  141OSM    C3F15465   5.708   4.337   6.732  0.5283  0.5076  0.1592
  141OSM    H3F15466   5.612   4.333   6.788 -0.2079 -1.6887 -1.1647
  141OSM    H3G15467   5.708   4.426   6.665  1.0572  1.2189  1.0988
  141OSM    C4F15468   5.836   4.333   6.815 -0.0386 -0.1373 -0.4227
  141OSM    H4F15469   5.928   4.364   6.761  0.7698  1.3439  1.7254
  141OSM    H4G15470   5.861   4.228   6.842 -1.6941 -0.6070 -0.7017
  141OSM    C5F15471   5.821   4.400   6.947  0.3061  0.1266 -0.2967
  141OSM    H5F15472   5.722   4.371   6.990  0.7049 -0.6084  0.1323
  141OSM    H5G15473   5.837   4.509   6.933  0.4370 -0.0381 -1.4772
  141OSM    C6F15474   5.923   4.352   7.051  0.0117 -0.3308 -0.0418
  141OSM    H6F15475   6.023   4.351   7.003  0.3557 -0.8878  0.6667
  141OSM    H6G15476   5.901   4.247   7.078  1.5094 -0.4283  0.8361
  141OSM    C7F15477   5.920   4.425   7.184 -0.7715 -0.1395 -0.4180
  141OSM    H7F15478   5.833   4.400   7.248 -0.2237  1.1650  0.8739
  141OSM    H7G15479   5.896   4.529   7.153  0.3502 -0.2349 -1.6128
  141OSM    C8F15480   6.061   4.425   7.256 -0.4443 -0.2477  0.4232
  141OSM    H8F15481   6.072   4.518   7.315  1.9733  0.0116 -0.3936
  141OSM    H8G15482   6.134   4.433   7.173 -0.5995 -3.9241 -0.1719
  141OSM    C9F15483   6.068   4.301   7.341 -0.3159 -0.0024 -0.4383
  141OSM    H9F15484   6.057   4.210   7.280  0.5875  0.1513 -0.8362
  141OSM   C10F15485   6.074   4.280   7.475 -1.3247  0.3247  0.3250
  141OSM   H10F15486   6.065   4.178   7.515  1.6000  0.7770  2.3503
  141OSM   C11F15487   6.084   4.379   7.589 -0.3809 -0.3332  0.3205
  141OSM   H11F15488   6.103   4.480   7.545 -0.8398 -0.5398 -0.3481
  141OSM   H11G15489   6.153   4.352   7.672  2.1849  0.2983 -1.5472
  141OSM   C12F15490   5.949   4.375   7.662  0.6481 -0.5115 -0.3096
  141OSM   H12F15491   5.861   4.355   7.597 -0.2266 -0.0222  0.7130
  141OSM   H12G15492   5.938   4.463   7.728  1.2837 -1.7117  1.4446
  141OSM   C13F15493   5.938   4.256   7.757 -0.4029  0.6964 -0.3498
  141OSM   H13F15494   5.971   4.165   7.702  0.4233 -0.7869  2.5051
  141OSM   H13G15495   5.834   4.241   7.792 -0.2847 -1.2322 -0.7686
  141OSM   C14F15496   6.037   4.258   7.870 -0.1807 -0.4385  0.1422
  141OSM   H14F15497   6.041   4.351   7.932  1.1812 -0.7983  0.5951
  141OSM   H14G15498   6.141   4.246   7.834  0.7675 -3.3083  3.5942
  141OSM   C15F15499   6.018   4.144   7.973  0.5997 -0.0148 -0.0719
  141OSM   H15F15500   6.040   4.047   7.923  3.1130  0.4750  0.0575
  141OSM   H15G15501   5.913   4.145   8.008  0.3327  0.2542 -0.8523
  141OSM   C16F15502   6.105   4.169   8.098  0.0708  0.1308 -0.0474
  141OSM   H16F15503   6.213   4.189   8.084  0.3306  0.1670  1.9393
  141OSM   H16G15504   6.099   4.070   8.148 -0.2459  0.4694  0.6003
  141OSM   C17F15505   6.054   4.272   8.200 -0.3569  0.1650 -0.4784
  141OSM   H17F15506   5.955   4.233   8.230  1.1121 -2.9521  0.5079
  141OSM   H17G15507   6.039   4.372   8.153 -0.9544 -0.6307 -1.9963
  141OSM   C18F15508   6.150   4.291   8.318 -0.3969 -0.1693 -0.7797
  141OSM   H18F15509   6.241   4.340   8.278  1.1764 -2.2329  0.1647
  141OSM   H18G15510   6.179   4.194   8.364 -0.1560  0.0910 -0.3845
  141OSM   H18H15511   6.106   4.347   8.403  1.1988 -1.2613  0.8144
  142OSM      N15512   5.761   5.614   6.035  0.3596  0.4331  0.4175
  142OSM    C1515513   5.779   5.736   5.953  0.2741 -0.0323 -0.2959
  142OSM   H15A15514   5.881   5.770   5.950  0.5264 -0.7620  0.0648
  142OSM   H15B15515   5.721   5.821   5.985  0.3231  0.7527 -2.2376
  142OSM   H15C15516   5.757   5.719   5.848  0.4200 -1.0823 -0.1613
  142OSM    C1415517   5.620   5.583   6.042  0.1092 -0.4386  0.1235
  142OSM   H14A15518   5.580   5.663   6.102  0.6859 -0.4033  0.4614
  142OSM   H14B15519   5.596   5.490   6.092 -0.9215  0.8162  2.0004
  142OSM   H14C15520   5.584   5.585   5.940 -0.2618  0.9620  0.2745
  142OSM    C1315521   5.822   5.501   5.961  0.0665 -0.7740 -0.1808
  142OSM   H13A15522   5.758   5.479   5.877 -0.9487  1.1417  0.0614
  142OSM   H13B15523   5.817   5.420   6.032 -2.2369  1.3172  2.1400
  142OSM   H13C15524   5.923   5.528   5.934 -0.0227  1.9362  2.0466
  142OSM    C1215525   5.821   5.645   6.171  0.3368 -0.3143 -0.0024
  142OSM   H12A15526   5.928   5.638   6.163  0.3285  0.1534 -0.5646
  142OSM   H12B15527   5.791   5.568   6.241  2.0127 -0.5542  0.4658
  142OSM    C1115528   5.784   5.779   6.241 -0.7974  0.0741 -0.0239
  142OSM   H11A15529   5.836   5.861   6.187  0.6363 -0.8244 -0.0281
  142OSM   H11B15530   5.824   5.776   6.345 -0.3742 -2.0113 -0.2219
  142OSM      P15531   5.566   5.928   6.204  0.3343  0.5188 -0.0286
  142OSM    O1315532   5.637   5.988   6.091  0.1458 -0.0721  0.2509
  142OSM    O1415533   5.421   5.904   6.188 -0.2548 -0.1425  0.3527
  142OSM    O1115534   5.578   6.021   6.323  0.1240  0.0077 -0.1552
  142OSM    O1215535   5.641   5.793   6.243  0.4364 -0.6221 -0.4289
  142OSM    C1S15536   5.661   6.007   6.441  0.4791  0.0925  0.6063
  142OSM    H1S15537   5.756   6.061   6.420 -0.0217  1.1049  0.8866
  142OSM    H1T15538   5.670   5.899   6.465 -1.6805 -0.5159 -1.1527
  142OSM     NF15539   5.681   6.053   6.685 -0.3960  0.2573  0.0914
  142OSM    HNF15540   5.669   5.975   6.745 -0.8710 -0.8620 -1.4129
  142OSM    C2S15541   5.595   6.059   6.568  0.9526 -0.3339  1.2848
  142OSM    H2S15542   5.568   6.166   6.550 -0.4054 -1.2357 -2.4288
  142OSM    C3S15543   5.464   5.984   6.594 -0.7777  0.0507 -0.5063
  142OSM    H3S15544   5.493   5.877   6.603  3.1966  1.0841  0.1969
  142OSM     O315545   5.374   5.997   6.486  0.4630  0.1881  0.6687
  142OSM    HO315546   5.426   6.009   6.406 -1.0648 -0.6047 -0.4681
  142OSM    C4S15547   5.397   6.032   6.720  0.8859  0.1768 -0.6600
  142OSM    H4S15548   5.353   6.133   6.719  1.8695  0.6284  0.4900
  142OSM    C5S15549   5.389   5.952   6.827  0.0598  0.1586  0.2076
  142OSM    H5S15550   5.447   5.860   6.811  2.0874  1.5316 -0.5601
  142OSM    C6S15551   5.332   5.981   6.964  0.1581 -0.4493 -0.3468
  142OSM    H6S15552   5.260   5.900   6.987 -1.4863  1.2242  0.5582
  142OSM    H6T15553   5.280   6.080   6.958  2.1691  0.8068  2.2673
  142OSM    C7S15554   5.438   5.983   7.080 -0.4882 -0.1230 -0.2008
  142OSM    H7S15555   5.505   6.068   7.057 -0.4116 -0.4290 -1.1088
  142OSM    H7T15556   5.504   5.894   7.075  1.0411  1.0832 -2.2953
  142OSM    C8S15557   5.368   6.005   7.213 -0.2478  0.7857 -0.1512
  142OSM    H8S15558   5.289   5.930   7.231 -0.4695  0.3215 -2.7667
  142OSM    H8T15559   5.323   6.106   7.203  1.7219  1.7257  0.1289
  142OSM    C9S15560   5.458   6.011   7.341 -0.3547  0.2388 -0.0251
  142OSM    H9S15561   5.510   6.109   7.341 -2.0865  1.2085  2.9980
  142OSM    H9T15562   5.538   5.933   7.339  0.5266  1.1220  0.7139
  142OSM   C10S15563   5.381   5.998   7.469  0.3338  0.1347  0.2581
  142OSM   H10S15564   5.323   5.903   7.474 -2.1871  1.4925 -1.6465
  142OSM   H10T15565   5.296   6.069   7.467  0.4228  0.2385  0.2104
  142OSM   C11S15566   5.455   6.031   7.601 -0.6131  0.7592  0.9571
  142OSM   H11S15567   5.508   6.128   7.596 -1.5156  1.1759 -0.9769
  142OSM   H11T15568   5.532   5.953   7.621 -0.7368  0.3142 -0.2755
  142OSM   C12S15569   5.354   6.053   7.718  0.2857 -1.3248 -0.3631
  142OSM   H12S15570   5.274   6.127   7.697  0.2342 -0.3401  2.9819
  142OSM   H12T15571   5.401   6.104   7.806 -0.3862 -1.4954  0.1001
  142OSM   C13S15572   5.296   5.915   7.768  0.1705 -0.3745 -0.6527
  142OSM   H13S15573   5.377   5.838   7.769 -0.4832 -1.0650 -0.6091
  142OSM   H13T15574   5.212   5.880   7.705  1.7720 -1.7519 -2.0822
  142OSM   C14S15575   5.244   5.924   7.914 -0.2635  0.2987 -0.8753
  142OSM   H14S15576   5.169   5.845   7.937  2.2401 -1.9596 -0.2527
  142OSM   H14T15577   5.198   6.024   7.933  1.7293  1.0726  0.0188
  142OSM   C15S15578   5.354   5.935   8.023  0.2450  0.2711 -0.4310
  142OSM   H15S15579   5.379   6.043   8.026 -1.8849  0.8309 -1.6974
  142OSM   H15T15580   5.441   5.870   8.003  0.4146  1.4220 -3.7212
  142OSM   C16S15581   5.298   5.904   8.164  0.2349  0.2109  0.3026
  142OSM   H16S15582   5.380   5.910   8.239 -0.7828 -2.4855  1.7212
  142OSM   H16T15583   5.255   5.801   8.158  1.1416 -0.0209 -3.1936
  142OSM   C17S15584   5.188   5.996   8.198 -0.7127 -0.1520 -0.1932
  142OSM   H17S15585   5.090   5.952   8.171 -0.1013 -1.5105 -0.2537
  142OSM   H17T15586   5.191   6.086   8.133 -0.3725 -1.2829 -1.7511
  142OSM   C18S15587   5.181   6.041   8.344 -0.4751 -0.0636 -0.6455
  142OSM   H18S15588   5.262   6.110   8.374 -0.7914 -0.3384  0.8636
  142OSM   H18T15589   5.192   5.957   8.417  2.2636  1.2947  0.5606
  142OSM   H18U15590   5.086   6.093   8.367  0.2781 -0.7438  4.5989
  142OSM    C1F15591   5.777   6.143   6.700  0.5780  0.2577  0.0546
  142OSM     OF15592   5.784   6.236   6.623  0.2551  0.2190  0.2817
  142OSM    C2F15593   5.881   6.125   6.809  0.3613 -0.0824  0.1376
  142OSM    H2F15594   5.956   6.206   6.799 -0.7975  1.0922  0.6525
  142OSM    H2G15595   5.925   6.024   6.804 -0.3915 -0.5227  2.0586
  142OSM    C3F15596   5.821   6.138   6.949  0.3633  0.3291  0.1939
  142OSM    H3F15597   5.734   6.072   6.967  0.1541  1.0069  1.7064
  142OSM    H3G15598   5.791   6.243   6.972 -0.2016  0.3801 -0.7244
  142OSM    C4F15599   5.924   6.108   7.056 -0.3762  0.4140 -0.4524
  142OSM    H4F15600   6.011   6.177   7.057 -1.2157  1.4682  0.3109
  142OSM    H4G15601   5.955   6.004   7.033 -0.2418 -0.3385  2.9068
  142OSM    C5F15602   5.859   6.103   7.199 -0.4838  0.0410 -0.4442
  142OSM    H5F15603   5.761   6.051   7.202  0.4010 -1.5919  1.8911
  142OSM    H5G15604   5.843   6.210   7.224 -0.7178  0.1018 -0.8623
  142OSM    C6F15605   5.948   6.039   7.304 -0.7371  0.2843  0.2193
  142OSM    H6F15606   6.055   6.045   7.276 -1.3457  1.2229 -1.9998
  142OSM    H6G15607   5.913   5.934   7.308  3.5759 -1.2702 -0.7958
  142OSM    C7F15608   5.923   6.098   7.443 -0.1325  0.2991  0.2757
  142OSM    H7F15609   5.815   6.092   7.467 -0.0322  0.2244  0.7244
  142OSM    H7G15610   5.949   6.206   7.435 -1.2490  0.8246  3.1285
  142OSM    C8F15611   6.011   6.058   7.567 -0.0648 -0.1876  0.5403
  142OSM    H8F15612   6.106   6.027   7.519 -1.4035 -0.4549 -1.9985
  142OSM    H8G15613   5.966   5.967   7.613  0.6642 -0.2621  1.1101
  142OSM    C9F15614   6.030   6.168   7.671  0.2569  0.7269 -0.1270
  142OSM    H9F15615   6.123   6.226   7.675  0.9469 -0.3297 -0.6931
  142OSM   C10F15616   5.929   6.205   7.755 -0.6733  0.2091  0.3180
  142OSM   H10F15617   5.954   6.280   7.832  0.2536 -0.0705  0.2908
  142OSM   C11F15618   5.784   6.153   7.755  0.9245  0.0044  0.6059
  142OSM   H11F15619   5.796   6.048   7.722 -0.6291  0.7521 -2.5357
  142OSM   H11G15620   5.708   6.200   7.688  1.9203  0.1885 -0.4060
  142OSM   C12F15621   5.724   6.141   7.894  0.5676  0.7460  0.7938
  142OSM   H12F15622   5.782   6.065   7.951 -0.4042 -0.0144  0.7768
  142OSM   H12G15623   5.619   6.107   7.883  1.6214 -2.5010  0.1538
  142OSM   C13F15624   5.733   6.261   7.990 -0.1676 -0.3554 -0.2931
  142OSM   H13F15625   5.670   6.344   7.951 -0.6578  0.2882  1.8158
  142OSM   H13G15626   5.839   6.283   8.016 -0.7341  0.5617  1.2937
  142OSM   C14F15627   5.668   6.237   8.122 -0.2232  0.0575  0.1423
  142OSM   H14F15628   5.571   6.184   8.110  0.5444 -0.4718 -4.8850
  142OSM   H14G15629   5.650   6.333   8.175 -0.8391 -0.9924  1.8480
  142OSM   C15F15630   5.756   6.150   8.210  0.2366  0.0627  0.1483
  142OSM   H15F15631   5.835   6.215   8.253 -0.2268 -0.4147  1.7523
  142OSM   H15G15632   5.806   6.067   8.156  0.7230  0.3485  0.1564
  142OSM   C16F15633   5.677   6.103   8.323  0.0360  0.4261 -0.5954
  142OSM   H16F15634   5.580   6.063   8.288  1.8519 -1.8923 -3.1702
  142OSM   H16G15635   5.657   6.188   8.392  0.0825 -0.9930  1.2362
  142OSM   C17F15636   5.756   6.000   8.406  0.1838 -0.0496 -0.4585
  142OSM   H17F15637   5.840   6.051   8.457 -0.1505 -1.8183  1.9292
  142OSM   H17G15638   5.810   5.925   8.344 -0.2121 -0.1251 -0.7139
  142OSM   C18F15639   5.665   5.932   8.518 -0.3642 -0.4503  0.2568
  142OSM   H18F15640   5.734   5.871   8.580 -0.2697 -0.1747  0.4240
  142OSM   H18G15641   5.584   5.868   8.479 -0.5987 -0.5711  0.9310
  142OSM   H18H15642   5.618   6.006   8.586  0.3221  1.3571 -1.2037
  143OSM      N15643   0.779   1.604   6.448 -0.5456  0.7371 -0.5144
  143OSM    C1515644   0.820   1.695   6.558  0.0422 -0.1097  0.1984
  143OSM   H15A15645   0.833   1.797   6.524  0.2543 -0.4204 -0.6828
  143OSM   H15B15646   0.911   1.663   6.608  0.3990  0.7320  0.0933
  143OSM   H15C15647   0.747   1.701   6.637  1.3466  2.3228  1.2711
  143OSM    C1415648   0.655   1.666   6.385 -0.0183 -0.0713  0.4331
  143OSM   H14A15649   0.646   1.603   6.297 -1.3597 -0.9550  1.1805
  143OSM   H14B15650   0.676   1.770   6.367 -0.6330  0.2764  1.7169
  143OSM   H14C15651   0.567   1.656   6.447  0.1899 -1.5362  0.5151
  143OSM    C1315652   0.888   1.607   6.352 -0.1915 -0.4006  0.5966
  143OSM   H13A15653   0.968   1.546   6.391 -0.6856 -0.7250  1.1159
  143OSM   H13B15654   0.917   1.703   6.313  2.2426 -1.0358  0.7935
  143OSM   H13C15655   0.863   1.554   6.261  2.8276  0.4270 -0.7446
  143OSM    C1215656   0.755   1.462   6.492 -0.3759  0.2308  0.9270
  143OSM   H12A15657   0.739   1.402   6.404 -2.1060  3.4591 -1.0488
  143OSM   H12B15658   0.659   1.454   6.542 -0.7580  0.6055  0.2596
  143OSM    C1115659   0.871   1.388   6.570 -0.0192 -0.1600  0.2745
  143OSM   H11A15660   0.815   1.300   6.608 -0.8403 -0.4755 -1.5893
  143OSM   H11B15661   0.909   1.448   6.655  1.6493 -0.9271  0.0737
  143OSM      P15662   1.098   1.258   6.536  0.2332  0.2266  0.4262
  143OSM    O1315663   1.046   1.122   6.552  0.2134  0.3369 -0.2223
  143OSM    O1415664   1.217   1.273   6.447 -0.0980  0.3914  0.2955
  143OSM    O1115665   1.130   1.310   6.680  0.1994 -0.2770  0.1084
  143OSM    O1215666   0.979   1.347   6.480  0.0207 -0.0507 -0.2188
  143OSM    C1S15667   1.261   1.283   6.727 -0.8750  0.4337 -0.4144
  143OSM    H1S15668   1.346   1.324   6.670 -0.2146 -0.5596 -0.1533
  143OSM    H1T15669   1.281   1.174   6.735 -0.6381  0.5670  1.0113
  143OSM     NF15670   1.412   1.312   6.923 -0.5353  0.7487 -0.2298
  143OSM    HNF15671   1.443   1.231   6.973 -0.1341  0.8292 -0.3454
  143OSM    C2S15672   1.280   1.329   6.870  0.4423  0.7096  0.2207
  143OSM    H2S15673   1.259   1.438   6.879  1.1623  0.8254  0.5506
  143OSM    C3S15674   1.174   1.259   6.963  1.7969  0.4845 -0.1694
  143OSM    H3S15675   1.178   1.152   6.931 -1.0251  0.7883 -1.7113
  143OSM     O315676   1.037   1.301   6.935 -0.4337  0.5514  0.5389
  143OSM    HO315677   1.042   1.343   6.848 -0.1135 -1.3343 -0.3633
  143OSM    C4S15678   1.209   1.272   7.112 -0.4494  0.0880 -0.1995
  143OSM    H4S15679   1.282   1.198   7.147  0.6930  2.3096  2.2800
  143OSM    C5S15680   1.162   1.355   7.206  0.6404  1.3178 -0.6510
  143OSM    H5S15681   1.079   1.425   7.186 -0.9909 -0.2763  0.3697
  143OSM    C6S15682   1.208   1.361   7.350  0.1160  0.1842  0.0328
  143OSM    H6S15683   1.121   1.399   7.407 -0.5487 -0.4088 -0.5714
  143OSM    H6T15684   1.277   1.447   7.357  0.2674  0.3703 -2.8086
  143OSM    C7S15685   1.267   1.229   7.419 -0.5638 -0.1722  0.7109
  143OSM    H7S15686   1.363   1.199   7.372 -0.8087  2.8037 -1.8297
  143OSM    H7T15687   1.191   1.153   7.392 -0.2356  0.4855 -2.1523
  143OSM    C8S15688   1.294   1.240   7.565  0.4807  0.3184 -0.9428
  143OSM    H8S15689   1.196   1.258   7.616  0.5597 -3.0227  0.5529
  143OSM    H8T15690   1.367   1.321   7.586  2.8684 -2.3660  1.3743
  143OSM    C9S15691   1.347   1.115   7.632  0.2054 -0.5316  0.2768
  143OSM    H9S15692   1.456   1.100   7.615 -0.2045 -1.7945 -1.4196
  143OSM    H9T15693   1.293   1.036   7.575 -0.8580 -0.3978  1.0930
  143OSM   C10S15694   1.324   1.127   7.783  0.4263 -0.4746  0.5828
  143OSM   H10S15695   1.216   1.148   7.800  0.3615  0.1183 -0.5309
  143OSM   H10T15696   1.392   1.209   7.814  1.8649 -1.7574  0.8882
  143OSM   C11S15697   1.360   1.007   7.866  0.4362  0.3521  0.3165
  143OSM   H11S15698   1.466   1.017   7.897  0.3164  2.9348 -0.0620
  143OSM   H11T15699   1.346   0.917   7.802 -0.8571  0.4806  0.4033
  143OSM   C12S15700   1.270   1.012   7.986  0.1354  0.7725 -0.0436
  143OSM   H12S15701   1.161   1.021   7.966  0.4908  0.3336 -2.2015
  143OSM   H12T15702   1.289   1.106   8.042 -0.2968 -0.9002  3.0666
  143OSM   C13S15703   1.296   0.888   8.079 -0.4147 -0.2500 -0.5333
  143OSM   H13S15704   1.404   0.866   8.091 -0.2589  0.4162 -0.7065
  143OSM   H13T15705   1.257   0.806   8.015  0.0609 -0.6279 -0.3403
  143OSM   C14S15706   1.196   0.895   8.199 -0.1843 -0.5370  0.4451
  143OSM   H14S15707   1.089   0.903   8.173 -0.2225  0.6074  0.9314
  143OSM   H14T15708   1.202   0.992   8.254  1.1345 -1.4725  2.0185
  143OSM   C15S15709   1.218   0.786   8.305 -0.1325 -0.3390  0.0963
  143OSM   H15S15710   1.204   0.839   8.401  0.6545 -1.1227  0.6581
  143OSM   H15T15711   1.318   0.740   8.289  0.6733  0.6393  2.1399
  143OSM   C16S15712   1.112   0.672   8.292  0.0825 -0.6142  0.0276
  143OSM   H16S15713   1.103   0.661   8.181 -3.1720  1.0173  0.0923
  143OSM   H16T15714   1.009   0.704   8.318  0.4875  0.7450 -0.0091
  143OSM   C17S15715   1.164   0.545   8.352  0.5362  0.3950 -0.6052
  143OSM   H17S15716   1.156   0.557   8.462 -1.1362 -1.1208 -0.5436
  143OSM   H17T15717   1.273   0.536   8.329  0.5845  0.6015 -0.4664
  143OSM   C18S15718   1.077   0.433   8.312 -0.5675 -0.1879  0.0120
  143OSM   H18S15719   1.094   0.393   8.210 -2.8248 -0.4969 -0.2713
  143OSM   H18T15720   0.968   0.450   8.327 -0.2759  1.8107  0.0415
  143OSM   H18U15721   1.104   0.351   8.381  0.5513  1.2371  1.3031
  143OSM    C1F15722   1.513   1.386   6.886  0.2921 -0.0977  0.0117
  143OSM     OF15723   1.501   1.482   6.821  0.4293 -0.1727 -0.1910
  143OSM    C2F15724   1.647   1.332   6.918 -0.0940 -0.1547 -0.3650
  143OSM    H2F15725   1.715   1.399   6.862 -0.1938 -0.7719 -1.2463
  143OSM    H2G15726   1.661   1.224   6.893 -1.8718  0.1543 -2.9492
  143OSM    C3F15727   1.695   1.350   7.065  0.0346  0.0550  0.9847
  143OSM    H3F15728   1.675   1.458   7.078  0.3975  0.1305  0.9393
  143OSM    H3G15729   1.805   1.336   7.065  0.0054 -0.2489  1.9288
  143OSM    C4F15730   1.629   1.268   7.185 -0.4471  0.3150  0.4604
  143OSM    H4F15731   1.519   1.277   7.179 -0.4119 -0.4336 -2.2050
  143OSM    H4G15732   1.658   1.322   7.278  1.2560  1.6825 -0.8146
  143OSM    C5F15733   1.670   1.120   7.173 -0.6206 -0.3607 -0.3175
  143OSM    H5F15734   1.777   1.120   7.143 -1.1414 -1.4331 -2.2153
  143OSM    H5G15735   1.631   1.081   7.077  0.6052 -4.5460  0.7731
  143OSM    C6F15736   1.642   1.031   7.296 -0.6523 -0.5079  0.6893
  143OSM    H6F15737   1.611   0.932   7.256 -1.2585  0.0894 -0.3402
  143OSM    H6G15738   1.549   1.076   7.336  1.1167  3.4137  0.7022
  143OSM    C7F15739   1.759   1.006   7.388 -0.8680 -0.4421 -0.0169
  143OSM    H7F15740   1.836   0.958   7.324 -1.4923 -1.8475  0.2596
  143OSM    H7G15741   1.733   0.926   7.461 -1.0380 -1.3066 -1.0006
  143OSM    C8F15742   1.806   1.139   7.446  0.2072  0.1462 -0.2967
  143OSM    H8F15743   1.723   1.195   7.494 -1.2828  0.6941 -3.4119
  143OSM    H8G15744   1.848   1.203   7.365  0.9733  0.8294  0.6291
  143OSM    C9F15745   1.920   1.108   7.541  0.2067  0.2285  0.2633
  143OSM    H9F15746   2.022   1.112   7.500 -1.0501  1.6005 -2.8518
  143OSM   C10F15747   1.902   1.093   7.671 -0.3647  0.3522  0.2851
  143OSM   H10F15748   1.988   1.063   7.733 -1.0426 -1.1390  0.5339
  143OSM   C11F15749   1.775   1.096   7.750  0.2990 -0.1078 -0.3264
  143OSM   H11F15750   1.788   1.019   7.829 -2.2873 -1.3462 -1.0615
  143OSM   H11G15751   1.687   1.062   7.691 -1.5083  0.6231  1.8709
  143OSM   C12F15752   1.724   1.232   7.808  0.3549 -0.1937  0.3023
  143OSM   H12F15753   1.616   1.239   7.832  0.0762 -0.8645 -0.7178
  143OSM   H12G15754   1.730   1.312   7.731 -0.6833 -0.4683 -0.0689
  143OSM   C13F15755   1.802   1.270   7.930  0.7004  0.0380 -0.5624
  143OSM   H13F15756   1.776   1.375   7.952  2.3567  0.4753 -0.6820
  143OSM   H13G15757   1.909   1.272   7.901  0.7677 -1.1507 -0.4246
  143OSM   C14F15758   1.777   1.195   8.061  0.5003  0.4706 -0.0847
  143OSM   H14F15759   1.858   1.207   8.136  1.8413 -2.3919 -1.0020
  143OSM   H14G15760   1.789   1.089   8.029 -0.7442 -0.2518  1.7377
  143OSM   C15F15761   1.639   1.206   8.128 -0.6898  0.4643  0.3770
  143OSM   H15F15762   1.555   1.187   8.057  0.5278 -0.4197 -0.8560
  143OSM   H15G15763   1.623   1.314   8.145  1.9124  1.2246 -1.8456
  143OSM   C16F15764   1.625   1.110   8.249 -0.1601  0.0253  0.4747
  143OSM   H16F15765   1.719   1.117   8.308  0.7340  3.0161 -1.1926
  143OSM   H16G15766   1.616   1.003   8.222  0.0403  0.2878 -0.6595
  143OSM   C17F15767   1.506   1.143   8.337  0.1588  0.0654  0.6320
  143OSM   H17F15768   1.428   1.169   8.263 -0.7061 -2.0687  0.7576
  143OSM   H17G15769   1.534   1.234   8.395 -1.8340  1.1353 -0.0334
  143OSM   C18F15770   1.467   1.024   8.423 -0.1220  0.4820  0.1824
  143OSM   H18F15771   1.546   1.002   8.498  0.6826 -0.6992 -0.9936
  143OSM   H18G15772   1.449   0.931   8.366 -1.6906 -0.3833  2.0110
  143OSM   H18H15773   1.374   1.042   8.481 -0.6311 -1.8103  0.1004
  144OSM      N15774   6.506   1.236   6.175 -0.3227  0.1780  0.1407
  144OSM    C1515775   6.573   1.315   6.274 -0.2669 -0.4291 -0.2057
  144OSM   H15A15776   6.512   1.320   6.363  1.8789 -3.8145  1.6021
  144OSM   H15B15777   6.596   1.415   6.241  0.7738 -0.4185  0.5037
  144OSM   H15C15778   6.659   1.265   6.317 -1.5431 -0.1756  2.7984
  144OSM    C1415779   6.377   1.303   6.144 -0.2234  0.0893  0.2448
  144OSM   H14A15780   6.307   1.247   6.084  0.6861 -0.8220  0.0210
  144OSM   H14B15781   6.404   1.395   6.095  0.3070 -1.2069 -1.9608
  144OSM   H14C15782   6.320   1.325   6.233  0.7315  1.1575  0.6123
  144OSM    C1315783   6.582   1.246   6.051 -0.1747  0.1471  0.3969
  144OSM   H13A15784   6.531   1.204   5.966 -0.5031  2.7198 -0.7351
  144OSM   H13B15785   6.675   1.193   6.065  0.3512  1.1612  0.8540
  144OSM   H13C15786   6.615   1.347   6.029  2.6037 -0.9915 -0.8732
  144OSM    C1215787   6.471   1.096   6.217  0.4064  0.2537  0.6236
  144OSM   H12A15788   6.448   1.036   6.131  0.4701  2.2118 -0.7982
  144OSM   H12B15789   6.380   1.101   6.275 -0.3477  1.3813 -0.6183
  144OSM    C1115790   6.575   1.018   6.295  0.6510  0.2833  0.6485
  144OSM   H11A15791   6.539   0.915   6.318  1.1951 -0.3064 -1.1043
  144OSM   H11B15792   6.589   1.070   6.392 -0.2126  2.8844 -0.5783
  144OSM      P15793   6.837   1.033   6.273  0.4172 -0.3828 -0.1845
  144OSM    O1315794   6.935   0.930   6.218  0.2249 -0.8922  0.5029
  144OSM    O1415795   6.874   1.177   6.259 -0.2884 -0.0330  0.2830
  144OSM    O1115796   6.814   0.990   6.426  0.3074  0.5955  0.0337
  144OSM    O1215797   6.693   1.007   6.210 -0.4667 -0.5943 -0.1942
  144OSM    C1S15798   6.891   1.054   6.529 -0.1490  0.5861  0.2495
  144OSM    H1S15799   6.863   1.162   6.530  0.1071  0.6508  0.3629
  144OSM    H1T15800   7.001   1.045   6.521 -0.1805 -1.1859  1.4630
  144OSM     NF15801   6.882   1.090   6.773 -0.2572  0.1831 -0.2172
  144OSM    HNF15802   6.969   1.083   6.821 -0.5183  0.3364  0.2818
  144OSM    C2S15803   6.861   0.993   6.668 -0.2245 -0.1353  0.0713
  144OSM    H2S15804   6.755   0.961   6.656 -0.4914  0.6177  0.4241
  144OSM    C3S15805   6.938   0.858   6.697  0.3524  0.0188  0.1926
  144OSM    H3S15806   7.036   0.885   6.742 -0.0041 -0.2961  1.1536
  144OSM     O315807   6.957   0.778   6.579  0.1487  0.4510 -0.1905
  144OSM    HO315808   6.921   0.833   6.509 -1.5116 -1.3960 -0.8367
  144OSM    C4S15809   6.878   0.781   6.804 -0.6615  0.4818  0.2899
  144OSM    H4S15810   6.933   0.797   6.899  0.0434 -0.2777  0.0121
  144OSM    C5S15811   6.785   0.686   6.799  0.4936  0.5365  0.5455
  144OSM    H5S15812   6.748   0.669   6.696 -0.5770  1.7272  0.7263
  144OSM    C6S15813   6.719   0.611   6.914 -0.1547 -0.0951  0.0794
  144OSM    H6S15814   6.695   0.511   6.871 -0.8710  0.5791 -1.0816
  144OSM    H6T15815   6.621   0.658   6.939  0.7270  1.5941  0.3880
  144OSM    C7S15816   6.797   0.604   7.051  0.2634  0.2654  0.0558
  144OSM    H7S15817   6.836   0.706   7.067  0.3827  0.5413 -1.9150
  144OSM    H7T15818   6.883   0.535   7.035  0.7058  1.1377 -1.3527
  144OSM    C8S15819   6.711   0.562   7.172  0.7158 -0.6837 -0.0650
  144OSM    H8S15820   6.673   0.461   7.148  0.6283 -0.3366 -1.4380
  144OSM    H8T15821   6.627   0.635   7.171  0.9246 -0.4361 -1.1873
  144OSM    C9S15822   6.789   0.571   7.301  0.2807  0.2495  0.3165
  144OSM    H9S15823   6.821   0.675   7.326 -0.5882  0.5222  0.3236
  144OSM    H9T15824   6.877   0.506   7.282  0.2552  0.4409 -0.4776
  144OSM   C10S15825   6.715   0.509   7.426 -0.2797  0.9223 -0.2400
  144OSM   H10S15826   6.709   0.401   7.399  0.3922  1.6677 -3.6249
  144OSM   H10T15827   6.616   0.560   7.434 -1.2447 -1.0485  0.6468
  144OSM   C11S15828   6.783   0.533   7.558  0.5071  0.0726 -0.1692
  144OSM   H11S15829   6.777   0.637   7.597  1.1853 -0.5638  1.7144
  144OSM   H11T15830   6.883   0.484   7.558  1.1200  1.1824  3.6571
  144OSM   C12S15831   6.696   0.458   7.666  0.3024 -0.2463  0.5596
  144OSM   H12S15832   6.678   0.351   7.642 -1.3352 -0.0327  0.7930
  144OSM   H12T15833   6.598   0.511   7.663  1.8942  2.8723  1.4199
  144OSM   C13S15834   6.762   0.463   7.801 -0.5739 -0.1353  0.2334
  144OSM   H13S15835   6.794   0.568   7.816  3.0541 -1.2336  0.6836
  144OSM   H13T15836   6.855   0.402   7.794  0.1644  1.0284 -0.3204
  144OSM   C14S15837   6.684   0.405   7.914 -0.1511 -0.0968 -0.0269
  144OSM   H14S15838   6.685   0.294   7.911 -0.7216 -0.1814  1.8418
  144OSM   H14T15839   6.576   0.430   7.905 -0.2587  0.3228  2.0012
  144OSM   C15S15840   6.736   0.456   8.050 -0.2293  0.2770  0.6349
  144OSM   H15S15841   6.725   0.566   8.055  0.7020  0.4095 -0.0898
  144OSM   H15T15842   6.846   0.443   8.055 -0.3057 -1.8161 -1.8744
  144OSM   C16S15843   6.669   0.382   8.163 -0.0900 -0.2704  0.0066
  144OSM   H16S15844   6.683   0.273   8.153  0.2242 -0.0618 -2.0980
  144OSM   H16T15845   6.563   0.415   8.172 -0.8196 -2.2371 -1.0750
  144OSM   C17S15846   6.737   0.409   8.304 -0.0213  0.6383  0.4734
  144OSM   H17S15847   6.774   0.513   8.312  1.0082  0.5542 -2.5557
  144OSM   H17T15848   6.831   0.350   8.298 -1.1751 -1.2270  0.0856
  144OSM   C18S15849   6.642   0.371   8.421  0.0762  0.1390  0.3283
  144OSM   H18S15850   6.552   0.436   8.426 -0.3868 -0.4174 -0.5977
  144OSM   H18T15851   6.685   0.366   8.523  3.1708  0.6583 -0.8917
  144OSM   H18U15852   6.589   0.275   8.405 -0.9754  0.9222 -0.9809
  144OSM    C1F15853   6.809   1.193   6.793  0.6978  0.3893  0.2259
  144OSM     OF15854   6.711   1.213   6.720 -0.0958  0.3173 -0.4753
  144OSM    C2F15855   6.855   1.299   6.885 -0.4361 -0.3666  1.1841
  144OSM    H2F15856   6.943   1.340   6.833 -1.7579  0.7492 -0.2066
  144OSM    H2G15857   6.882   1.248   6.980  1.4078  2.2296  2.0880
  144OSM    C3F15858   6.740   1.403   6.930 -0.0845 -0.1474  0.4111
  144OSM    H3F15859   6.656   1.339   6.965  0.6049 -0.7793  0.9017
  144OSM    H3G15860   6.695   1.460   6.845 -0.6501 -1.0774  0.0693
  144OSM    C4F15861   6.775   1.502   7.046 -0.9729 -0.9433 -0.5269
  144OSM    H4F15862   6.675   1.538   7.079 -0.6956 -0.1386 -0.5582
  144OSM    H4G15863   6.820   1.592   6.999 -0.1888  0.4773  2.8354
  144OSM    C5F15864   6.867   1.463   7.162  0.0563  0.3290  0.0995
  144OSM    H5F15865   6.964   1.459   7.109  0.1224 -0.6918  0.2939
  144OSM    H5G15866   6.828   1.366   7.202 -0.9986 -0.3378 -2.4503
  144OSM    C6F15867   6.864   1.553   7.282  1.0535  0.3516 -0.0308
  144OSM    H6F15868   6.884   1.658   7.251 -0.3961 -0.0747 -2.5479
  144OSM    H6G15869   6.952   1.524   7.342  1.0492  0.4898  0.0427
  144OSM    C7F15870   6.734   1.537   7.374 -0.9064 -0.2252 -1.2312
  144OSM    H7F15871   6.703   1.431   7.383 -0.5925 -0.1530  1.1246
  144OSM    H7G15872   6.651   1.591   7.324 -0.5323  0.8491 -0.7169
  144OSM    C8F15873   6.761   1.601   7.508 -0.0754  0.6438  0.6122
  144OSM    H8F15874   6.811   1.698   7.488  0.1360  0.4084 -0.0321
  144OSM    H8G15875   6.836   1.536   7.557 -0.6932 -0.3368  0.2762
  144OSM    C9F15876   6.648   1.625   7.603  0.6371 -1.3216 -0.8150
  144OSM    H9F15877   6.561   1.677   7.560 -1.0730 -0.0741  3.8187
  144OSM   C10F15878   6.631   1.598   7.734 -0.5029 -0.1042 -0.1862
  144OSM   H10F15879   6.530   1.614   7.774 -0.5214 -0.7395  0.0300
  144OSM   C11F15880   6.724   1.517   7.825  0.4776  0.2836 -0.0512
  144OSM   H11F15881   6.765   1.584   7.904  0.9063  2.2604 -1.8884
  144OSM   H11G15882   6.807   1.480   7.761  0.8659  1.7095 -0.3866
  144OSM   C12F15883   6.644   1.408   7.904  0.2583  0.1203  0.1221
  144OSM   H12F15884   6.597   1.341   7.828  0.5373 -0.1461  0.1788
  144OSM   H12G15885   6.560   1.445   7.965  0.4186  1.6642 -0.5747
  144OSM   C13F15886   6.720   1.313   7.998 -0.1308 -0.1158 -0.3050
  144OSM   H13F15887   6.767   1.361   8.087  1.2294  1.2270 -1.7020
  144OSM   H13G15888   6.804   1.260   7.950 -0.9390 -3.6669  2.0295
  144OSM   C14F15889   6.626   1.204   8.049 -0.2453 -0.5461 -0.2305
  144OSM   H14F15890   6.583   1.166   7.954  0.2555  1.0917 -1.1517
  144OSM   H14G15891   6.542   1.258   8.097 -0.4460 -0.9688 -0.1096
  144OSM   C15F15892   6.693   1.101   8.145  0.8857  0.1851 -0.0459
  144OSM   H15F15893   6.614   1.040   8.195 -0.6409  2.3119  0.1703
  144OSM   H15G15894   6.750   1.166   8.214  2.0949  1.8272 -2.5348
  144OSM   C16F15895   6.801   1.008   8.093 -0.2076  1.0258 -0.3103
  144OSM   H16F15896   6.887   1.067   8.055  0.3432  1.0257  0.9200
  144OSM   H16G15897   6.764   0.948   8.006 -0.5282  2.0877 -0.9081
  144OSM   C17F15898   6.862   0.915   8.195 -0.6811 -0.1357  0.3267
  144OSM   H17F15899   6.783   0.843   8.226 -2.0784  0.2581 -2.2461
  144OSM   H17G15900   6.879   0.972   8.289 -1.7744  1.5421 -0.4763
  144OSM   C18F15901   6.993   0.847   8.152  0.6604  0.0125  0.5379
  144OSM   H18F15902   7.042   0.800   8.240 -0.0614 -2.8854 -0.5578
  144OSM   H18G15903   7.070   0.915   8.108 -0.1696 -0.0272 -0.9883
  144OSM   H18H15904   6.969   0.763   8.083 -0.4678 -1.0627  2.2042
  145SAPE     N15905   4.282   2.184  10.711  0.1134 -0.3314 -0.0869
  145SAPE   HN115906   4.346   2.209  10.788  0.0105  0.2838 -0.1924
  145SAPE   HN215907   4.211   2.261  10.707  0.1894 -0.3415 -4.1731
  145SAPE   HN315908   4.238   2.095  10.740 -1.5260  0.5945  0.3633
  145SAPE   C1215909   4.334   2.170  10.572  1.0552 -0.0760  1.0997
  145SAPE  H12A15910   4.331   2.270  10.523  0.1915 -0.5388  0.1930
  145SAPE  H12B15911   4.254   2.113  10.519  0.1611  1.6727  0.5292
  145SAPE   C1115912   4.470   2.091  10.572  0.0983 -0.0988 -0.2547
  145SAPE  H11A15913   4.540   2.158  10.627  0.1884  0.9396 -1.6203
  145SAPE  H11B15914   4.505   2.086  10.467  2.3010 -1.6774  0.5264
  145SAPE     P15915   4.595   1.882  10.657 -0.1980  0.2336 -0.6007
  145SAPE   O1315916   4.689   1.972  10.730  0.4231  0.1334  0.2739
  145SAPE   O1415917   4.563   1.759  10.732  0.4104 -0.0218 -0.1357
  145SAPE   O1215918   4.463   1.954  10.618  0.3060 -0.0989  0.3051
  145SAPE   O1115919   4.667   1.849  10.518  0.4365  0.2512  0.2693
  145SAPE    C115920   4.612   1.756  10.426  0.2815 -0.0845 -0.7385
  145SAPE    HA15921   4.667   1.660  10.437 -1.2397 -0.8918  0.0319
  145SAPE    HB15922   4.504   1.739  10.447  0.9839  0.0163  3.3927
  145SAPE    C215923   4.624   1.815  10.286 -0.5032 -0.8287  0.6941
  145SAPE    HS15924   4.727   1.851  10.264 -1.5687  1.4417 -0.8198
  145SAPE   O2115925   4.529   1.926  10.280 -0.2001  0.3161 -0.7195
  145SAPE   C2115926   4.567   2.024  10.198 -0.3160  0.0885  0.4510
  145SAPE   O2215927   4.679   2.022  10.139  0.3583 -0.2812 -0.2027
  145SAPE   C2215928   4.441   2.105  10.152 -0.3641  0.5266 -0.1809
  145SAPE   H2R15929   4.366   2.077  10.229  0.0543 -2.5655 -0.8410
  145SAPE   H2S15930   4.456   2.215  10.161 -0.6258  0.5055  0.5313
  145SAPE    C315931   4.600   1.706  10.175  0.2623 -0.6583  0.1347
  145SAPE    HX15932   4.492   1.682  10.187 -0.2071  1.5725  0.5255
  145SAPE    HY15933   4.665   1.616  10.186  0.7786 -0.0894  1.9014
  145SAPE   O3115934   4.594   1.757  10.041 -0.5222  0.9439  0.3149
  145SAPE   C3115935   4.713   1.771   9.971 -0.5174 -0.4184  0.2626
  145SAPE   O3215936   4.818   1.732  10.015  0.3528  0.3059 -0.1961
  145SAPE   C3215937   4.677   1.842   9.845 -0.3788  1.2137 -0.5380
  145SAPE   H2X15938   4.628   1.938   9.872 -2.4791 -0.0231  0.1664
  145SAPE   H2Y15939   4.603   1.775   9.796  0.4536 -0.3187  0.2902
  145SAPE   C2315940   4.403   2.070  10.007  0.1260 -0.7345 -0.2670
  145SAPE   H3R15941   4.292   2.076  10.013  0.0611 -1.7035 -0.3476
  145SAPE   H3S15942   4.407   1.962   9.982 -0.2819 -0.8687  0.2356
  145SAPE   C2415943   4.466   2.167   9.912  0.3465  0.4643  0.5686
  145SAPE   H4R15944   4.577   2.158   9.916  0.1866 -2.1670  0.3085
  145SAPE   H4S15945   4.443   2.268   9.951 -0.0472 -0.0773  1.7558
  145SAPE   C2515946   4.424   2.139   9.772  0.1807 -0.5943  0.0735
  145SAPE   H5R15947   4.494   2.072   9.718  0.7634  0.0103  0.0737
  145SAPE   C2615948   4.328   2.200   9.706 -0.2277  0.7328  0.1310
  145SAPE   H6R15949   4.307   2.175   9.601 -0.0005  2.1953 -0.2811
  145SAPE   C2715950   4.245   2.316   9.763  0.1772 -0.2171  0.8576
  145SAPE   H7R15951   4.240   2.307   9.874 -0.5772 -4.5685  0.5523
  145SAPE   H7S15952   4.138   2.305   9.736  0.2553  0.4395  0.2741
  145SAPE   C2815953   4.293   2.449   9.713 -0.6519  0.4186  0.0568
  145SAPE   H8R15954   4.378   2.498   9.762 -0.2254 -0.0822 -0.1756
  145SAPE   C2915955   4.235   2.519   9.609 -0.2887  0.3872  0.6407
  145SAPE   H9R15956   4.283   2.614   9.582  0.0952  0.4088  1.4047
  145SAPE  C21015957   4.113   2.482   9.529  0.5848  0.4357 -0.2995
  145SAPE  H10R15958   4.029   2.553   9.543 -2.1518 -3.0008  1.3632
  145SAPE  H10S15959   4.065   2.390   9.566  1.4469 -0.9753 -2.5576
  145SAPE  C21115960   4.162   2.466   9.391 -0.5414 -0.0845  0.0841
  145SAPE  H11R15961   4.242   2.393   9.374 -1.8505 -0.6859 -4.0740
  145SAPE  C21215962   4.106   2.517   9.283  0.2844 -0.7174  0.2044
  145SAPE  H12R15963   4.156   2.502   9.186 -1.6074  1.9397 -1.2215
  145SAPE  C21315964   3.983   2.607   9.273  0.8239  0.4623 -0.4702
  145SAPE  H13R15965   3.899   2.544   9.310 -0.7641  2.4983 -0.5378
  145SAPE  H13S15966   3.957   2.637   9.169 -0.3558  2.8620  0.4758
  145SAPE  C21415967   3.980   2.727   9.350 -0.1067  0.5706  0.2549
  145SAPE  H14R15968   4.081   2.758   9.380  1.5477 -2.7145 -1.6831
  145SAPE  C21515969   3.871   2.811   9.369 -1.1324 -0.4702 -0.4431
  145SAPE  H15R15970   3.885   2.893   9.440 -1.7974 -0.7409  0.0135
  145SAPE  C21615971   3.729   2.770   9.319 -1.0109 -0.2103  0.7264
  145SAPE  H16R15972   3.694   2.690   9.387  0.5563 -2.0021 -0.5289
  145SAPE  H16S15973   3.735   2.730   9.216 -0.9508 -1.3381  1.1595
  145SAPE  C21715974   3.648   2.895   9.308  0.1468 -0.5074  0.0328
  145SAPE  H17R15975   3.705   2.987   9.284  0.9259 -0.7881  0.7883
  145SAPE  H17S15976   3.604   2.916   9.408 -0.6694 -1.4903 -0.1102
  145SAPE  C21815977   3.535   2.880   9.209 -0.0761  0.2860 -0.4823
  145SAPE  H18R15978   3.477   2.787   9.229 -0.7688  1.2796  2.3964
  145SAPE  H18S15979   3.575   2.891   9.106  1.9162  0.4486  0.2914
  145SAPE  C21915980   3.419   2.985   9.223 -0.0828  0.6489  0.7512
  145SAPE  H19R15981   3.454   3.090   9.227 -1.3561  1.0748  0.6462
  145SAPE  H19S15982   3.364   2.964   9.317 -0.2703 -0.3785  0.4203
  145SAPE  C22015983   3.315   2.964   9.116 -0.0869 -0.4993 -0.0264
  145SAPE  H20R15984   3.359   2.984   9.016 -2.5538  0.2418 -0.9892
  145SAPE  H20S15985   3.228   3.029   9.140 -1.3599 -1.5453 -1.7369
  145SAPE  H20T15986   3.280   2.859   9.118 -1.2874 -0.1137 -0.4966
  145SAPE   C3315987   4.800   1.858   9.753  0.3346  0.1248  0.4944
  145SAPE   H3X15988   4.886   1.883   9.818  0.4546  2.0228 -0.3456
  145SAPE   H3Y15989   4.787   1.947   9.688 -0.5401 -0.3850 -0.0351
  145SAPE   C3415990   4.808   1.739   9.654 -0.1598 -0.1838  0.2110
  145SAPE   H4X15991   4.706   1.733   9.611 -1.4334  1.2721  2.8972
  145SAPE   H4Y15992   4.834   1.642   9.702 -1.2293 -0.1946  0.7787
  145SAPE   C3515993   4.915   1.751   9.549 -0.8108  0.9761 -0.1784
  145SAPE   H5X15994   5.014   1.747   9.597 -1.4478  0.5269  1.1045
  145SAPE   H5Y15995   4.903   1.853   9.504  1.5729  1.4220  0.1596
  145SAPE   C3615996   4.893   1.646   9.441 -0.1085  0.6019  1.2337
  145SAPE   H6X15997   4.903   1.545   9.486  1.0185  1.0663  2.0454
  145SAPE   H6Y15998   4.980   1.663   9.374 -2.0888  2.4395 -0.9484
  145SAPE   C3715999   4.760   1.653   9.364 -0.5213  0.8632  0.2051
  145SAPE   H7X16000   4.733   1.759   9.341 -0.5260  1.1218  1.3540
  145SAPE   H7Y16001   4.680   1.630   9.438  1.9486 -0.6156  2.4808
  145SAPE   C3816002   4.747   1.564   9.245  0.4483  0.1682 -0.0752
  145SAPE   H8X16003   4.781   1.462   9.274 -1.1485  0.2013  1.9977
  145SAPE   H8Y16004   4.808   1.598   9.158 -1.6370  0.7199 -1.3615
  145SAPE   C3916005   4.600   1.554   9.181  0.0617 -1.2022 -0.4926
  145SAPE   H9X16006   4.580   1.652   9.133 -2.2068 -0.3242  2.1016
  145SAPE   H9Y16007   4.526   1.529   9.260 -0.6521  1.9317 -0.0933
  145SAPE  C31016008   4.594   1.445   9.072  0.5257  0.0663  0.0644
  145SAPE  H10X16009   4.634   1.358   9.129  1.2387 -0.5995 -1.4236
  145SAPE  H10Y16010   4.665   1.478   8.993 -0.5948 -0.3653 -1.1442
  145SAPE  C31116011   4.458   1.409   9.006 -0.2914  0.6316  0.5909
  145SAPE  H11X16012   4.395   1.499   8.984 -1.3964  0.6055  3.4236
  145SAPE  H11Y16013   4.394   1.355   9.079 -1.6393  0.0660 -0.9679
  145SAPE  C31216014   4.463   1.328   8.882  0.2031  0.5972 -0.2672
  145SAPE  H12X16015   4.527   1.240   8.902  2.5004  2.2840 -0.0211
  145SAPE  H12Y16016   4.511   1.391   8.804  1.6276 -0.7282 -0.4710
  145SAPE  C31316017   4.322   1.303   8.826  0.1837 -0.4962  0.5989
  145SAPE  H13X16018   4.262   1.396   8.839  0.6709 -0.1111  0.1617
  145SAPE  H13Y16019   4.281   1.223   8.891  3.9075 -3.2611 -0.2877
  145SAPE  C31416020   4.307   1.249   8.678 -0.0693  0.3881 -0.7490
  145SAPE  H14X16021   4.361   1.152   8.666  1.0813  1.0131 -0.6734
  145SAPE  H14Y16022   4.364   1.316   8.610 -0.5524  0.6671 -0.8794
  145SAPE  C31516023   4.162   1.231   8.613 -0.2273  0.5640  0.7803
  145SAPE  H15X16024   4.111   1.330   8.613 -2.5869 -0.6037 -0.5672
  145SAPE  H15Y16025   4.110   1.147   8.664 -1.1737 -1.2046 -2.8822
  145SAPE  C31616026   4.163   1.190   8.464 -0.5396 -0.1019 -0.4171
  145SAPE  H16X16027   4.196   1.086   8.445  0.9398  0.5822 -1.7205
  145SAPE  H16Y16028   4.225   1.265   8.409 -1.4538  0.4349 -0.7367
  145SAPE  C31716029   4.029   1.213   8.395  0.3806 -0.0126  0.3447
  145SAPE  H17X16030   3.995   1.317   8.413 -0.9127 -0.4270  0.2768
  145SAPE  H17Y16031   3.956   1.143   8.441 -0.1188 -0.0576 -0.5172
  145SAPE  C31816032   4.023   1.178   8.246  0.4062 -0.1223 -0.5974
  145SAPE  H18X16033   4.081   1.083   8.247  3.0143  1.4140 -1.9261
  145SAPE  H18Y16034   4.087   1.247   8.188 -0.5522  0.8482 -0.5221
  145SAPE  H18Z16035   3.925   1.149   8.202  0.5532 -1.9885  0.2500
  146SAPE     N16036   4.022   3.210  10.682  0.1887  0.1807 -0.5356
  146SAPE   HN116037   4.051   3.112  10.699 -1.4251 -0.3764 -0.8490
  146SAPE   HN216038   3.934   3.221  10.627  0.0164  2.8161  0.1876
  146SAPE   HN316039   4.093   3.274  10.640  1.2445 -1.5395 -1.3913
  146SAPE   C1216040   3.993   3.264  10.824  0.6299  0.7315  0.2215
  146SAPE  H12A16041   3.910   3.336  10.819 -2.4555 -2.6821  0.2507
  146SAPE  H12B16042   4.085   3.319  10.856 -0.1807  2.9841 -1.2446
  146SAPE   C1116043   3.965   3.149  10.926 -0.9073 -0.1977  0.7192
  146SAPE  H11A16044   3.958   3.182  11.032 -1.7762  4.0075 -0.5755
  146SAPE  H11B16045   4.050   3.079  10.908 -1.6578 -0.5736 -1.4236
  146SAPE     P16046   3.719   3.071  10.970  0.3031 -0.0718 -0.0032
  146SAPE   O1316047   3.703   2.937  11.032  0.9010  0.2555  0.4313
  146SAPE   O1416048   3.712   3.192  11.059  0.0970  0.0064  0.3528
  146SAPE   O1216049   3.853   3.080  10.887  0.8835  0.3580  0.6262
  146SAPE   O1116050   3.610   3.075  10.864  0.6416  0.6105 -0.0658
  146SAPE    C116051   3.618   3.161  10.751  0.1421  0.2121  1.4648
  146SAPE    HA16052   3.527   3.223  10.733  0.9823  0.7326 -1.2815
  146SAPE    HB16053   3.676   3.255  10.764 -0.4716  0.6771  0.9375
  146SAPE    C216054   3.651   3.086  10.615 -0.1757  0.0547  0.2154
  146SAPE    HS16055   3.760   3.065  10.614 -0.4712 -1.5421 -0.2433
  146SAPE   O2116056   3.609   3.166  10.499 -0.0411 -0.4594  0.0180
  146SAPE   C2116057   3.691   3.263  10.478 -0.3747 -0.0699 -0.4882
  146SAPE   O2216058   3.805   3.263  10.516  0.6887 -0.1565 -0.5119
  146SAPE   C2216059   3.630   3.358  10.380  0.8393  0.1436  0.0661
  146SAPE   H2R16060   3.520   3.341  10.375  1.0820 -1.7512  0.6864
  146SAPE   H2S16061   3.646   3.462  10.417  0.1669 -0.2842  1.6048
  146SAPE    C316062   3.573   2.946  10.611  0.2774  0.2595  0.0610
  146SAPE    HX16063   3.465   2.963  10.588  0.4680  0.0144 -1.0641
  146SAPE    HY16064   3.570   2.891  10.707  0.4799  0.7531  0.3519
  146SAPE   O3116065   3.624   2.862  10.503  0.1001  0.4973  0.8495
  146SAPE   C3116066   3.738   2.797  10.533  0.7146  0.5661 -0.2885
  146SAPE   O3216067   3.798   2.820  10.637 -0.2293  1.0871 -0.1081
  146SAPE   C3216068   3.783   2.698  10.430 -0.7614 -0.0419 -0.2307
  146SAPE   H2X16069   3.700   2.625  10.415  1.5540 -2.7183 -0.3634
  146SAPE   H2Y16070   3.873   2.644  10.468 -0.9355 -0.6660 -0.6886
  146SAPE   C2316071   3.689   3.349  10.233 -0.2524 -0.0631 -0.0239
  146SAPE   H3R16072   3.799   3.338  10.241 -0.0463  1.0403 -1.1780
  146SAPE   H3S16073   3.661   3.447  10.187  0.5524 -0.0649 -0.5262
  146SAPE   C2416074   3.633   3.235  10.139  0.4248 -0.0003 -0.0638
  146SAPE   H4R16075   3.525   3.250  10.116  0.3992  0.6550  0.4533
  146SAPE   H4S16076   3.644   3.135  10.185 -0.0774  0.9397  2.1692
  146SAPE   C2516077   3.721   3.229  10.018  0.3635  0.7884 -0.4201
  146SAPE   H5R16078   3.829   3.209  10.024  0.0175 -2.0757 -2.5343
  146SAPE   C2616079   3.676   3.256   9.896 -0.2555  0.0551 -0.1063
  146SAPE   H6R16080   3.746   3.239   9.813 -0.0848 -0.8543  0.2154
  146SAPE   C2716081   3.536   3.301   9.853  0.2628  0.0659  0.1791
  146SAPE   H7R16082   3.480   3.349   9.936  1.3983  1.0193  0.4047
  146SAPE   H7S16083   3.476   3.210   9.831  0.2210 -0.0873  0.9131
  146SAPE   C2816084   3.536   3.408   9.748  0.3638  0.5765 -0.0441
  146SAPE   H8R16085   3.480   3.499   9.778  2.0942  0.8834  2.4252
  146SAPE   C2916086   3.575   3.395   9.613 -0.1027 -0.1035  0.0709
  146SAPE   H9R16087   3.567   3.481   9.545 -0.5002  0.3218  0.6475
  146SAPE  C21016088   3.639   3.268   9.554  0.5278 -0.1846  0.3852
  146SAPE  H10R16089   3.558   3.235   9.485  0.5872 -0.6735  0.5463
  146SAPE  H10S16090   3.662   3.184   9.623  1.2031  0.8177  1.3823
  146SAPE  C21116091   3.762   3.286   9.471 -0.5229  0.3727  0.5303
  146SAPE  H11R16092   3.847   3.254   9.533 -0.5158  0.3166  0.4922
  146SAPE  C21216093   3.778   3.336   9.346  0.8138 -0.2676  0.7816
  146SAPE  H12R16094   3.869   3.338   9.285  0.7328  1.0671  0.6906
  146SAPE  C21316095   3.667   3.394   9.259 -0.1752 -0.1202 -0.4285
  146SAPE  H13R16096   3.672   3.505   9.269 -0.4371 -0.2881  1.8450
  146SAPE  H13S16097   3.569   3.364   9.301 -0.0959 -1.3207 -1.0857
  146SAPE  C21416098   3.674   3.343   9.110  1.2637 -0.3108  0.3648
  146SAPE  H14R16099   3.634   3.246   9.076  1.0516  0.5083 -1.7834
  146SAPE  C21516100   3.724   3.417   9.012  0.6173 -0.3466 -0.2080
  146SAPE  H15R16101   3.738   3.370   8.914  0.8542  3.5407 -2.1291
  146SAPE  C21616102   3.798   3.553   9.020  0.3571 -0.0262  0.3554
  146SAPE  H16R16103   3.878   3.545   8.943 -0.8378 -1.4198 -0.8009
  146SAPE  H16S16104   3.825   3.577   9.124 -0.8777 -0.7439  0.8559
  146SAPE  C21716105   3.693   3.663   8.976  0.2412  0.4394 -0.2298
  146SAPE  H17R16106   3.604   3.666   9.042  1.1358  0.8234  0.9812
  146SAPE  H17S16107   3.674   3.636   8.870 -0.9489 -2.5684  0.7237
  146SAPE  C21816108   3.758   3.802   8.972 -0.3241  0.0679 -0.4869
  146SAPE  H18R16109   3.845   3.809   8.904 -0.7606 -0.1625 -1.0686
  146SAPE  H18S16110   3.796   3.823   9.075 -0.2808 -0.8226 -0.3145
  146SAPE  C21916111   3.640   3.900   8.933 -0.8358 -0.0492 -0.3909
  146SAPE  H19R16112   3.579   3.911   9.025  0.4682  0.2798  0.4436
  146SAPE  H19S16113   3.572   3.877   8.848 -2.6580  0.7642  0.8201
  146SAPE  C22016114   3.707   4.033   8.893 -0.5866  0.0511 -0.1189
  146SAPE  H20R16115   3.758   4.072   8.984 -3.7742  1.6874  1.0844
  146SAPE  H20S16116   3.632   4.113   8.869 -1.8011 -1.2038 -0.5769
  146SAPE  H20T16117   3.775   4.010   8.809 -2.0335  1.5173 -1.7377
  146SAPE   C3316118   3.811   2.766  10.295 -0.4019 -0.1087 -0.7353
  146SAPE   H3X16119   3.726   2.826  10.258 -0.4036 -1.3780 -2.8820
  146SAPE   H3Y16120   3.813   2.688  10.216  1.2206 -0.8779  0.0443
  146SAPE   C3416121   3.943   2.852  10.271 -0.0900  0.3085  0.5029
  146SAPE   H4X16122   3.968   2.854  10.163 -1.3472 -1.0948  0.1679
  146SAPE   H4Y16123   4.023   2.793  10.320 -0.0931  1.7627  2.3219
  146SAPE   C3516124   3.924   2.997  10.326 -0.0444  0.4058  0.5676
  146SAPE   H5X16125   3.893   2.988  10.432  2.7735  0.0376  1.4000
  146SAPE   H5Y16126   3.834   3.040  10.276 -0.3732  0.2510  1.0167
  146SAPE   C3616127   4.040   3.088  10.327  0.1386  0.0076 -0.0690
  146SAPE   H6X16128   4.117   3.049  10.397 -0.5089 -3.7986 -1.3670
  146SAPE   H6Y16129   3.992   3.185  10.353 -0.7737 -0.3471 -0.3924
  146SAPE   C3716130   4.113   3.111  10.178 -0.1257 -0.1519  0.2321
  146SAPE   H7X16131   4.032   3.152  10.113 -0.2942  2.3241  1.9569
  146SAPE   H7Y16132   4.148   3.010  10.146  0.0803  0.7922 -2.6881
  146SAPE   C3816133   4.233   3.205  10.183  0.3952 -0.4140 -0.1467
  146SAPE   H8X16134   4.328   3.159  10.217  0.0430 -1.5107 -0.6231
  146SAPE   H8Y16135   4.209   3.277  10.264 -1.0098 -1.5559  0.4898
  146SAPE   C3916136   4.269   3.259  10.045  0.0605  0.5442 -0.3819
  146SAPE   H9X16137   4.331   3.351  10.049 -1.9213  1.9037 -0.0010
  146SAPE   H9Y16138   4.173   3.286   9.996  0.1850  0.8424 -0.4644
  146SAPE  C31016139   4.345   3.158   9.963  0.3954 -0.4123 -0.0052
  146SAPE  H10X16140   4.291   3.061   9.972  0.2207 -0.9322 -5.1978
  146SAPE  H10Y16141   4.448   3.146  10.003  1.8726  1.3695 -3.0942
  146SAPE  C31116142   4.335   3.184   9.811  0.1325 -0.6518  0.8320
  146SAPE  H11X16143   4.398   3.107   9.763 -0.6048 -0.4425 -0.5014
  146SAPE  H11Y16144   4.380   3.284   9.793  1.8782 -1.2624  1.7474
  146SAPE  C31216145   4.193   3.198   9.749 -0.4489 -0.1295  0.1800
  146SAPE  H12X16146   4.158   3.299   9.778  1.3439  0.5597  0.0570
  146SAPE  H12Y16147   4.133   3.115   9.792 -1.7326  1.5865  1.7715
  146SAPE  C31316148   4.183   3.185   9.593  0.1577 -0.4400 -0.6383
  146SAPE  H13X16149   4.249   3.250   9.533  0.4292  0.5106  0.6709
  146SAPE  H13Y16150   4.079   3.207   9.561  1.0764  2.6218 -1.6387
  146SAPE  C31416151   4.194   3.037   9.546 -0.5902  0.0124  0.5992
  146SAPE  H14X16152   4.113   2.968   9.576 -0.4700  0.4340  1.9340
  146SAPE  H14Y16153   4.290   3.005   9.591 -0.4658 -0.9715 -0.3500
  146SAPE  C31516154   4.207   3.024   9.391 -0.8325  0.9903  0.4851
  146SAPE  H15X16155   4.207   2.917   9.362  0.2843  0.8824  0.8496
  146SAPE  H15Y16156   4.307   3.048   9.348 -0.1632  0.1388  1.5509
  146SAPE  C31616157   4.102   3.094   9.304  0.1351  0.6590 -0.0076
  146SAPE  H16X16158   4.112   3.204   9.314 -1.2105  0.8896 -1.0046
  146SAPE  H16Y16159   4.002   3.054   9.329  1.4188 -3.2306 -0.7974
  146SAPE  C31716160   4.119   3.073   9.157  0.2321 -0.5862 -0.4269
  146SAPE  H17X16161   4.110   2.965   9.132 -1.4294 -0.4883 -0.3151
  146SAPE  H17Y16162   4.222   3.106   9.135  0.3560 -2.6155 -3.1893
  146SAPE  C31816163   4.022   3.154   9.064 -0.0101 -0.1164 -0.8213
  146SAPE  H18X16164   3.916   3.123   9.072 -0.0919 -0.0600 -1.6055
  146SAPE  H18Y16165   4.042   3.135   8.957  1.6241  1.1819 -0.7629
  146SAPE  H18Z16166   4.045   3.260   9.088 -0.9128 -0.3442  1.1388
  147SAPE     N16167   5.653   6.370  10.878 -0.0543  0.2960 -0.6760
  147SAPE   HN116168   5.568   6.431  10.875  0.7298  1.3192 -2.7488
  147SAPE   HN216169   5.630   6.302  10.954 -2.6031  1.8527  0.0350
  147SAPE   HN316170   5.741   6.421  10.898 -0.4378  0.5969  0.2701
  147SAPE   C1216171   5.666   6.282  10.754 -0.0210 -0.3344  0.0900
  147SAPE  H12A16172   5.766   6.234  10.756  1.0178  1.7443 -0.2332
  147SAPE  H12B16173   5.632   6.338  10.665  0.6416 -0.5976 -0.3368
  147SAPE   C1116174   5.559   6.175  10.742 -0.2353 -0.4970 -0.1244
  147SAPE  H11A16175   5.571   6.140  10.637  1.0964  0.0374 -0.1504
  147SAPE  H11B16176   5.458   6.223  10.743 -0.4276 -0.8987  0.8143
  147SAPE     P16177   5.432   5.972  10.849 -0.3927  0.6560 -0.3325
  147SAPE   O1316178   5.460   5.863  10.941  0.0334 -0.2622 -0.5410
  147SAPE   O1416179   5.312   6.053  10.871 -0.2464 -0.7081 -0.5404
  147SAPE   O1216180   5.556   6.070  10.843 -0.0788  0.0479  0.2227
  147SAPE   O1116181   5.415   5.912  10.697  0.3658 -0.6686  0.0473
  147SAPE    C116182   5.530   5.858  10.638  0.2517 -0.0989  0.4099
  147SAPE    HA16183   5.607   5.936  10.624 -0.5606  0.3261 -1.8054
  147SAPE    HB16184   5.576   5.782  10.706 -1.0286 -2.4994 -1.3490
  147SAPE    C216185   5.497   5.762  10.513  0.1065  0.1342  0.2848
  147SAPE    HS16186   5.598   5.755  10.465 -0.0259 -0.8195  0.1228
  147SAPE   O2116187   5.398   5.827  10.426 -0.0487  0.2940 -0.1675
  147SAPE   C2116188   5.438   5.914  10.336 -0.4814 -0.1628  0.1671
  147SAPE   O2216189   5.552   5.956  10.315  0.2717  0.2967  0.1925
  147SAPE   C2216190   5.316   5.965  10.252 -0.3766 -0.1558 -0.0544
  147SAPE   H2R16191   5.245   6.029  10.309 -0.0726  0.0704  0.0665
  147SAPE   H2S16192   5.360   6.031  10.175 -2.4739 -0.3571 -1.4766
  147SAPE    C316193   5.437   5.622  10.553 -0.4657 -0.3289 -0.3068
  147SAPE    HX16194   5.337   5.646  10.597  0.0996 -0.8794  1.3341
  147SAPE    HY16195   5.489   5.574  10.639 -1.0608 -1.6323 -0.6608
  147SAPE   O3116196   5.415   5.531  10.442  0.2210 -0.1240  0.3888
  147SAPE   C3116197   5.324   5.425  10.482  0.6685 -0.7380 -0.2118
  147SAPE   O3216198   5.303   5.411  10.599  0.0384  0.1398  0.1837
  147SAPE   C3216199   5.250   5.366  10.370 -0.0001 -0.0645 -0.0739
  147SAPE   H2X16200   5.320   5.293  10.323 -0.1379 -0.4839  0.3671
  147SAPE   H2Y16201   5.229   5.445  10.296  0.9363  0.6095  0.3643
  147SAPE   C2316202   5.245   5.849  10.169 -0.0347 -0.4535 -0.2853
  147SAPE   H3R16203   5.158   5.906  10.128 -0.6958 -0.1571  1.5022
  147SAPE   H3S16204   5.203   5.773  10.238  0.6895 -0.3160  0.3176
  147SAPE   C2416205   5.327   5.798  10.049 -0.0719  0.1016  0.0690
  147SAPE   H4R16206   5.409   5.743  10.101 -0.4306  0.9478  1.5557
  147SAPE   H4S16207   5.375   5.890  10.009 -2.2640  0.9605 -0.6514
  147SAPE   C2516208   5.239   5.723   9.958  0.6185  0.8779  0.1973
  147SAPE   H5R16209   5.149   5.679  10.004  0.1218  2.1096  0.4421
  147SAPE   C2616210   5.271   5.709   9.828  0.3445  0.6176 -0.4986
  147SAPE   H6R16211   5.205   5.654   9.759 -0.2479  1.2458 -0.4379
  147SAPE   C2716212   5.390   5.768   9.758 -0.3729 -0.4723 -0.2063
  147SAPE   H7R16213   5.459   5.686   9.729 -1.6685 -2.1942  1.4760
  147SAPE   H7S16214   5.453   5.838   9.816 -0.3131  0.3602 -1.2597
  147SAPE   C2816215   5.346   5.843   9.638 -0.0901  0.7036 -0.1686
  147SAPE   H8R16216   5.317   5.947   9.660 -0.8392  0.8641 -1.8207
  147SAPE   C2916217   5.358   5.813   9.509  0.6678 -0.1374  0.1487
  147SAPE   H9R16218   5.317   5.883   9.435 -1.3109 -0.3447  1.0299
  147SAPE  C21016219   5.406   5.688   9.435 -0.0134  0.0117 -0.2852
  147SAPE  H10R16220   5.477   5.639   9.505 -1.0013 -0.0403  0.7016
  147SAPE  H10S16221   5.462   5.708   9.342 -0.6057 -0.5926 -0.7840
  147SAPE  C21116222   5.291   5.583   9.405 -0.3942 -0.6204 -0.6828
  147SAPE  H11R16223   5.191   5.608   9.444  1.0074  1.6273  1.6225
  147SAPE  C21216224   5.309   5.453   9.369  0.4297 -0.1234 -0.1085
  147SAPE  H12R16225   5.225   5.381   9.367  0.2893  0.0175  0.6448
  147SAPE  C21316226   5.441   5.380   9.344  0.3555  0.0648 -0.3286
  147SAPE  H13R16227   5.452   5.290   9.409  0.2151  0.0312 -0.3508
  147SAPE  H13S16228   5.522   5.451   9.371 -0.5517  0.8361  0.4555
  147SAPE  C21416229   5.448   5.348   9.198 -0.6104  0.4072 -0.3779
  147SAPE  H14R16230   5.449   5.439   9.137 -0.7991  1.2627  0.8656
  147SAPE  C21516231   5.454   5.228   9.138 -0.6548  0.6354  0.3516
  147SAPE  H15R16232   5.463   5.231   9.029  0.7612 -1.6026  0.3663
  147SAPE  C21616233   5.458   5.096   9.204 -0.0875 -0.7550 -0.5324
  147SAPE  H16R16234   5.357   5.053   9.215 -0.6951 -0.0045 -2.8295
  147SAPE  H16S16235   5.511   5.104   9.302  0.0706  0.0309 -0.6794
  147SAPE  C21716236   5.547   4.996   9.129 -0.4817  0.8311 -0.0315
  147SAPE  H17R16237   5.529   4.891   9.162 -0.5546  0.3517 -1.5587
  147SAPE  H17S16238   5.654   5.018   9.149  0.1233 -0.4797 -1.7000
  147SAPE  C21816239   5.531   4.980   8.975  0.3052  0.3816  0.2924
  147SAPE  H18R16240   5.575   5.070   8.928 -2.5921  2.7720  1.9520
  147SAPE  H18S16241   5.422   4.976   8.952  0.2486 -1.0838  0.7471
  147SAPE  C21916242   5.595   4.849   8.929 -0.8321 -0.6138  0.1075
  147SAPE  H19R16243   5.556   4.759   8.981 -1.4248 -1.1959 -1.3235
  147SAPE  H19S16244   5.705   4.851   8.947 -0.7628  0.9820 -0.4461
  147SAPE  C22016245   5.569   4.816   8.776  0.2382  0.1760 -0.3653
  147SAPE  H20R16246   5.631   4.731   8.740  1.9112  1.4227 -0.5030
  147SAPE  H20S16247   5.583   4.909   8.716  1.0558  0.4231  0.1880
  147SAPE  H20T16248   5.462   4.789   8.769  0.1510  0.5913 -0.6358
  147SAPE   C3316249   5.120   5.295  10.411  0.2886 -0.0020  0.2814
  147SAPE   H3X16250   5.054   5.365  10.467 -0.5434 -0.7593  0.2418
  147SAPE   H3Y16251   5.145   5.211  10.479 -2.8831 -0.3072  1.1288
  147SAPE   C3416252   5.051   5.231  10.290 -0.3008 -1.2386 -0.5131
  147SAPE   H4X16253   5.031   5.308  10.212 -0.3204 -3.1274 -2.4301
  147SAPE   H4Y16254   4.951   5.194  10.320 -1.3866  1.3748 -0.8281
  147SAPE   C3516255   5.127   5.119  10.223 -0.2006  0.1991 -0.4759
  147SAPE   H5X16256   5.178   5.058  10.301  0.6381  0.9749 -0.4102
  147SAPE   H5Y16257   5.208   5.163  10.160  1.0452 -1.8183 -0.3310
  147SAPE   C3616258   5.032   5.037  10.133 -0.4363 -0.2366 -0.2574
  147SAPE   H6X16259   4.948   5.006  10.198  0.0764 -1.3349 -0.0880
  147SAPE   H6Y16260   5.079   4.947  10.087 -1.6292 -0.3620 -1.2405
  147SAPE   C3716261   4.959   5.112  10.016  0.5240  0.5278 -0.1441
  147SAPE   H7X16262   4.901   5.193  10.066 -0.7403 -1.2201  1.2739
  147SAPE   H7Y16263   4.883   5.051   9.963  0.3293  1.0921 -0.5224
  147SAPE   C3816264   5.055   5.139   9.901 -0.4917 -0.1977  0.8722
  147SAPE   H8X16265   5.115   5.049   9.874  1.3354  1.1651  0.2903
  147SAPE   H8Y16266   5.135   5.215   9.913  1.1364 -1.6881 -0.2300
  147SAPE   C3916267   4.980   5.183   9.772 -0.6464  0.7942  0.0354
  147SAPE   H9X16268   4.941   5.287   9.765 -0.9059  0.7161  0.2793
  147SAPE   H9Y16269   4.888   5.121   9.766 -1.1388  1.6510 -1.3017
  147SAPE  C31016270   5.060   5.154   9.644  0.1098  0.4259 -0.3127
  147SAPE  H10X16271   5.087   5.046   9.636  1.7542  0.8508 -0.6854
  147SAPE  H10Y16272   5.146   5.223   9.658 -1.9001  2.7455  0.9406
  147SAPE  C31116273   4.971   5.205   9.522 -0.2316  0.0815 -1.2669
  147SAPE  H11X16274   4.979   5.314   9.539 -0.8001  0.0377 -0.6946
  147SAPE  H11Y16275   4.863   5.178   9.529 -0.4270  0.9564 -0.9282
  147SAPE  C31216276   5.039   5.168   9.392  0.0921  0.2779  0.4057
  147SAPE  H12X16277   5.038   5.058   9.376 -5.0728  0.4213 -1.2288
  147SAPE  H12Y16278   5.143   5.206   9.398  0.5496 -0.8716 -0.0383
  147SAPE  C31316279   4.976   5.218   9.257 -0.4013 -0.4437 -0.7509
  147SAPE  H13X16280   4.962   5.329   9.253  0.1381 -0.3579 -0.2104
  147SAPE  H13Y16281   4.873   5.179   9.238 -0.0716 -0.8190 -1.7791
  147SAPE  C31416282   5.070   5.183   9.132 -0.5839 -0.5359 -0.2289
  147SAPE  H14X16283   5.174   5.212   9.157 -1.3513  1.3808  0.8570
  147SAPE  H14Y16284   5.051   5.263   9.057  5.3890  1.1850 -0.1302
  147SAPE  C31516285   5.057   5.051   9.067 -0.1733  0.4686 -0.7354
  147SAPE  H15X16286   4.950   5.043   9.041 -0.1114  1.7962 -1.4233
  147SAPE  H15Y16287   5.087   4.971   9.138 -3.3093 -0.8283 -0.8248
  147SAPE  C31616288   5.112   5.040   8.921 -0.1301 -0.2882 -0.3705
  147SAPE  H16X16289   5.222   5.054   8.922 -0.0023 -1.2097 -1.0217
  147SAPE  H16Y16290   5.072   5.131   8.871 -0.0383 -1.0998 -1.9228
  147SAPE  C31716291   5.064   4.922   8.840  0.2247  0.3256 -0.7400
  147SAPE  H17X16292   5.100   4.923   8.735  2.2086  2.1103 -0.0693
  147SAPE  H17Y16293   4.954   4.933   8.849  0.5050  1.1723  2.5009
  147SAPE  C31816294   5.104   4.783   8.904 -0.0045 -0.4313  0.1282
  147SAPE  H18X16295   5.083   4.782   9.013 -0.7382 -0.7882 -0.0156
  147SAPE  H18Y16296   5.211   4.769   8.876  0.1040 -0.1039  0.3856
  147SAPE  H18Z16297   5.060   4.691   8.861  1.2722 -0.8733 -0.2741
  148SAPE     N16298   0.198   1.591  10.743  0.5205 -0.6538 -0.1699
  148SAPE   HN116299   0.298   1.606  10.719  0.5751  1.5858  1.2795
  148SAPE   HN216300   0.187   1.643  10.833 -1.4320 -1.8827  0.3423
  148SAPE   HN316301   0.178   1.491  10.764  0.2742 -0.6908 -0.5963
  148SAPE   C1216302   0.113   1.647  10.637 -0.8154  0.9734  0.2597
  148SAPE  H12A16303   0.119   1.758  10.637  0.3499  0.9397  3.5314
  148SAPE  H12B16304   0.016   1.619  10.683  0.9335 -0.0576  3.4563
  148SAPE   C1116305   0.148   1.598  10.492  0.4835 -0.9180 -0.4053
  148SAPE  H11A16306   0.240   1.654  10.465  1.0011  0.4223  3.8133
  148SAPE  H11B16307   0.080   1.646  10.418  2.3296  0.1637 -1.4364
  148SAPE     P16308   0.040   1.367  10.437 -0.4819 -0.5381 -0.1513
  148SAPE   O1316309   0.109   1.247  10.390  0.6600  0.6784  0.8306
  148SAPE   O1416310  -0.058   1.356  10.546  0.5463 -0.0477  0.1220
  148SAPE   O1216311   0.159   1.458  10.483 -0.0411  0.0190 -0.9817
  148SAPE   O1116312  -0.024   1.442  10.315 -0.2851  0.7542 -0.9412
  148SAPE    C116313   0.055   1.452  10.195 -0.0281 -0.3920  0.6933
  148SAPE    HA16314   0.047   1.557  10.162 -0.4007  0.4543  3.3603
  148SAPE    HB16315   0.159   1.412  10.197  0.9726  2.2344  4.2447
  148SAPE    C216316  -0.013   1.373  10.081 -0.3374  0.6329  0.6406
  148SAPE    HS16317   0.048   1.281  10.068 -1.2946 -0.1759  1.7741
  148SAPE   O2116318  -0.014   1.451   9.957  0.4522 -0.2214 -0.1253
  148SAPE   C2116319   0.006   1.385   9.850 -0.5206  0.8467 -0.4729
  148SAPE   O2216320   0.026   1.263   9.846 -0.0033 -0.9306  0.0540
  148SAPE   C2216321  -0.002   1.463   9.724 -0.2615 -0.6004  0.1631
  148SAPE   H2R16322  -0.059   1.559   9.721  0.4140 -0.1898  0.4286
  148SAPE   H2S16323   0.100   1.491   9.690 -0.8824  1.5405 -0.0673
  148SAPE    C316324  -0.156   1.308  10.121 -0.6747 -0.6867  0.2941
  148SAPE    HX16325  -0.235   1.386  10.131 -0.9454 -0.9826  0.5076
  148SAPE    HY16326  -0.157   1.256  10.219  0.6310  1.1966  1.3324
  148SAPE   O3116327  -0.203   1.226  10.018 -0.5203  0.1964 -0.0853
  148SAPE   C3116328  -0.232   1.099  10.046 -0.0651 -0.5520  0.0452
  148SAPE   O3216329  -0.251   1.053  10.160  0.1199  0.0675  0.0908
  148SAPE   C3216330  -0.250   1.022   9.918 -0.2327  0.0494 -0.0692
  148SAPE   H2X16331  -0.215   0.917   9.923 -0.4101 -0.0435 -0.7385
  148SAPE   H2Y16332  -0.178   1.067   9.846  1.0658  0.2049  1.2903
  148SAPE   C2316333  -0.042   1.366   9.612  0.3927  0.3056  1.0716
  148SAPE   H3R16334  -0.142   1.322   9.631  0.2596  0.6129  1.0907
  148SAPE   H3S16335   0.046   1.298   9.606 -0.9865 -1.4203  0.0541
  148SAPE   C2416336  -0.059   1.443   9.479 -0.0667 -0.5855 -0.2158
  148SAPE   H4R16337   0.034   1.502   9.459 -1.1275  1.5780  1.1134
  148SAPE   H4S16338  -0.139   1.519   9.493  1.4450  1.5447 -2.6384
  148SAPE   C2516339  -0.082   1.347   9.371 -0.6222 -0.7427 -0.9042
  148SAPE   H5R16340  -0.099   1.243   9.403  1.0261 -1.1902 -1.4052
  148SAPE   C2616341  -0.089   1.378   9.240 -0.0503 -1.1545  0.1474
  148SAPE   H6R16342  -0.102   1.299   9.164 -1.4472 -1.9097  1.1436
  148SAPE   C2716343  -0.083   1.521   9.193  1.0060  0.2203 -0.6004
  148SAPE   H7R16344   0.026   1.546   9.197  1.6927 -2.4455 -1.0720
  148SAPE   H7S16345  -0.150   1.583   9.255 -0.9077 -0.4426 -1.9792
  148SAPE   C2816346  -0.146   1.536   9.057  0.6398  0.2697  0.1241
  148SAPE   H8R16347  -0.252   1.508   9.050  0.2544  1.3761  1.3080
  148SAPE   C2916348  -0.098   1.600   8.953 -0.0653 -0.1979  0.9495
  148SAPE   H9R16349  -0.161   1.608   8.864  1.4628 -1.1805 -0.2551
  148SAPE  C21016350   0.034   1.671   8.939  0.1201  0.5112 -0.2638
  148SAPE  H10R16351   0.074   1.699   9.039 -2.3386  1.2332  0.5661
  148SAPE  H10S16352   0.031   1.768   8.886  2.8942  1.1017  0.5920
  148SAPE  C21116353   0.144   1.584   8.884 -0.2732  0.1551  0.3194
  148SAPE  H11R16354   0.209   1.531   8.955  1.4020  0.1560 -1.1875
  148SAPE  C21216355   0.166   1.558   8.752  0.2354 -0.3557  0.2133
  148SAPE  H12R16356   0.260   1.508   8.723 -0.1095 -0.2186 -1.1569
  148SAPE  C21316357   0.079   1.610   8.639  0.1589  0.1277 -0.1208
  148SAPE  H13R16358   0.046   1.714   8.659 -1.3159  0.1932 -2.7723
  148SAPE  H13S16359  -0.018   1.557   8.645  0.5656 -0.8144 -1.6257
  148SAPE  C21416360   0.151   1.605   8.506  0.7487  0.3009  0.5870
  148SAPE  H14R16361   0.176   1.706   8.471  2.4433  0.0621  1.1071
  148SAPE  C21516362   0.164   1.499   8.431 -0.6513 -0.5726 -0.1121
  148SAPE  H15R16363   0.217   1.516   8.336  0.1547  0.5826  0.5378
  148SAPE  C21616364   0.115   1.351   8.442 -0.0529 -0.1889 -0.6248
  148SAPE  H16R16365   0.064   1.332   8.345 -1.5617  0.3461  0.0575
  148SAPE  H16S16366   0.043   1.347   8.526  0.2678  2.4154 -0.1843
  148SAPE  C21716367   0.217   1.234   8.470  0.5355 -0.1670 -0.4439
  148SAPE  H17R16368   0.276   1.213   8.378  0.1309 -0.1362 -0.7126
  148SAPE  H17S16369   0.161   1.141   8.495 -0.6204  0.6406 -0.0286
  148SAPE  C21816370   0.326   1.265   8.575 -0.1593 -0.1229  0.0909
  148SAPE  H18R16371   0.272   1.293   8.668 -0.6575 -0.6050 -0.0440
  148SAPE  H18S16372   0.389   1.350   8.543  2.3474 -2.1720 -0.6607
  148SAPE  C21916373   0.427   1.155   8.594  0.0383 -1.0085  0.0089
  148SAPE  H19R16374   0.474   1.139   8.495  0.4359 -0.2906  0.0790
  148SAPE  H19S16375   0.378   1.063   8.633 -0.2769 -1.0804 -0.5658
  148SAPE  C22016376   0.557   1.178   8.686 -0.3857  0.1948 -0.3751
  148SAPE  H20R16377   0.600   1.277   8.659 -1.4374  0.7016 -0.2180
  148SAPE  H20S16378   0.627   1.093   8.670 -0.5559  0.4489 -2.6458
  148SAPE  H20T16379   0.522   1.174   8.792  1.2578 -0.4550  0.1574
  148SAPE   C3316380  -0.376   1.041   9.847 -0.2886  0.2479  0.4061
  148SAPE   H3X16381  -0.407   1.147   9.829 -1.9324 -0.3822 -0.5834
  148SAPE   H3Y16382  -0.453   0.998   9.915 -0.2358 -1.1865 -0.4289
  148SAPE   C3416383  -0.368   0.966   9.712  0.3748 -0.7859 -0.4217
  148SAPE   H4X16384  -0.462   0.907   9.710 -0.1890  0.0771  0.5971
  148SAPE   H4Y16385  -0.289   0.888   9.716  2.0629  0.7487 -2.4477
  148SAPE   C3516386  -0.353   1.054   9.591 -0.9822  0.2101 -0.4334
  148SAPE   H5X16387  -0.251   1.097   9.581 -0.2095 -1.0545  1.5617
  148SAPE   H5Y16388  -0.430   1.134   9.591 -0.0255  1.1442 -0.3330
  148SAPE   C3616389  -0.377   0.967   9.470  0.1754  0.3013 -0.1320
  148SAPE   H6X16390  -0.482   0.932   9.480  0.4723 -0.4331  0.5141
  148SAPE   H6Y16391  -0.312   0.877   9.472 -2.2031 -1.4454  1.2852
  148SAPE   C3716392  -0.353   1.039   9.335  0.3113 -0.2035  0.0930
  148SAPE   H7X16393  -0.255   1.090   9.322 -0.0300  0.4579  0.1114
  148SAPE   H7Y16394  -0.429   1.119   9.324 -0.7089 -1.0914  0.6668
  148SAPE   C3816395  -0.364   0.951   9.205 -0.4440  0.0572  0.5158
  148SAPE   H8X16396  -0.468   0.946   9.167  0.7594 -1.4958 -2.7251
  148SAPE   H8Y16397  -0.322   0.849   9.220  1.3832  0.2640 -2.7916
  148SAPE   C3916398  -0.292   1.008   9.078 -0.3727 -0.0662 -0.7046
  148SAPE   H9X16399  -0.183   1.008   9.099 -0.5485 -1.7376  0.2797
  148SAPE   H9Y16400  -0.326   1.113   9.066  0.0444 -0.0105 -1.3995
  148SAPE  C31016401  -0.305   0.914   8.954 -0.5923 -0.4481 -0.0097
  148SAPE  H10X16402  -0.306   0.811   8.996  1.1582 -1.6379 -2.7472
  148SAPE  H10Y16403  -0.211   0.921   8.896  0.1609 -1.4486  1.0650
  148SAPE  C31116404  -0.431   0.952   8.884  0.0561 -0.2267 -0.1415
  148SAPE  H11X16405  -0.450   1.059   8.866  0.9489 -0.3994 -2.3528
  148SAPE  H11Y16406  -0.510   0.929   8.958  1.6573  0.9890  1.9893
  148SAPE  C31216407  -0.468   0.884   8.752  0.8056  0.1101  1.1357
  148SAPE  H12X16408  -0.472   0.773   8.747 -0.4149  0.2419 -1.3623
  148SAPE  H12Y16409  -0.389   0.916   8.681 -0.2878 -0.4038 -0.3405
  148SAPE  C31316410  -0.608   0.945   8.706 -0.1438 -0.4446  0.5447
  148SAPE  H13X16411  -0.598   1.053   8.727  1.6349 -0.7552  1.3808
  148SAPE  H13Y16412  -0.691   0.900   8.764  1.1307  0.9833  3.5528
  148SAPE  C31416413  -0.633   0.948   8.553 -0.1392  0.3288 -0.6904
  148SAPE  H14X16414  -0.661   0.844   8.523  0.3875 -0.4798  1.4618
  148SAPE  H14Y16415  -0.535   0.965   8.504  0.1860  1.7920  0.4436
  148SAPE  C31516416  -0.746   1.048   8.522 -0.2626  0.4277 -0.3992
  148SAPE  H15X16417  -0.736   1.142   8.581 -1.6706 -0.7931  1.8742
  148SAPE  H15Y16418  -0.839   1.006   8.566  0.9628  0.4700  2.3719
  148SAPE  C31616419  -0.778   1.073   8.369 -0.3412 -0.5143 -0.3412
  148SAPE  H16X16420  -0.754   0.978   8.316  1.5375  0.0629 -0.5400
  148SAPE  H16Y16421  -0.718   1.150   8.317  0.2815 -0.1968  0.8322
  148SAPE  C31716422  -0.923   1.125   8.340  0.3665  0.3019  0.3922
  148SAPE  H17X16423  -0.993   1.072   8.410 -0.0760 -1.1170 -1.0930
  148SAPE  H17Y16424  -0.943   1.097   8.235  0.1605  2.1746 -0.0768
  148SAPE  C31816425  -0.953   1.271   8.355  0.0705  0.1278  0.5836
  148SAPE  H18X16426  -1.055   1.306   8.328 -0.6924  0.2650  3.5286
  148SAPE  H18Y16427  -0.872   1.329   8.307  1.0810 -1.0149  0.9021
  148SAPE  H18Z16428  -0.942   1.295   8.463  0.1765  1.8068  0.2116
  149SAPE     N16429   2.403   3.218  11.302 -0.1954 -0.4759  0.1577
  149SAPE   HN116430   2.501   3.222  11.336 -0.4330  1.1849  0.7061
  149SAPE   HN216431   2.359   3.311  11.317 -0.1701 -0.6058  1.0350
  149SAPE   HN316432   2.353   3.139  11.347 -1.4331 -0.7769 -1.6879
  149SAPE   C1216433   2.403   3.190  11.154 -0.4596  0.5579 -0.4190
  149SAPE  H12A16434   2.313   3.128  11.133  0.4745 -1.7438  2.0542
  149SAPE  H12B16435   2.491   3.129  11.127  0.2734  1.4045  0.0306
  149SAPE   C1116436   2.422   3.317  11.068 -0.7640  0.2172 -0.3310
  149SAPE  H11A16437   2.418   3.292  10.960 -0.4455  0.7260 -0.4602
  149SAPE  H11B16438   2.528   3.343  11.087 -0.1640 -1.3505 -1.4107
  149SAPE     P16439   2.190   3.419  11.070  0.1227 -0.0313  0.2614
  149SAPE   O1316440   2.124   3.311  11.147  0.3345 -0.4249  0.5361
  149SAPE   O1416441   2.127   3.554  11.087  0.5652 -0.3131 -0.2870
  149SAPE   O1216442   2.342   3.424  11.102  0.2761 -0.2393 -0.4171
  149SAPE   O1116443   2.195   3.382  10.916  0.8161  0.2474 -0.0257
  149SAPE    C116444   2.198   3.490  10.817 -0.0328  0.7210  0.6590
  149SAPE    HA16445   2.109   3.557  10.812  0.2750  1.0271 -0.9283
  149SAPE    HB16446   2.297   3.537  10.832 -1.2005  2.3300  3.8040
  149SAPE    C216447   2.201   3.441  10.667 -0.7544  0.6417 -0.5824
  149SAPE    HS16448   2.206   3.528  10.597  0.7173 -0.8112 -2.3406
  149SAPE   O2116449   2.085   3.361  10.651  0.1577  0.0359 -0.0925
  149SAPE   C2116450   2.025   3.366  10.529 -0.6876 -0.8144  0.5621
  149SAPE   O2216451   2.075   3.419  10.432  0.7425 -0.2441 -0.0162
  149SAPE   C2216452   1.885   3.297  10.539  0.1335 -0.2188  0.8170
  149SAPE   H2R16453   1.877   3.241  10.635 -0.3603  0.1717  1.0038
  149SAPE   H2S16454   1.802   3.368  10.524  0.2925 -0.3989 -1.0627
  149SAPE    C316455   2.325   3.348  10.647 -0.2039 -0.2492 -0.2669
  149SAPE    HX16456   2.322   3.281  10.735 -0.4365 -1.3796 -1.1167
  149SAPE    HY16457   2.423   3.397  10.663  1.6135 -3.4190 -1.2069
  149SAPE   O3116458   2.325   3.277  10.518  0.3327  0.3034  0.0833
  149SAPE   C3116459   2.372   3.350  10.422 -0.2663  0.1757 -0.3627
  149SAPE   O3216460   2.433   3.454  10.439 -0.2561  0.4191  0.2339
  149SAPE   C3216461   2.353   3.295  10.286  0.3159  0.1682 -0.1203
  149SAPE   H2X16462   2.453   3.298  10.237  0.8508  1.9507  1.0211
  149SAPE   H2Y16463   2.287   3.353  10.218  0.6885 -0.4047 -0.9765
  149SAPE   C2316464   1.872   3.192  10.422  0.0874  0.3801  0.3971
  149SAPE   H3R16465   1.813   3.106  10.461  0.6073  0.3065  1.0232
  149SAPE   H3S16466   1.970   3.141  10.411  1.0563  1.8100  2.1790
  149SAPE   C2416467   1.802   3.233  10.291  0.5233  0.2504  1.0672
  149SAPE   H4R16468   1.717   3.297  10.324  0.0191 -0.7168  1.6773
  149SAPE   H4S16469   1.751   3.146  10.245 -1.3133  1.7828  0.0806
  149SAPE   C2516470   1.887   3.313  10.189 -0.0256 -0.1542  0.1999
  149SAPE   H5R16471   1.916   3.414  10.222  0.8487 -0.2830 -0.1565
  149SAPE   C2616472   1.924   3.275  10.068 -0.7430  0.0197 -0.2835
  149SAPE   H6R16473   1.980   3.343  10.003  2.0684 -2.8249 -0.9707
  149SAPE   C2716474   1.887   3.155   9.994 -0.1918  0.7234 -0.0888
  149SAPE   H7R16475   1.897   3.064  10.056  0.0924 -0.4499 -1.8066
  149SAPE   H7S16476   1.963   3.138   9.915  0.0717 -0.9117  0.5142
  149SAPE   C2816477   1.756   3.160   9.937  0.8872 -0.5452  0.3335
  149SAPE   H8R16478   1.675   3.157  10.012  1.5308 -1.7991  1.0034
  149SAPE   C2916479   1.718   3.152   9.811  0.1067 -1.0670  0.2176
  149SAPE   H9R16480   1.612   3.141   9.782  0.4206 -3.0549 -0.2678
  149SAPE  C21016481   1.802   3.151   9.687 -0.3931 -0.0729 -1.1218
  149SAPE  H10R16482   1.911   3.147   9.711 -0.9834  0.8041  1.8592
  149SAPE  H10S16483   1.782   3.240   9.624  1.9824  0.0456 -1.7630
  149SAPE  C21116484   1.782   3.030   9.598  0.7225 -0.0262  0.5650
  149SAPE  H11R16485   1.797   2.934   9.649  0.6834 -1.2626 -1.6924
  149SAPE  C21216486   1.756   3.024   9.462  0.4365  0.0606 -0.4163
  149SAPE  H12R16487   1.741   2.924   9.419  0.1508 -0.2771  0.4580
  149SAPE  C21316488   1.734   3.136   9.357 -0.1560  0.5200 -0.4736
  149SAPE  H13R16489   1.814   3.132   9.280 -1.0858 -1.5295 -1.3795
  149SAPE  H13S16490   1.773   3.229   9.405  0.1142  0.0072  0.3149
  149SAPE  C21416491   1.589   3.160   9.318 -0.6327 -0.5440  0.5558
  149SAPE  H14R16492   1.530   3.199   9.402 -2.6188  2.4693 -2.1119
  149SAPE  C21516493   1.530   3.144   9.201 -0.4438 -0.0784 -0.6735
  149SAPE  H15R16494   1.424   3.171   9.189 -0.4828  0.5831  1.0364
  149SAPE  C21616495   1.598   3.098   9.075  0.0563 -0.0640 -0.0262
  149SAPE  H16R16496   1.558   3.002   9.036  0.4874 -0.5667  0.7550
  149SAPE  H16S16497   1.705   3.079   9.097 -0.3581  0.5538  2.6793
  149SAPE  C21716498   1.582   3.205   8.961  0.4333 -0.3141 -0.1418
  149SAPE  H17R16499   1.474   3.211   8.936  0.4954  0.3504 -0.2421
  149SAPE  H17S16500   1.638   3.156   8.879 -0.0345 -0.5698 -0.3138
  149SAPE  C21816501   1.645   3.341   8.989  0.2501  0.1177 -0.1969
  149SAPE  H18R16502   1.750   3.323   9.022  1.0858  2.3041 -1.5054
  149SAPE  H18S16503   1.588   3.393   9.069  0.6080  0.0128  0.1293
  149SAPE  C21916504   1.670   3.439   8.875  0.4809  0.4379  0.2801
  149SAPE  H19R16505   1.735   3.379   8.807  1.2584 -0.3037  1.6399
  149SAPE  H19S16506   1.732   3.527   8.902  1.5034 -0.4664  0.9565
  149SAPE  C22016507   1.551   3.475   8.795 -0.6974  0.7593  0.2383
  149SAPE  H20R16508   1.470   3.515   8.859  0.5475  1.1978  1.5893
  149SAPE  H20S16509   1.530   3.386   8.731  0.9925  1.8449 -1.9116
  149SAPE  H20T16510   1.569   3.556   8.722  1.9598  0.0088 -0.0130
  149SAPE   C3316511   2.325   3.148  10.290 -0.0934 -0.3902  0.1246
  149SAPE   H3X16512   2.235   3.136  10.353 -0.9191 -2.1629 -1.3178
  149SAPE   H3Y16513   2.401   3.081  10.335  0.0364 -0.7153 -0.5667
  149SAPE   C3416514   2.282   3.104  10.151  0.4135  0.3254  0.1583
  149SAPE   H4X16515   2.211   3.173  10.102  0.1059  3.1895  4.3737
  149SAPE   H4Y16516   2.220   3.013  10.161  0.2531  0.4465  0.2647
  149SAPE   C3516517   2.406   3.059  10.053  0.4709 -0.3225  0.1920
  149SAPE   H5X16518   2.474   2.988  10.106  1.8560  0.4412 -0.5223
  149SAPE   H5Y16519   2.463   3.151  10.030  0.9108 -0.7033 -0.2696
  149SAPE   C3616520   2.370   2.990   9.923 -0.1956 -0.0807 -0.2831
  149SAPE   H6X16521   2.322   2.890   9.938  0.3627 -0.1104  1.3310
  149SAPE   H6Y16522   2.468   2.970   9.875  0.3833 -1.0360  1.2426
  149SAPE   C3716523   2.277   3.072   9.834 -0.5978 -0.1911  0.6369
  149SAPE   H7X16524   2.174   3.073   9.875 -0.5796  0.4870  0.6712
  149SAPE   H7Y16525   2.279   3.015   9.739  0.0281 -0.5029  0.8318
  149SAPE   C3816526   2.320   3.219   9.795  0.5850  0.2888 -0.6316
  149SAPE   H8X16527   2.418   3.208   9.744  1.8240 -0.8376  1.8896
  149SAPE   H8Y16528   2.334   3.285   9.883 -0.1602  0.3729 -0.5685
  149SAPE   C3916529   2.221   3.301   9.713  0.0233  0.2751  0.1786
  149SAPE   H9X16530   2.266   3.401   9.700  0.1068  0.1734 -0.3349
  149SAPE   H9Y16531   2.129   3.314   9.775 -1.0971  0.9220 -1.5731
  149SAPE  C31016532   2.188   3.241   9.578 -0.0426 -0.1357  0.2266
  149SAPE  H10X16533   2.154   3.138   9.599  1.2546 -0.6789 -0.2717
  149SAPE  H10Y16534   2.285   3.236   9.523  0.6085  2.1356  1.1077
  149SAPE  C31116535   2.084   3.325   9.506  0.5831  0.0396  0.5088
  149SAPE  H11X16536   2.114   3.432   9.508  0.1874  0.1935 -1.1219
  149SAPE  H11Y16537   1.988   3.326   9.562 -0.2547  2.1810 -0.9126
  149SAPE  C31216538   2.061   3.279   9.362 -0.3122  0.0358  0.0147
  149SAPE  H12X16539   1.972   3.338   9.329  0.6175  1.2935 -0.2605
  149SAPE  H12Y16540   2.036   3.171   9.364  0.9816 -0.2664  2.1730
  149SAPE  C31316541   2.170   3.307   9.256 -0.0709  1.0579  0.3232
  149SAPE  H13X16542   2.250   3.233   9.278 -0.7260 -0.2348 -1.5282
  149SAPE  H13Y16543   2.211   3.410   9.266  2.5200  0.0927 -0.0767
  149SAPE  C31416544   2.121   3.297   9.106 -0.0224  0.7666  0.0362
  149SAPE  H14X16545   2.214   3.300   9.045  0.5572  1.2676  0.9317
  149SAPE  H14Y16546   2.058   3.382   9.074 -2.3108 -0.1522  1.9329
  149SAPE  C31516547   2.056   3.161   9.081 -0.4846  0.3501  0.1629
  149SAPE  H15X16548   1.952   3.163   9.120 -0.3384  1.5912  0.5161
  149SAPE  H15Y16549   2.114   3.083   9.134 -1.5935  0.8077  2.0894
  149SAPE  C31616550   2.048   3.133   8.930  0.5945 -0.3559  0.1925
  149SAPE  H16X16551   2.156   3.138   8.906  0.8007 -1.4120  0.8843
  149SAPE  H16Y16552   1.994   3.212   8.874 -0.7315 -1.6568 -0.4061
  149SAPE  C31716553   1.985   3.004   8.902 -0.4131 -0.0821 -0.7059
  149SAPE  H17X16554   1.886   2.994   8.951 -0.0576 -2.3041 -0.3831
  149SAPE  H17Y16555   2.053   2.925   8.941 -0.9963 -0.0040  0.4670
  149SAPE  C31816556   1.961   2.995   8.747  0.4212  0.1308  0.5350
  149SAPE  H18X16557   1.877   3.061   8.714 -0.8743 -0.8170  1.8524
  149SAPE  H18Y16558   1.947   2.887   8.722 -2.9085  0.6337 -0.0201
  149SAPE  H18Z16559   2.055   3.026   8.697  1.0943 -2.9552 -0.2146
  150SAPE     N16560   3.682   2.155  10.981 -0.0306  0.1200  0.0412
  150SAPE   HN116561   3.701   2.120  10.884  1.2753  0.2926  0.2223
  150SAPE   HN216562   3.743   2.094  11.040 -0.9539 -1.2540 -0.3921
  150SAPE   HN316563   3.582   2.130  10.995 -0.7370  3.6979  1.9221
  150SAPE   C1216564   3.710   2.309  10.987  0.6244  0.2389  0.3953
  150SAPE  H12A16565   3.683   2.351  11.086 -2.0811 -0.0685 -0.1786
  150SAPE  H12B16566   3.633   2.346  10.915 -0.6914 -1.1341  1.0755
  150SAPE   C1116567   3.847   2.347  10.938  0.2412  0.0740  0.2469
  150SAPE  H11A16568   3.934   2.315  10.999 -0.8696 -1.0690  1.2427
  150SAPE  H11B16569   3.847   2.458  10.933 -0.2643  0.1063  0.8236
  150SAPE     P16570   3.935   2.355  10.689  0.2660 -0.0085  0.3711
  150SAPE   O1316571   3.874   2.488  10.668  0.3303  0.2222  0.2519
  150SAPE   O1416572   4.082   2.357  10.696  0.2499  0.0300  0.0115
  150SAPE   O1216573   3.864   2.282  10.808  0.1819  0.1916  0.2053
  150SAPE   O1116574   3.894   2.257  10.567 -0.2458 -0.5718 -0.3277
  150SAPE    C116575   3.763   2.202  10.555 -0.1496  0.5145 -0.5603
  150SAPE    HA16576   3.772   2.093  10.572 -1.8910  0.3903 -0.3706
  150SAPE    HB16577   3.696   2.245  10.632 -1.1021 -1.2766 -0.3752
  150SAPE    C216578   3.711   2.211  10.409 -0.1429  0.8948  0.5337
  150SAPE    HS16579   3.604   2.181  10.399  0.7825 -1.0155 -5.3656
  150SAPE   O2116580   3.801   2.130  10.322  0.3149 -0.6664 -0.2750
  150SAPE   C2116581   3.756   2.001  10.323 -0.5090 -0.5610  0.0536
  150SAPE   O2216582   3.675   1.953  10.400  0.0436 -0.1511 -0.0731
  150SAPE   C2216583   3.840   1.909  10.219 -0.1137 -0.2026  0.0914
  150SAPE   H2R16584   3.944   1.947  10.207 -0.6257  0.8943 -1.0465
  150SAPE   H2S16585   3.845   1.809  10.266 -1.4830 -1.3001 -2.0493
  150SAPE    C316586   3.706   2.358  10.354 -0.0500  0.0415  0.0156
  150SAPE    HX16587   3.813   2.389  10.349 -0.3820  1.4102  1.1593
  150SAPE    HY16588   3.652   2.423  10.426  1.9514  0.6882  0.9641
  150SAPE   O3116589   3.629   2.358  10.227 -0.4197  0.5183  0.0135
  150SAPE   C3116590   3.681   2.422  10.137 -0.2360  0.7192  0.9382
  150SAPE   O3216591   3.799   2.457  10.123 -0.2323  0.0052  0.4977
  150SAPE   C3216592   3.578   2.433  10.028  0.0247 -0.2129  0.0929
  150SAPE   H2X16593   3.536   2.533  10.052  0.2604  0.2508 -1.3989
  150SAPE   H2Y16594   3.493   2.362  10.034  0.9625 -1.3887 -0.2178
  150SAPE   C2316595   3.755   1.892  10.083 -0.4985 -0.3365  0.1922
  150SAPE   H3R16596   3.653   1.853  10.107 -0.4031 -0.4896  0.3464
  150SAPE   H3S16597   3.810   1.811  10.030  0.0367  0.3540 -0.3112
  150SAPE   C2416598   3.755   2.025  10.004  0.1258  0.1160 -0.0140
  150SAPE   H4R16599   3.725   2.111  10.068 -1.0290 -0.7854  0.6607
  150SAPE   H4S16600   3.673   2.024   9.929 -0.3044  0.6064  0.4469
  150SAPE   C2516601   3.890   2.056   9.946  0.5049 -0.1576 -0.4009
  150SAPE   H5R16602   3.966   2.085  10.020 -1.3982  4.2005  0.0332
  150SAPE   C2616603   3.917   2.082   9.817  0.3972  0.3487 -0.3280
  150SAPE   H6R16604   4.022   2.103   9.794  0.5487 -0.0554 -0.0012
  150SAPE   C2716605   3.836   2.069   9.695 -0.7525 -0.3704 -0.2908
  150SAPE   H7R16606   3.731   2.092   9.722 -0.2536 -0.7770  2.0986
  150SAPE   H7S16607   3.842   1.967   9.653 -1.4846 -0.3008 -0.5721
  150SAPE   C2816608   3.882   2.165   9.582 -0.2870 -0.3841 -0.2777
  150SAPE   H8R16609   3.939   2.252   9.616  1.9704 -1.2704 -1.7329
  150SAPE   C2916610   3.867   2.147   9.451  0.7788 -0.1732  0.3329
  150SAPE   H9R16611   3.924   2.220   9.393  1.2034 -0.6847  0.0989
  150SAPE  C21016612   3.806   2.044   9.360 -0.4084  0.4734 -0.0687
  150SAPE  H10R16613   3.736   2.097   9.292  0.5556  0.6153 -0.9717
  150SAPE  H10S16614   3.738   1.975   9.415  1.3837 -1.7105 -0.5122
  150SAPE  C21116615   3.901   1.965   9.280 -0.2107  0.2677 -0.4704
  150SAPE  H11R16616   3.929   1.874   9.335 -0.9210 -0.4997 -1.3472
  150SAPE  C21216617   3.959   1.988   9.159  0.0069 -0.7016  0.8984
  150SAPE  H12R16618   4.028   1.913   9.119  0.4224  0.1883 -0.0847
  150SAPE  C21316619   3.942   2.111   9.069 -0.5333 -0.1438 -0.1206
  150SAPE  H13R16620   4.033   2.134   9.011 -1.2805 -2.0037 -2.1167
  150SAPE  H13S16621   3.937   2.198   9.137  2.8215  1.5301 -1.9117
  150SAPE  C21416622   3.817   2.116   8.978 -0.2521  0.7480  0.2580
  150SAPE  H14R16623   3.721   2.140   9.026 -1.6567 -0.1335 -2.0170
  150SAPE  C21516624   3.813   2.079   8.850  0.5600  0.2941  0.0818
  150SAPE  H15R16625   3.730   2.123   8.792  1.5223 -0.8807 -2.2719
  150SAPE  C21616626   3.921   2.016   8.768 -0.7583 -0.7404 -0.1106
  150SAPE  H16R16627   4.026   2.039   8.796 -1.1527  0.1888  0.6019
  150SAPE  H16S16628   3.903   2.070   8.672 -0.5136 -1.2110 -0.4235
  150SAPE  C21716629   3.893   1.868   8.729  0.2852 -0.6169 -0.1267
  150SAPE  H17R16630   3.802   1.840   8.673  0.5366 -1.1135 -0.2955
  150SAPE  H17S16631   3.873   1.814   8.824 -0.4954  0.5746  0.3852
  150SAPE  C21816632   4.015   1.813   8.653  0.2098 -0.1404  0.2987
  150SAPE  H18R16633   4.100   1.840   8.719  2.6055  0.4301 -2.9158
  150SAPE  H18S16634   4.030   1.863   8.555 -0.0890  0.0359  0.3410
  150SAPE  C21916635   4.003   1.666   8.643  0.1450  0.2555  0.0981
  150SAPE  H19R16636   3.976   1.626   8.743  1.8063 -1.3659 -0.0789
  150SAPE  H19S16637   4.109   1.639   8.622 -1.0477 -2.6697 -2.5948
  150SAPE  C22016638   3.913   1.609   8.534  0.4401 -0.3148  0.2903
  150SAPE  H20R16639   3.810   1.649   8.548  0.2719 -1.0327  1.1855
  150SAPE  H20S16640   3.912   1.499   8.550  0.4285 -0.4218 -0.4169
  150SAPE  H20T16641   3.944   1.650   8.435 -0.3375 -0.8614 -0.1937
  150SAPE   C3316642   3.644   2.424   9.883  0.0200  0.3917 -0.1659
  150SAPE   H3X16643   3.721   2.344   9.886 -0.4234  0.0121  1.6597
  150SAPE   H3Y16644   3.690   2.523   9.862  0.4883  0.4344  0.9879
  150SAPE   C3416645   3.540   2.383   9.783  0.4573 -0.6476 -0.8600
  150SAPE   H4X16646   3.448   2.442   9.805  1.0679 -0.4801  1.3277
  150SAPE   H4Y16647   3.519   2.275   9.798 -1.2123 -0.2748 -0.4275
  150SAPE   C3516648   3.595   2.412   9.637 -0.2652  0.0762 -0.2061
  150SAPE   H5X16649   3.656   2.325   9.602  0.0007  0.6965 -1.3158
  150SAPE   H5Y16650   3.664   2.498   9.640 -1.3878  0.9315  1.6522
  150SAPE   C3616651   3.477   2.429   9.541 -0.1255  0.2888 -1.5397
  150SAPE   H6X16652   3.425   2.527   9.552  1.2372  1.0356 -1.5686
  150SAPE   H6Y16653   3.395   2.360   9.567 -1.7277  2.6459 -0.1711
  150SAPE   C3716654   3.525   2.407   9.403 -0.0478 -0.1521 -0.0542
  150SAPE   H7X16655   3.565   2.305   9.388 -2.2774 -1.1353  0.3878
  150SAPE   H7Y16656   3.603   2.483   9.383 -0.4637  0.6771  1.3972
  150SAPE   C3816657   3.411   2.433   9.301 -0.7706 -0.6244  0.4790
  150SAPE   H8X16658   3.364   2.534   9.308  0.7086  0.2098 -1.1580
  150SAPE   H8Y16659   3.325   2.369   9.328 -1.5152  0.8904  1.7659
  150SAPE   C3916660   3.448   2.407   9.149  0.6047 -0.4588  0.0704
  150SAPE   H9X16661   3.355   2.426   9.092  0.1959 -2.4758  0.0043
  150SAPE   H9Y16662   3.472   2.299   9.133 -1.7720 -0.7518 -1.8242
  150SAPE  C31016663   3.556   2.497   9.094  0.3207  0.0877  0.2969
  150SAPE  H10X16664   3.653   2.495   9.147  1.1238 -1.8927 -1.1896
  150SAPE  H10Y16665   3.520   2.602   9.103 -1.4106 -0.6289  2.0091
  150SAPE  C31116666   3.578   2.471   8.944  0.0299 -0.4293  0.1544
  150SAPE  H11X16667   3.486   2.493   8.884  0.9443  2.3199 -0.2919
  150SAPE  H11Y16668   3.591   2.361   8.929 -1.6064 -0.7854  1.1806
  150SAPE  C31216669   3.700   2.545   8.885  0.4120 -0.1519 -0.1641
  150SAPE  H12X16670   3.789   2.525   8.947 -0.5297  2.7428  2.2146
  150SAPE  H12Y16671   3.689   2.655   8.876  0.5938 -0.0268  1.0997
  150SAPE  C31316672   3.727   2.502   8.737 -0.0418 -0.2927 -0.1784
  150SAPE  H13X16673   3.675   2.567   8.664  1.8967  1.4299 -0.0663
  150SAPE  H13Y16674   3.697   2.395   8.724  1.3868 -0.6266 -0.7516
  150SAPE  C31416675   3.873   2.509   8.697 -0.9047 -0.3435 -0.0119
  150SAPE  H14X16676   3.887   2.455   8.600 -0.5065  1.2165 -0.8403
  150SAPE  H14Y16677   3.921   2.447   8.775 -1.0161 -1.0858 -0.5183
  150SAPE  C31516678   3.927   2.655   8.687  0.8044 -0.2887 -0.3721
  150SAPE  H15X16679   3.935   2.698   8.789 -3.0483  1.2752 -0.6281
  150SAPE  H15Y16680   3.866   2.716   8.617  2.1139  1.2703 -0.1959
  150SAPE  C31616681   4.072   2.662   8.626  0.4104  0.4212 -0.1578
  150SAPE  H16X16682   4.059   2.635   8.519 -0.5111  0.4064 -0.0444
  150SAPE  H16Y16683   4.141   2.587   8.671  1.1902  1.1544 -0.1037
  150SAPE  C31716684   4.133   2.799   8.629  0.1509  0.2460  0.2651
  150SAPE  H17X16685   4.069   2.866   8.568 -0.0119 -0.2983 -0.1718
  150SAPE  H17Y16686   4.231   2.791   8.577 -1.1345  3.4578 -2.8796
  150SAPE  C31816687   4.156   2.854   8.772  0.0939  0.6387  1.1617
  150SAPE  H18X16688   4.229   2.790   8.825 -0.5852 -1.5704 -0.5043
  150SAPE  H18Y16689   4.065   2.840   8.834 -0.6254 -0.4009 -0.1101
  150SAPE  H18Z16690   4.192   2.959   8.785  3.2633 -0.4471  1.4095
  151SAPE     N16691   1.807   6.092  10.384  0.9990  0.0218  0.6847
  151SAPE   HN116692   1.822   6.155  10.303 -1.3820 -1.6728 -1.1588
  151SAPE   HN216693   1.722   6.119  10.439  0.4871  0.0677 -0.1165
  151SAPE   HN316694   1.880   6.089  10.458  0.5436  0.0078  1.1447
  151SAPE   C1216695   1.770   5.959  10.339  0.1151  0.2262  1.0908
  151SAPE  H12A16696   1.765   5.900  10.434 -0.8754  0.1555  0.9976
  151SAPE  H12B16697   1.846   5.936  10.262 -0.1462  0.2228  0.8368
  151SAPE   C1116698   1.630   5.957  10.263 -0.0439  0.0852 -0.2272
  151SAPE  H11A16699   1.615   5.851  10.232  0.2150  0.0376 -0.1904
  151SAPE  H11B16700   1.644   6.019  10.172  1.2060  0.5969  0.2946
  151SAPE     P16701   1.374   6.025  10.282 -0.0643 -0.1349 -0.0493
  151SAPE   O1316702   1.359   5.926  10.176 -0.3004  0.1345 -0.2193
  151SAPE   O1416703   1.274   6.014  10.394 -0.6675  0.2119  0.7581
  151SAPE   O1216704   1.523   6.010  10.340 -0.3725 -0.1029  0.3457
  151SAPE   O1116705   1.379   6.166  10.223 -0.2491  0.0849 -0.1938
  151SAPE    C116706   1.494   6.252  10.240 -0.0018 -0.9120  0.0586
  151SAPE    HA16707   1.479   6.321  10.326  2.3625  1.0489 -1.0693
  151SAPE    HB16708   1.590   6.203  10.268 -0.5879 -0.9698  2.0844
  151SAPE    C216709   1.536   6.345  10.113  0.4628  0.0617 -0.0528
  151SAPE    HS16710   1.616   6.407  10.157  0.3896  0.1604 -0.0568
  151SAPE   O2116711   1.429   6.426  10.067 -0.1879 -0.0011  0.0321
  151SAPE   C2116712   1.388   6.527  10.150 -0.5546  0.0075  0.0201
  151SAPE   O2216713   1.444   6.554  10.259 -0.1106  0.1060  0.5338
  151SAPE   C2216714   1.264   6.599  10.099 -0.6530  0.7022  0.4691
  151SAPE   H2R16715   1.180   6.527  10.085 -0.6725  0.6258  0.9803
  151SAPE   H2S16716   1.237   6.673  10.176 -0.4865 -0.7228  1.9319
  151SAPE    C316717   1.593   6.263   9.995 -0.6644  0.1789 -0.7976
  151SAPE    HX16718   1.510   6.211   9.942 -0.5906 -0.2213 -0.5277
  151SAPE    HY16719   1.646   6.178  10.044  0.4164  0.2572 -1.8209
  151SAPE   O3116720   1.668   6.335   9.897  0.8176 -0.0622  0.2492
  151SAPE   C3116721   1.781   6.282   9.861  0.2043  0.1952 -0.3486
  151SAPE   O3216722   1.840   6.195   9.919  0.2923 -0.7843 -0.2158
  151SAPE   C3216723   1.827   6.345   9.727 -0.2698 -0.0016  0.5294
  151SAPE   H2X16724   1.886   6.437   9.749 -0.3612 -0.2141  1.7268
  151SAPE   H2Y16725   1.740   6.384   9.671  0.5698  0.3824 -0.5176
  151SAPE   C2316726   1.287   6.656   9.963 -0.1525  0.1656  0.7967
  151SAPE   H3R16727   1.190   6.667   9.910 -0.3315  1.0736  1.3153
  151SAPE   H3S16728   1.353   6.596   9.896 -0.7129 -0.1493  0.5269
  151SAPE   C2416729   1.358   6.794   9.959 -0.2349  0.0390  0.2187
  151SAPE   H4R16730   1.466   6.780   9.983 -0.3392  0.4014  0.9134
  151SAPE   H4S16731   1.311   6.850  10.043 -3.3162  0.5742 -1.8010
  151SAPE   C2516732   1.341   6.858   9.824  0.0189 -0.5101  0.2004
  151SAPE   H5R16733   1.262   6.936   9.819  0.3287 -0.1985  0.1302
  151SAPE   C2616734   1.394   6.823   9.706 -0.2725  0.2562 -0.4151
  151SAPE   H6R16735   1.352   6.855   9.609 -0.4831 -0.9205 -0.7199
  151SAPE   C2716736   1.500   6.720   9.697  0.4214  0.0301 -0.7464
  151SAPE   H7R16737   1.430   6.636   9.675  0.3448  0.1439 -0.9357
  151SAPE   H7S16738   1.548   6.689   9.792  0.7195 -0.2479 -0.9871
  151SAPE   C2816739   1.610   6.738   9.592  0.0421  0.0051  0.1547
  151SAPE   H8R16740   1.699   6.801   9.609  1.3703 -1.0827 -2.4296
  151SAPE   C2916741   1.601   6.693   9.470 -0.0167 -0.2532  0.3852
  151SAPE   H9R16742   1.683   6.713   9.399 -1.5480 -0.5016 -1.5143
  151SAPE  C21016743   1.483   6.617   9.413 -0.1902  0.2834 -0.3935
  151SAPE  H10R16744   1.493   6.617   9.302 -2.2621 -1.3875 -0.6287
  151SAPE  H10S16745   1.390   6.675   9.429 -0.5234 -0.5855  0.8651
  151SAPE  C21116746   1.458   6.468   9.444  0.2147  0.2173  0.6640
  151SAPE  H11R16747   1.426   6.440   9.545 -3.1501  3.2509  0.5060
  151SAPE  C21216748   1.489   6.361   9.361 -0.4020 -0.0890 -0.1919
  151SAPE  H12R16749   1.472   6.261   9.405  3.3075 -2.2741 -3.3507
  151SAPE  C21316750   1.556   6.364   9.226  0.2747 -0.6774  0.3620
  151SAPE  H13R16751   1.505   6.444   9.169 -1.1512 -1.2821  0.7613
  151SAPE  H13S16752   1.545   6.272   9.164  3.2540 -0.0131 -1.2382
  151SAPE  C21416753   1.696   6.417   9.235 -0.3921  0.2521  0.0393
  151SAPE  H14R16754   1.704   6.467   9.333 -0.3563  0.6884 -0.1848
  151SAPE  C21516755   1.802   6.381   9.165 -0.4852 -0.8476  0.3807
  151SAPE  H15R16756   1.895   6.431   9.197 -1.3554  0.2381  1.2674
  151SAPE  C21616757   1.818   6.289   9.048  0.1097 -0.3191 -0.4259
  151SAPE  H16R16758   1.784   6.187   9.078 -0.5641  0.6111  2.0677
  151SAPE  H16S16759   1.927   6.274   9.032  1.1324  3.0105  2.8703
  151SAPE  C21716760   1.758   6.325   8.916  0.5185  0.4741  0.1865
  151SAPE  H17R16761   1.649   6.346   8.917  0.4693  0.3792 -1.5770
  151SAPE  H17S16762   1.762   6.241   8.843  0.1216  0.4350  0.2078
  151SAPE  C21816763   1.830   6.445   8.852 -0.6917 -0.1674  0.6314
  151SAPE  H18R16764   1.853   6.521   8.930  1.0577 -0.5964  0.5606
  151SAPE  H18S16765   1.757   6.486   8.780 -1.7375 -0.8356  1.2993
  151SAPE  C21916766   1.964   6.407   8.774 -0.2817  0.1173  0.2668
  151SAPE  H19R16767   1.965   6.304   8.732  2.4566  0.5239 -0.7660
  151SAPE  H19S16768   2.054   6.404   8.839 -0.3286  0.4844  0.3502
  151SAPE  C22016769   1.977   6.504   8.649  0.9632  0.2232  0.1721
  151SAPE  H20R16770   1.994   6.608   8.683  0.6317  1.1734 -2.4616
  151SAPE  H20S16771   1.878   6.494   8.600  0.6129 -0.4619  1.0120
  151SAPE  H20T16772   2.051   6.469   8.573 -0.5127 -2.2625 -0.1783
  151SAPE   C3316773   1.902   6.247   9.625 -0.7449  0.6961 -0.2899
  151SAPE   H3X16774   1.830   6.176   9.578 -1.2160  1.1061 -0.2019
  151SAPE   H3Y16775   1.959   6.165   9.673 -3.3594 -1.2204 -0.3562
  151SAPE   C3416776   1.980   6.307   9.516 -0.5181  0.2489  0.3066
  151SAPE   H4X16777   2.037   6.398   9.544 -0.0645 -0.1397  0.6578
  151SAPE   H4Y16778   1.914   6.334   9.431  0.4828 -3.4503 -1.7395
  151SAPE   C3516779   2.077   6.204   9.453 -0.6064 -0.5898  0.3425
  151SAPE   H5X16780   2.012   6.119   9.422 -1.1878  0.2931 -0.9151
  151SAPE   H5Y16781   2.151   6.171   9.529 -0.8363 -0.3219  0.6890
  151SAPE   C3616782   2.149   6.266   9.328 -1.2469  0.3518 -1.3682
  151SAPE   H6X16783   2.220   6.346   9.358  1.4273 -2.0460 -1.0694
  151SAPE   H6Y16784   2.063   6.316   9.278 -3.1089 -0.2879  1.0954
  151SAPE   C3716785   2.228   6.171   9.234  0.3111 -0.6290  0.9820
  151SAPE   H7X16786   2.165   6.080   9.220 -1.8259  1.1382 -1.3625
  151SAPE   H7Y16787   2.316   6.142   9.295  0.7523  0.9317  1.1142
  151SAPE   C3816788   2.284   6.245   9.111 -0.7013  1.0897 -0.4533
  151SAPE   H8X16789   2.392   6.219   9.114 -0.9573  0.1053  0.6301
  151SAPE   H8Y16790   2.271   6.355   9.120  0.7244  1.3024 -0.8538
  151SAPE   C3916791   2.232   6.198   8.975 -0.2566  0.4396 -0.5109
  151SAPE   H9X16792   2.126   6.231   8.976 -0.0885  0.9879 -0.1309
  151SAPE   H9Y16793   2.241   6.088   8.985 -1.3487  0.5456  2.2923
  151SAPE  C31016794   2.329   6.231   8.856  0.3852  0.0492  0.2172
  151SAPE  H10X16795   2.429   6.188   8.875  0.0363  0.6511  3.7738
  151SAPE  H10Y16796   2.342   6.340   8.840  1.2085 -0.1796 -0.7201
  151SAPE  C31116797   2.284   6.155   8.735  0.3880  0.3654 -0.0867
  151SAPE  H11X16798   2.175   6.164   8.715 -0.4040 -0.8664  3.3050
  151SAPE  H11Y16799   2.303   6.049   8.761  0.6093  0.8589  1.8863
  151SAPE  C31216800   2.361   6.178   8.603  0.4857  0.0686  0.1981
  151SAPE  H12X16801   2.469   6.154   8.607  0.7119  1.0453  0.2125
  151SAPE  H12Y16802   2.358   6.287   8.581  0.1580 -0.2476 -1.3939
  151SAPE  C31316803   2.312   6.100   8.479  0.2287  0.3353 -0.1768
  151SAPE  H13X16804   2.207   6.125   8.453  0.6134 -0.6077 -2.7564
  151SAPE  H13Y16805   2.321   5.990   8.493 -0.0129  0.2254 -0.8985
  151SAPE  C31416806   2.400   6.131   8.351  0.0544  0.3646 -1.1665
  151SAPE  H14X16807   2.506   6.103   8.371  0.0709  1.8547  0.9666
  151SAPE  H14Y16808   2.401   6.241   8.334  1.5690  1.0128  2.6427
  151SAPE  C31516809   2.355   6.031   8.238 -0.4020  0.1992 -0.3009
  151SAPE  H15X16810   2.260   6.079   8.206  0.0298 -0.1515 -2.2190
  151SAPE  H15Y16811   2.344   5.929   8.280 -2.3837  0.3864 -0.3100
  151SAPE  C31616812   2.456   6.025   8.121 -0.1233 -0.4430  0.0902
  151SAPE  H16X16813   2.539   5.956   8.150  0.3972  1.0252  2.2339
  151SAPE  H16Y16814   2.486   6.127   8.092 -0.9610 -1.0721 -3.1349
  151SAPE  C31716815   2.389   5.968   7.996 -0.3364  0.0841 -0.8002
  151SAPE  H17X16816   2.448   5.988   7.904  0.4043  1.4859 -0.0390
  151SAPE  H17Y16817   2.299   6.033   7.990 -0.4302  0.2453  1.8143
  151SAPE  C31816818   2.350   5.822   8.002 -0.0993 -0.4309  0.2059
  151SAPE  H18X16819   2.326   5.780   7.901  2.6908 -1.1375 -0.2153
  151SAPE  H18Y16820   2.258   5.812   8.063 -0.5228  3.9675  0.4496
  151SAPE  H18Z16821   2.438   5.768   8.042  0.2937 -0.1253 -0.2475
  152SAPE     N16822   2.767   6.029  10.771 -0.3306  0.0409 -0.0593
  152SAPE   HN116823   2.803   6.001  10.677  2.3415 -1.1550  1.2818
  152SAPE   HN216824   2.663   6.022  10.776 -0.2810 -1.7892 -1.2249
  152SAPE   HN316825   2.799   6.128  10.778  0.9597 -0.3819  0.1233
  152SAPE   C1216826   2.860   5.944  10.856  0.1628  0.9443 -0.2274
  152SAPE  H12A16827   2.850   5.983  10.960 -0.5892  1.5492 -0.5172
  152SAPE  H12B16828   2.964   5.948  10.818  0.7809 -1.0076  1.1267
  152SAPE   C1116829   2.807   5.799  10.846 -0.1077  1.0171  0.0774
  152SAPE  H11A16830   2.699   5.799  10.871  0.0601 -0.1933  0.8529
  152SAPE  H11B16831   2.855   5.733  10.921 -0.4629  1.0983  0.3780
  152SAPE     P16832   2.956   5.707  10.639  0.3742  0.0188  0.0761
  152SAPE   O1316833   3.051   5.820  10.635  0.2022 -0.2315  0.1907
  152SAPE   O1416834   2.997   5.576  10.689 -0.0302 -0.3682 -0.1568
  152SAPE   O1216835   2.827   5.747  10.716  0.3687 -0.0734 -0.3695
  152SAPE   O1116836   2.903   5.698  10.491  0.1313  0.4967  0.5628
  152SAPE    C116837   2.772   5.710  10.443 -0.6261 -0.5011 -0.3997
  152SAPE    HA16838   2.714   5.617  10.459  0.1451 -0.8484  0.4772
  152SAPE    HB16839   2.723   5.795  10.496  1.8923  0.5986  0.2451
  152SAPE    C216840   2.755   5.751  10.293 -0.1734 -0.0171 -0.0125
  152SAPE    HS16841   2.765   5.665  10.222 -1.5605  1.4134 -2.0098
  152SAPE   O2116842   2.848   5.856  10.267  0.5827 -0.2109  0.6249
  152SAPE   C2116843   2.960   5.808  10.216 -1.0822 -0.6340  0.8231
  152SAPE   O2216844   2.981   5.687  10.184  1.2520 -0.0813 -0.2626
  152SAPE   C2216845   3.077   5.903  10.214  0.2134  0.5372  0.2439
  152SAPE   H2R16846   3.052   6.008  10.239  3.8820  1.3094  0.9390
  152SAPE   H2S16847   3.151   5.863  10.286  0.9232 -0.2253 -0.8916
  152SAPE    C316848   2.609   5.788  10.263 -0.0284  1.0295  0.0880
  152SAPE    HX16849   2.549   5.836  10.343 -2.0204 -0.8234 -0.2688
  152SAPE    HY16850   2.554   5.692  10.257 -1.4339  1.9190 -1.4091
  152SAPE   O3116851   2.609   5.858  10.142 -0.0289  0.2306  0.0452
  152SAPE   C3116852   2.619   5.992  10.149  0.3582  0.4284  0.5276
  152SAPE   O3216853   2.648   6.048  10.252 -0.0990 -0.0782 -0.2218
  152SAPE   C3216854   2.591   6.058  10.018  1.0382 -0.4387 -0.7452
  152SAPE   H2X16855   2.555   6.160  10.041  0.1233 -1.2749  1.7023
  152SAPE   H2Y16856   2.503   6.012   9.968 -0.0306 -0.7966  1.3867
  152SAPE   C2316857   3.150   5.902  10.082  0.1079  0.0713 -0.4633
  152SAPE   H3R16858   3.093   5.934   9.992 -1.0400  0.3323  0.3411
  152SAPE   H3S16859   3.180   5.795  10.072 -0.1307 -0.2243  1.7055
  152SAPE   C2416860   3.288   5.975  10.086 -0.3149 -0.3356  0.0543
  152SAPE   H4R16861   3.341   5.962   9.990  1.0490  0.4145  0.6782
  152SAPE   H4S16862   3.343   5.921  10.166 -0.7592 -0.3521  0.3516
  152SAPE   C2516863   3.278   6.124  10.112  0.7735 -0.5862 -0.1673
  152SAPE   H5R16864   3.260   6.150  10.217  2.2551 -0.0570 -0.0336
  152SAPE   C2616865   3.289   6.228  10.019 -0.4104  0.3625 -0.4564
  152SAPE   H6R16866   3.281   6.330  10.058 -0.2067  0.1925  0.0336
  152SAPE   C2716867   3.308   6.203   9.865 -0.7450 -0.9133  0.7193
  152SAPE   H7R16868   3.253   6.289   9.822 -0.6451  0.2617  2.8885
  152SAPE   H7S16869   3.259   6.110   9.827  1.5098 -1.5974 -0.6203
  152SAPE   C2816870   3.449   6.215   9.811 -0.0019  0.2412  0.0475
  152SAPE   H8R16871   3.522   6.261   9.878 -0.3811  0.8968  0.0174
  152SAPE   C2916872   3.487   6.178   9.682 -0.5492  0.1266  0.5536
  152SAPE   H9R16873   3.594   6.186   9.658 -0.1888 -1.3008  1.6171
  152SAPE  C21016874   3.395   6.116   9.574 -0.7556  0.0292 -0.0286
  152SAPE  H10R16875   3.312   6.184   9.546  0.1767 -0.0446 -3.1543
  152SAPE  H10S16876   3.345   6.025   9.611  0.5713 -1.1443 -1.0756
  152SAPE  C21116877   3.475   6.069   9.454 -0.2499 -0.5899  0.5443
  152SAPE  H11R16878   3.503   5.963   9.451 -0.4627 -0.6125 -2.9885
  152SAPE  C21216879   3.514   6.149   9.353 -0.5341 -0.0684 -0.5395
  152SAPE  H12R16880   3.559   6.100   9.264  2.8585  0.6302  0.6931
  152SAPE  C21316881   3.490   6.297   9.339  0.0285  0.0212 -0.2437
  152SAPE  H13R16882   3.474   6.342   9.440  1.1379  0.3640 -0.2174
  152SAPE  H13S16883   3.389   6.314   9.295 -0.7442  0.7773  1.7199
  152SAPE  C21416884   3.597   6.376   9.260 -0.2596 -0.5723  0.0125
  152SAPE  H14R16885   3.674   6.411   9.330 -0.2576 -4.6695  2.2382
  152SAPE  C21516886   3.607   6.370   9.129 -0.8463 -0.5680  0.3548
  152SAPE  H15R16887   3.695   6.422   9.088  0.2994 -1.9551  1.0084
  152SAPE  C21616888   3.514   6.297   9.033  0.3798 -0.6026  0.0691
  152SAPE  H16R16889   3.418   6.263   9.078  0.9006 -0.5970  1.1858
  152SAPE  H16S16890   3.556   6.203   8.992 -0.0138 -1.3955  1.4563
  152SAPE  C21716891   3.476   6.378   8.909  0.2658 -0.0043  0.5575
  152SAPE  H17R16892   3.434   6.312   8.830  0.1925 -0.3803  0.9085
  152SAPE  H17S16893   3.568   6.435   8.884  0.4585 -0.0427  1.1782
  152SAPE  C21816894   3.381   6.492   8.926  0.3464 -0.4056 -0.0764
  152SAPE  H18R16895   3.411   6.560   9.009 -2.1035 -0.9057  1.2438
  152SAPE  H18S16896   3.275   6.466   8.945 -0.2114 -0.3310 -2.8786
  152SAPE  C21916897   3.369   6.579   8.796  0.9415 -0.7844  0.5804
  152SAPE  H19R16898   3.322   6.676   8.820  1.4576  0.1619 -2.0270
  152SAPE  H19S16899   3.298   6.524   8.730  3.1237 -1.0636 -1.6231
  152SAPE  C22016900   3.505   6.608   8.721  0.8782  0.2662  0.3635
  152SAPE  H20R16901   3.553   6.523   8.667 -0.6754  0.1906 -0.9413
  152SAPE  H20S16902   3.583   6.643   8.791 -0.4447 -0.0630  2.0146
  152SAPE  H20T16903   3.487   6.688   8.646  0.8300  0.3661  0.4847
  152SAPE   C3316904   2.710   6.064   9.923 -0.1856  0.5912  0.5796
  152SAPE   H3X16905   2.784   6.136   9.962 -0.1382  0.7428  0.2142
  152SAPE   H3Y16906   2.675   6.111   9.829 -0.5191  1.1122  0.9660
  152SAPE   C3416907   2.773   5.918   9.891  0.4623 -0.0063  0.7402
  152SAPE   H4X16908   2.682   5.861   9.862  1.3907 -0.2969 -1.7101
  152SAPE   H4Y16909   2.813   5.865   9.980 -0.6210 -1.9587  0.0823
  152SAPE   C3516910   2.864   5.911   9.768  0.3025 -0.1166  0.0858
  152SAPE   H5X16911   2.949   5.982   9.776  0.6130 -0.3491 -0.9946
  152SAPE   H5Y16912   2.805   5.936   9.677 -0.6579 -2.0133  0.1670
  152SAPE   C3616913   2.937   5.781   9.746 -0.1113 -0.0891 -0.3858
  152SAPE   H6X16914   2.853   5.709   9.740 -1.5478  1.4953  0.2047
  152SAPE   H6Y16915   3.003   5.761   9.833  0.7678 -0.3225 -1.0963
  152SAPE   C3716916   3.028   5.796   9.622  0.2369 -0.1136  0.1304
  152SAPE   H7X16917   3.104   5.715   9.626  1.5375  1.0136 -0.8746
  152SAPE   H7Y16918   3.083   5.892   9.620 -1.5189  0.9153  0.7826
  152SAPE   C3816919   2.956   5.766   9.493 -0.1450  0.2265  0.4969
  152SAPE   H8X16920   2.894   5.856   9.474  0.6861  0.6380 -0.3234
  152SAPE   H8Y16921   2.892   5.676   9.493  3.2758 -2.3151 -0.6484
  152SAPE   C3916922   3.053   5.745   9.380  0.1749 -0.6556 -0.2870
  152SAPE   H9X16923   3.008   5.668   9.313  0.0234 -0.1058 -0.8227
  152SAPE   H9Y16924   3.142   5.692   9.421 -0.0385  0.0066  1.0403
  152SAPE  C31016925   3.075   5.875   9.303  0.0670  0.5171  0.5184
  152SAPE  H10X16926   3.131   5.951   9.363 -0.1726  1.4084 -0.3725
  152SAPE  H10Y16927   2.979   5.923   9.276  1.4623  2.9888 -0.2319
  152SAPE  C31116928   3.158   5.844   9.179 -0.2509  0.1139 -0.4347
  152SAPE  H11X16929   3.097   5.775   9.117 -0.6905  0.4439 -0.3736
  152SAPE  H11Y16930   3.251   5.788   9.202 -0.2930  0.1026 -0.2897
  152SAPE  C31216931   3.184   5.962   9.093 -0.4654 -0.3933 -0.4232
  152SAPE  H12X16932   3.264   6.028   9.134  0.1065 -1.7642  0.7200
  152SAPE  H12Y16933   3.087   6.014   9.079 -1.0720 -0.4489  3.0262
  152SAPE  C31316934   3.237   5.917   8.960 -0.4586 -0.1700  0.3986
  152SAPE  H13X16935   3.178   5.835   8.914  0.8232 -0.3798 -0.9370
  152SAPE  H13Y16936   3.336   5.869   8.976  0.2562  0.1416 -2.7872
  152SAPE  C31416937   3.253   6.031   8.853 -0.6613 -0.3160  0.8206
  152SAPE  H14X16938   3.306   6.119   8.895 -0.7409  0.7434 -1.2033
  152SAPE  H14Y16939   3.153   6.070   8.827  0.3195  1.5879 -0.2064
  152SAPE  C31516940   3.334   5.982   8.728  0.2166 -0.1110  0.2824
  152SAPE  H15X16941   3.284   5.895   8.681 -4.0754  2.6762 -0.5795
  152SAPE  H15Y16942   3.424   5.927   8.765  0.2129 -0.6376 -0.4772
  152SAPE  C31616943   3.389   6.088   8.635 -0.3486  0.3484  0.1071
  152SAPE  H16X16944   3.441   6.046   8.546 -1.7578 -0.2508 -0.4511
  152SAPE  H16Y16945   3.462   6.156   8.684  1.2046 -0.7938 -0.5386
  152SAPE  C31716946   3.275   6.175   8.597  0.6914  0.0266 -0.1447
  152SAPE  H17X16947   3.228   6.231   8.680 -1.3596  2.8051 -3.0483
  152SAPE  H17Y16948   3.191   6.111   8.563 -0.8013  1.1309  1.4225
  152SAPE  C31816949   3.314   6.271   8.487  0.6720 -0.5372 -0.2391
  152SAPE  H18X16950   3.228   6.330   8.447  2.5741  1.3820 -1.6848
  152SAPE  H18Y16951   3.358   6.221   8.398 -0.2338  0.6122 -1.3740
  152SAPE  H18Z16952   3.381   6.350   8.529 -0.1404 -0.3142  0.6519
  153SAPE     N16953   3.277   0.593  10.505  0.1136 -0.4728 -0.2778
  153SAPE   HN116954   3.258   0.693  10.526  0.5012 -0.7119  1.2915
  153SAPE   HN216955   3.275   0.537  10.593 -0.7493 -2.6278 -1.6304
  153SAPE   HN316956   3.368   0.576  10.457  0.7990  0.7407  0.5425
  153SAPE   C1216957   3.164   0.561  10.414  0.3052  0.5075  0.4339
  153SAPE  H12A16958   3.186   0.467  10.360  0.3749  1.3769 -1.0565
  153SAPE  H12B16959   3.160   0.636  10.332 -1.2087 -1.4794 -1.3647
  153SAPE   C1116960   3.024   0.555  10.485  0.7238  0.1262  0.1448
  153SAPE  H11A16961   3.032   0.478  10.565  0.3473 -0.1490 -0.0816
  153SAPE  H11B16962   2.947   0.517  10.415  0.9173 -0.8348  0.4421
  153SAPE     P16963   2.869   0.711  10.634  0.1475  0.4176 -0.0401
  153SAPE   O1316964   2.895   0.643  10.761  0.0812 -0.1419 -0.0578
  153SAPE   O1416965   2.843   0.854  10.642  1.0341 -0.1321  0.0290
  153SAPE   O1216966   2.991   0.688  10.534 -0.5656  0.0593  0.6501
  153SAPE   O1116967   2.751   0.646  10.556  0.0141 -0.1432 -0.6117
  153SAPE    C116968   2.716   0.702  10.432  0.9675 -0.2081 -0.8810
  153SAPE    HA16969   2.656   0.793  10.452 -0.7018 -1.3199 -0.6537
  153SAPE    HB16970   2.810   0.728  10.379  1.3512 -0.1355 -0.1754
  153SAPE    C216971   2.624   0.608  10.350 -0.8317 -0.6308 -0.8223
  153SAPE    HS16972   2.679   0.519  10.311  1.3197  0.8019 -1.1523
  153SAPE   O2116973   2.561   0.678  10.244  0.2714  0.3444  0.2273
  153SAPE   C2116974   2.647   0.700  10.145  0.1136 -0.0503 -0.3600
  153SAPE   O2216975   2.761   0.663  10.140  0.7778  0.1123 -1.2950
  153SAPE   C2216976   2.562   0.769  10.029 -0.0587  0.3064  0.1532
  153SAPE   H2R16977   2.623   0.766   9.936  1.2234 -0.6268  1.0055
  153SAPE   H2S16978   2.473   0.702  10.018 -1.8318  2.4292  1.1945
  153SAPE    C316979   2.504   0.555  10.442  0.5464  0.9416 -0.7228
  153SAPE    HX16980   2.436   0.642  10.454 -3.0780 -1.6538 -1.4635
  153SAPE    HY16981   2.540   0.530  10.544  1.7736 -0.2304 -1.4228
  153SAPE   O3116982   2.421   0.450  10.380  0.1258  0.4653 -0.1793
  153SAPE   C3116983   2.478   0.332  10.382  1.1302 -0.2444  0.3268
  153SAPE   O3216984   2.575   0.306  10.451  0.0652 -0.3861 -0.4606
  153SAPE   C3216985   2.393   0.238  10.297 -0.1018  0.0095  0.0655
  153SAPE   H2X16986   2.297   0.228  10.352  0.5731  0.7309  1.4227
  153SAPE   H2Y16987   2.437   0.136  10.299  0.9234  0.4689  2.0005
  153SAPE   C2316988   2.509   0.914  10.054  0.1742 -0.1719  0.2549
  153SAPE   H3R16989   2.569   0.987  10.111 -2.3610  1.1345  1.3267
  153SAPE   H3S16990   2.409   0.901  10.101 -0.2528  1.7034 -0.1149
  153SAPE   C2416991   2.490   0.998   9.918  0.5893  0.1266  0.2685
  153SAPE   H4R16992   2.591   0.996   9.872  0.1776 -1.1611 -0.6113
  153SAPE   H4S16993   2.474   1.107   9.936 -0.7153 -0.2434  1.4015
  153SAPE   C2516994   2.385   0.925   9.832  0.1505  0.3407 -0.8837
  153SAPE   H5R16995   2.283   0.910   9.869  0.7283 -2.3333 -0.2127
  153SAPE   C2616996   2.413   0.863   9.709 -0.4010 -0.0512 -0.6200
  153SAPE   H6R16997   2.330   0.827   9.646  0.3876 -0.4978 -1.4156
  153SAPE   C2716998   2.551   0.864   9.642 -0.7951  0.0228  0.3969
  153SAPE   H7R16999   2.625   0.908   9.711  1.3054 -2.3079 -0.2842
  153SAPE   H7S17000   2.541   0.926   9.550 -1.8417 -0.5630  0.0923
  153SAPE   C2817001   2.586   0.719   9.598  0.3102 -0.1664 -0.0728
  153SAPE   H8R17002   2.661   0.686   9.671  1.6428 -2.6432 -2.4935
  153SAPE   C2917003   2.546   0.635   9.503  0.0309 -0.3507 -0.1758
  153SAPE   H9R17004   2.604   0.542   9.495 -0.3483 -0.5475 -0.6935
  153SAPE  C21017005   2.451   0.685   9.391  0.0801  0.1968 -0.0801
  153SAPE  H10R17006   2.415   0.789   9.403  0.8576  0.5412 -0.6714
  153SAPE  H10S17007   2.365   0.617   9.373  0.6792 -0.6864  0.3129
  153SAPE  C21117008   2.524   0.674   9.260 -0.3334  0.4024 -0.6531
  153SAPE  H11R17009   2.580   0.581   9.247 -0.8959  0.2387 -1.9616
  153SAPE  C21217010   2.530   0.766   9.168  0.2724  0.2148  0.6708
  153SAPE  H12R17011   2.587   0.743   9.077  0.7885 -2.1537  1.5565
  153SAPE  C21317012   2.462   0.903   9.173  0.4978 -0.5493  0.2107
  153SAPE  H13R17013   2.446   0.940   9.277 -0.1075 -0.8848  0.2380
  153SAPE  H13S17014   2.357   0.895   9.140  0.2722 -1.4599  1.1093
  153SAPE  C21417015   2.551   1.000   9.107 -0.2543  0.8337 -0.3771
  153SAPE  H14R17016   2.657   0.970   9.107 -0.1506  1.1082  2.3319
  153SAPE  C21517017   2.504   1.111   9.046  0.9259  0.1914  0.6325
  153SAPE  H15R17018   2.578   1.168   8.989 -0.1181 -0.1313 -1.0602
  153SAPE  C21617019   2.364   1.171   9.044 -0.0412  0.2304 -0.4882
  153SAPE  H16R17020   2.315   1.176   9.144  0.2993 -1.9183 -0.1818
  153SAPE  H16S17021   2.293   1.125   8.971  2.4741 -0.3728 -2.6208
  153SAPE  C21717022   2.374   1.320   8.992 -0.3588 -0.0504 -0.2695
  153SAPE  H17R17023   2.457   1.368   9.048  0.7349 -2.6070  0.3613
  153SAPE  H17S17024   2.282   1.379   9.009  0.9523  1.3112  2.4810
  153SAPE  C21817025   2.408   1.328   8.844  0.0612  0.7489  0.4039
  153SAPE  H18R17026   2.333   1.264   8.794 -1.3802  2.7948 -0.1263
  153SAPE  H18S17027   2.510   1.289   8.821 -0.4311  0.9585 -2.3072
  153SAPE  C21917028   2.392   1.469   8.783 -0.2499 -0.7659  0.3884
  153SAPE  H19R17029   2.283   1.484   8.772 -0.1543 -1.4132 -1.5615
  153SAPE  H19S17030   2.442   1.473   8.684 -0.2609  0.7591  0.4240
  153SAPE  C22017031   2.452   1.587   8.869 -0.1705 -0.2827 -0.3176
  153SAPE  H20R17032   2.425   1.685   8.824  2.4737  0.9894  0.7410
  153SAPE  H20S17033   2.561   1.582   8.890 -0.3329  1.8173  1.1761
  153SAPE  H20T17034   2.400   1.589   8.967  0.2354  0.1549 -0.1107
  153SAPE   C3317035   2.389   0.290  10.159  0.4369  0.1647  0.2484
  153SAPE   H3X17036   2.371   0.399  10.153 -1.7923 -0.2291 -0.7515
  153SAPE   H3Y17037   2.306   0.234  10.110  1.7747 -0.6342 -1.1379
  153SAPE   C3417038   2.521   0.250  10.089 -0.6999  0.7386  0.2276
  153SAPE   H4X17039   2.557   0.160  10.143 -0.3348  0.5066 -0.4057
  153SAPE   H4Y17040   2.591   0.336  10.103  0.3366 -0.4056  2.4935
  153SAPE   C3517041   2.506   0.210   9.942  0.5057 -0.1921 -0.1483
  153SAPE   H5X17042   2.425   0.135   9.931 -0.7820  1.2138 -0.4079
  153SAPE   H5Y17043   2.598   0.163   9.901  2.2840  0.8947  2.4873
  153SAPE   C3617044   2.485   0.327   9.844  0.4050 -0.1941  0.7600
  153SAPE   H6X17045   2.572   0.396   9.835  0.7338 -0.6234  0.6813
  153SAPE   H6Y17046   2.397   0.388   9.875  0.5045  0.2770  0.1347
  153SAPE   C3717047   2.441   0.279   9.713 -0.2489  0.2209  0.8188
  153SAPE   H7X17048   2.437   0.365   9.642  3.3727 -0.6968 -0.6149
  153SAPE   H7Y17049   2.349   0.217   9.713 -1.2740  1.6937 -0.1841
  153SAPE   C3817050   2.548   0.192   9.637  0.5310  0.5198  0.2600
  153SAPE   H8X17051   2.574   0.104   9.700 -0.2751  0.1363  0.0618
  153SAPE   H8Y17052   2.638   0.255   9.619  0.2436  0.6863 -0.6404
  153SAPE   C3917053   2.510   0.139   9.501 -0.5221 -0.0059  0.2491
  153SAPE   H9X17054   2.403   0.112   9.504 -1.4411  3.3610  0.6481
  153SAPE   H9Y17055   2.574   0.051   9.481 -2.1650 -1.2113  0.2517
  153SAPE  C31017056   2.527   0.251   9.395 -0.1300 -0.0959 -0.1554
  153SAPE  H10X17057   2.628   0.291   9.418  0.2866 -1.1395 -0.1399
  153SAPE  H10Y17058   2.459   0.335   9.421 -1.0594 -1.0115  0.4046
  153SAPE  C31117059   2.507   0.198   9.256  0.0769 -0.0614  0.4789
  153SAPE  H11X17060   2.400   0.167   9.252  0.4534 -1.4814  1.1156
  153SAPE  H11Y17061   2.568   0.106   9.253  2.5364  1.5410 -0.9729
  153SAPE  C31217062   2.548   0.295   9.142  0.8179  0.7118  0.1541
  153SAPE  H12X17063   2.508   0.394   9.171 -0.7771  0.6995 -1.8746
  153SAPE  H12Y17064   2.492   0.269   9.049  0.3801  0.2658  0.5386
  153SAPE  C31317065   2.695   0.308   9.096  0.3313 -0.1112 -0.7958
  153SAPE  H13X17066   2.726   0.210   9.055 -0.7792  0.5986 -3.4170
  153SAPE  H13Y17067   2.763   0.324   9.183 -0.1088  1.0698 -0.6533
  153SAPE  C31417068   2.718   0.422   8.994 -0.0486 -0.1125 -0.6117
  153SAPE  H14X17069   2.823   0.455   8.993 -0.1697  0.2745 -0.5263
  153SAPE  H14Y17070   2.654   0.505   9.029  1.2184  0.7366 -0.2937
  153SAPE  C31517071   2.683   0.383   8.849  0.7857 -0.7758 -0.7669
  153SAPE  H15X17072   2.576   0.358   8.838  0.3770  0.8414 -0.6092
  153SAPE  H15Y17073   2.731   0.285   8.829  2.1078 -0.2388 -0.3028
  153SAPE  C31617074   2.734   0.482   8.740 -0.7301  0.3743  0.0809
  153SAPE  H16X17075   2.720   0.584   8.781 -1.9053 -0.5729  2.1150
  153SAPE  H16Y17076   2.678   0.464   8.646 -1.2742 -0.5703  0.5805
  153SAPE  C31717077   2.889   0.480   8.697  0.8472 -0.7286  0.1040
  153SAPE  H17X17078   2.899   0.547   8.609  0.2645 -0.1024  0.5161
  153SAPE  H17Y17079   2.898   0.374   8.664  2.2907 -0.5233 -0.1708
  153SAPE  C31817080   2.996   0.510   8.806 -0.3267  0.4152  0.3469
  153SAPE  H18X17081   3.001   0.422   8.875 -1.6191 -2.2482 -2.8080
  153SAPE  H18Y17082   2.958   0.598   8.861  1.3368  1.0241  0.5459
  153SAPE  H18Z17083   3.098   0.525   8.764 -0.4217  1.8346  0.6028
  154SAPE     N17084   2.828   0.382  10.759  0.3831 -0.3773 -0.2144
  154SAPE   HN117085   2.884   0.470  10.762 -0.8411  0.5531 -3.0934
  154SAPE   HN217086   2.821   0.340  10.664 -0.6109 -1.7016  0.4399
  154SAPE   HN317087   2.732   0.404  10.790  0.2615 -0.3866 -0.5870
  154SAPE   C1217088   2.877   0.273  10.849 -0.7126 -0.1407 -0.2187
  154SAPE  H12A17089   2.812   0.184  10.835 -1.4603 -0.0391  2.4573
  154SAPE  H12B17090   2.871   0.309  10.954  2.2973 -2.3921  0.8191
  154SAPE   C1117091   3.021   0.227  10.820  0.2993 -0.0240  0.9828
  154SAPE  H11A17092   3.015   0.166  10.728 -1.6799  1.6238 -0.0181
  154SAPE  H11B17093   3.061   0.159  10.898  2.3419  0.8471  0.7363
  154SAPE     P17094   3.272   0.329  10.791  0.1478  0.2044 -0.2753
  154SAPE   O1317095   3.328   0.444  10.713 -0.0061 -0.4802  0.5566
  154SAPE   O1417096   3.335   0.316  10.924  0.6253 -0.2493 -0.3578
  154SAPE   O1217097   3.113   0.346  10.806 -0.7448 -0.0157 -0.2305
  154SAPE   O1117098   3.286   0.202  10.703 -0.2464  0.2766 -0.5309
  154SAPE    C117099   3.227   0.196  10.575  0.2225  0.3239 -0.1222
  154SAPE    HA17100   3.145   0.122  10.566 -0.2500  1.0344 -1.7817
  154SAPE    HB17101   3.177   0.291  10.546  1.0374  0.4103 -1.2910
  154SAPE    C217102   3.328   0.166  10.463 -0.7975  0.6016  0.1566
  154SAPE    HS17103   3.280   0.200  10.369 -0.4317  1.7346  0.3788
  154SAPE   O2117104   3.360   0.022  10.465 -0.0818 -0.5422  0.2085
  154SAPE   C2117105   3.291  -0.051  10.384  0.2744 -0.0744  0.1865
  154SAPE   O2217106   3.191  -0.009  10.322  0.0308 -0.0290  0.4226
  154SAPE   C2217107   3.325  -0.196  10.390  0.1812 -0.1756  0.2682
  154SAPE   H2R17108   3.419  -0.210  10.448 -1.2346 -0.5209  2.5273
  154SAPE   H2S17109   3.237  -0.248  10.432 -0.1553 -1.5166 -2.0360
  154SAPE    C317110   3.459   0.240  10.484  0.0200  0.2586 -0.7519
  154SAPE    HX17111   3.523   0.182  10.554  0.4278  1.8650  0.2474
  154SAPE    HY17112   3.441   0.334  10.541 -1.3801 -0.4129 -0.0517
  154SAPE   O3117113   3.536   0.261  10.364 -0.3397 -0.2770 -0.4172
  154SAPE   C3117114   3.484   0.345  10.270  0.9450  0.8851  0.1203
  154SAPE   O3217115   3.405   0.433  10.280 -0.1608 -0.0556  0.7080
  154SAPE   C3217116   3.550   0.293  10.141 -0.1318  0.0966  0.1139
  154SAPE   H2X17117   3.542   0.183  10.128 -0.5691  0.3829 -2.3447
  154SAPE   H2Y17118   3.658   0.315  10.147 -0.0647  0.2649 -1.4474
  154SAPE   C2317119   3.352  -0.262  10.255 -0.2941  0.2950  0.2193
  154SAPE   H3R17120   3.264  -0.239  10.191 -1.1602 -0.8380  0.9835
  154SAPE   H3S17121   3.364  -0.372  10.248  0.3610  0.4318 -1.0018
  154SAPE   C2417122   3.481  -0.208  10.186  0.3655 -0.0161 -0.2588
  154SAPE   H4R17123   3.567  -0.214  10.256  0.6369 -1.1580 -0.6811
  154SAPE   H4S17124   3.469  -0.099  10.168  0.3523  0.1509  0.7370
  154SAPE   C2517125   3.521  -0.274  10.051 -0.3289 -0.1773 -0.6045
  154SAPE   H5R17126   3.582  -0.365  10.060  1.1868  0.8465 -0.2781
  154SAPE   C2617127   3.495  -0.232   9.928 -0.4407  0.1646  0.0739
  154SAPE   H6R17128   3.539  -0.287   9.844  0.0336  1.5634 -0.6137
  154SAPE   C2717129   3.420  -0.105   9.892  0.1224 -0.0842 -0.3519
  154SAPE   H7R17130   3.496  -0.026   9.875  0.8429 -0.6183  0.3068
  154SAPE   H7S17131   3.358  -0.073   9.979  1.0541 -0.3893  0.4470
  154SAPE   C2817132   3.324  -0.122   9.775 -0.3416 -0.0306  0.8861
  154SAPE   H8R17133   3.230  -0.172   9.803 -0.0494 -1.0084  0.1263
  154SAPE   C2917134   3.334  -0.086   9.639  0.3055 -0.1110 -0.5974
  154SAPE   H9R17135   3.254  -0.120   9.570 -1.3625  0.7372  0.8924
  154SAPE  C21017136   3.450  -0.025   9.575 -0.1839  0.2377 -0.0637
  154SAPE  H10R17137   3.537  -0.020   9.644 -1.3710  0.3794  1.4630
  154SAPE  H10S17138   3.429   0.078   9.540  4.2832  0.3621 -2.7814
  154SAPE  C21117139   3.488  -0.110   9.454 -0.2698  0.7512 -0.1582
  154SAPE  H11R17140   3.502  -0.218   9.474  0.7278  1.0283  0.6550
  154SAPE  C21217141   3.526  -0.075   9.335 -0.2086 -0.8987  0.6425
  154SAPE  H12R17142   3.548  -0.154   9.262  0.6490 -0.7002  0.6804
  154SAPE  C21317143   3.530   0.070   9.287 -0.4199  0.6229  0.2067
  154SAPE  H13R17144   3.587   0.124   9.366  1.4079 -0.8069 -0.0876
  154SAPE  H13S17145   3.432   0.121   9.284 -0.0395  1.4985  1.9281
  154SAPE  C21417146   3.601   0.063   9.148  0.7364 -0.3253 -0.2463
  154SAPE  H14R17147   3.692   0.002   9.141  1.3910  0.5599  0.4737
  154SAPE  C21517148   3.568   0.132   9.041  0.5083 -0.4947 -0.2883
  154SAPE  H15R17149   3.636   0.114   8.957  2.3781  2.2560  0.5775
  154SAPE  C21617150   3.441   0.217   9.005 -0.6813  0.5102  0.1605
  154SAPE  H16R17151   3.460   0.309   8.946 -1.7431  1.8959  1.9118
  154SAPE  H16S17152   3.386   0.256   9.093  0.9245  1.1163  0.9067
  154SAPE  C21717153   3.344   0.133   8.931  0.2639 -0.1751 -1.1020
  154SAPE  H17R17154   3.322   0.043   8.993 -1.1731 -0.1349 -1.5380
  154SAPE  H17S17155   3.397   0.089   8.843  1.8826 -1.9519  0.6967
  154SAPE  C21817156   3.233   0.216   8.873 -0.4644 -0.5951 -0.4351
  154SAPE  H18R17157   3.270   0.313   8.833 -2.0811 -0.2467 -1.1060
  154SAPE  H18S17158   3.187   0.242   8.970  0.1860 -2.0851  0.2948
  154SAPE  C21917159   3.139   0.147   8.770  0.4979  0.0331 -0.2872
  154SAPE  H19R17160   3.049   0.212   8.773  0.6719  0.2529  0.2845
  154SAPE  H19S17161   3.108   0.049   8.813  1.1065 -0.5081 -1.0724
  154SAPE  C22017162   3.193   0.131   8.632 -0.5065 -0.4628  0.2947
  154SAPE  H20R17163   3.140   0.050   8.578  1.2098 -0.8546 -0.8431
  154SAPE  H20S17164   3.299   0.099   8.620  0.0694 -0.2010  4.0678
  154SAPE  H20T17165   3.188   0.229   8.581  1.3268  1.0478  2.9153
  154SAPE   C3317166   3.481   0.367  10.028  0.0702  0.5478 -0.0122
  154SAPE   H3X17167   3.493   0.477  10.025  0.7546  0.5460  2.2904
  154SAPE   H3Y17168   3.374   0.338  10.030 -0.0283  0.9778  0.6458
  154SAPE   C3417169   3.538   0.304   9.898  0.3519  0.0750 -0.2419
  154SAPE   H4X17170   3.529   0.194   9.911 -0.3690 -0.0130 -1.3720
  154SAPE   H4Y17171   3.646   0.331   9.908  0.2197 -0.0337  1.5954
  154SAPE   C3517172   3.477   0.351   9.764 -0.4040  0.4914 -0.7904
  154SAPE   H5X17173   3.425   0.449   9.780  3.0426  1.8333  2.8667
  154SAPE   H5Y17174   3.406   0.271   9.735  1.2113 -0.3203 -2.5690
  154SAPE   C3617175   3.576   0.366   9.650 -1.0440  0.7311 -0.0836
  154SAPE   H6X17176   3.618   0.265   9.630  2.6692  1.5462  2.9711
  154SAPE   H6Y17177   3.667   0.428   9.668 -0.8926  0.4325  0.2017
  154SAPE   C3717178   3.525   0.422   9.517  0.4514 -0.2878  0.0277
  154SAPE   H7X17179   3.462   0.513   9.524  2.2706  0.9777  0.3771
  154SAPE   H7Y17180   3.456   0.349   9.470 -2.1063  1.6502  0.6410
  154SAPE   C3817181   3.631   0.463   9.416 -0.7849 -0.0800  0.6907
  154SAPE   H8X17182   3.712   0.388   9.429  1.2381  1.8479 -0.3572
  154SAPE   H8Y17183   3.683   0.556   9.447  2.4738 -1.2243 -1.1122
  154SAPE   C3917184   3.582   0.465   9.267  0.7533 -0.0526  0.0219
  154SAPE   H9X17185   3.482   0.512   9.257  1.2434  1.1669  0.8145
  154SAPE   H9Y17186   3.561   0.359   9.240  2.0675  0.0602 -1.4967
  154SAPE  C31017187   3.688   0.525   9.180  0.2714  0.0371  0.2481
  154SAPE  H10X17188   3.780   0.462   9.186 -0.0551 -0.7043 -2.0600
  154SAPE  H10Y17189   3.714   0.627   9.216 -0.3247  0.8525 -1.5439
  154SAPE  C31117190   3.646   0.533   9.038 -0.4574  0.1133  0.4366
  154SAPE  H11X17191   3.568   0.611   9.025 -2.3932 -1.1423  3.7751
  154SAPE  H11Y17192   3.600   0.439   9.001 -0.0387  1.0366 -2.6195
  154SAPE  C31217193   3.760   0.565   8.942  0.6541 -0.9276 -0.3570
  154SAPE  H12X17194   3.816   0.469   8.940  0.4319 -1.0871  0.6932
  154SAPE  H12Y17195   3.815   0.653   8.982 -0.3411 -0.3698 -0.1950
  154SAPE  C31317196   3.717   0.600   8.801  0.1212 -0.8239  0.0711
  154SAPE  H13X17197   3.808   0.617   8.740 -0.2044 -0.2779 -0.2609
  154SAPE  H13Y17198   3.655   0.692   8.799 -1.3171 -1.7216  1.5650
  154SAPE  C31417199   3.648   0.493   8.720  0.3620  0.6110 -0.3162
  154SAPE  H14X17200   3.597   0.557   8.644 -1.2059  0.5318  0.6500
  154SAPE  H14Y17201   3.565   0.456   8.783  1.4021  1.6621  1.7243
  154SAPE  C31517202   3.736   0.388   8.665 -0.8112  0.2310  0.7310
  154SAPE  H15X17203   3.773   0.328   8.750  1.0562  1.9515  1.1848
  154SAPE  H15Y17204   3.825   0.434   8.616 -1.6499  0.0334 -1.0103
  154SAPE  C31617205   3.656   0.301   8.566  0.4548 -0.4328  0.1044
  154SAPE  H16X17206   3.627   0.368   8.483 -1.0675 -0.5335  0.5459
  154SAPE  H16Y17207   3.577   0.253   8.626 -1.1194  1.6050 -0.3040
  154SAPE  C31717208   3.744   0.183   8.514  0.0493  0.1977  0.3076
  154SAPE  H17X17209   3.777   0.117   8.597  0.1253 -1.1739 -0.7877
  154SAPE  H17Y17210   3.837   0.209   8.459  1.3549 -2.0381  1.3837
  154SAPE  C31817211   3.666   0.097   8.414 -0.0915 -0.4909  0.4574
  154SAPE  H18X17212   3.719  -0.000   8.401  1.9718  0.8828 -1.8704
  154SAPE  H18Y17213   3.665   0.143   8.313  2.4042 -3.7248 -1.1482
  154SAPE  H18Z17214   3.564   0.070   8.447  0.0063 -0.0874  1.1063
  155SAPE     N17215   4.530   0.620  10.645  0.3749 -1.0199 -0.0334
  155SAPE   HN117216   4.613   0.680  10.623 -0.5365  0.3542  0.2421
  155SAPE   HN217217   4.567   0.522  10.644  0.4072 -1.0047 -0.4887
  155SAPE   HN317218   4.460   0.621  10.568 -1.3820 -3.0467  1.4852
  155SAPE   C1217219   4.459   0.664  10.775  0.1008 -0.1119  0.0150
  155SAPE  H12A17220   4.533   0.675  10.858 -1.9781  3.4223  1.5200
  155SAPE  H12B17221   4.392   0.582  10.808  0.3704 -0.5001 -0.4060
  155SAPE   C1117222   4.385   0.794  10.744 -0.1098 -0.2505 -0.1071
  155SAPE  H11A17223   4.327   0.820  10.836 -0.1883  2.0773 -0.7938
  155SAPE  H11B17224   4.309   0.779  10.665 -1.2371 -0.1999  0.9431
  155SAPE     P17225   4.435   1.046  10.681  0.0920  0.1076 -0.0648
  155SAPE   O1317226   4.333   1.081  10.782 -0.2100 -0.3453  0.2387
  155SAPE   O1417227   4.552   1.134  10.669 -0.5892  0.3451 -0.3277
  155SAPE   O1217228   4.475   0.901  10.722 -0.6267 -0.5447 -0.1066
  155SAPE   O1117229   4.367   1.022  10.535 -0.0394 -0.0826 -0.2240
  155SAPE    C117230   4.448   0.958  10.436 -0.5382  0.1487 -0.7358
  155SAPE    HA17231   4.494   0.863  10.471 -1.8109 -0.4616 -0.6801
  155SAPE    HB17232   4.379   0.926  10.355  1.2211 -2.9184 -1.0483
  155SAPE    C217233   4.551   1.048  10.368 -0.3008  0.6732 -0.7730
  155SAPE    HS17234   4.632   1.080  10.438 -0.4510  0.1088 -0.3345
  155SAPE   O2117235   4.490   1.162  10.302  0.1463  0.1102 -0.1683
  155SAPE   C2117236   4.569   1.259  10.265 -0.3526 -0.7203 -0.0628
  155SAPE   O2217237   4.674   1.294  10.318 -0.2867 -0.0540  0.7502
  155SAPE   C2217238   4.522   1.315  10.131  0.4995 -0.0780  0.2463
  155SAPE   H2R17239   4.435   1.251  10.102 -1.2714  1.8144  1.2235
  155SAPE   H2S17240   4.484   1.418  10.150  1.7301  0.4560 -0.1713
  155SAPE    C317241   4.645   0.968  10.267  0.8802  0.2248  0.6022
  155SAPE    HX17242   4.568   0.928  10.199  1.6883  1.4105 -1.0518
  155SAPE    HY17243   4.693   0.882  10.319  0.1226 -2.0042 -2.2421
  155SAPE   O3117244   4.742   1.055  10.199 -0.0052 -0.0981 -0.2619
  155SAPE   C3117245   4.796   0.988  10.094 -0.4856 -0.1737  0.3897
  155SAPE   O3217246   4.750   0.885  10.051 -0.2561  0.0958 -0.0535
  155SAPE   C3217247   4.929   1.049  10.059 -0.6167 -0.1455  0.3924
  155SAPE   H2X17248   4.993   1.062  10.149 -2.1953 -0.1333  1.5377
  155SAPE   H2Y17249   4.917   1.152  10.020  0.1853 -0.7651 -1.5663
  155SAPE   C2317250   4.618   1.318  10.015  0.3793 -0.4933 -0.5596
  155SAPE   H3R17251   4.704   1.248  10.022 -1.0340 -2.1725  0.4284
  155SAPE   H3S17252   4.670   1.416  10.015  1.3914 -1.0092  0.3648
  155SAPE   C2417253   4.546   1.308   9.876 -0.0719 -1.2733 -0.1844
  155SAPE   H4R17254   4.481   1.398   9.869 -0.3845 -1.6458 -2.7314
  155SAPE   H4S17255   4.470   1.226   9.879  0.8060 -2.0404  1.5216
  155SAPE   C2517256   4.634   1.299   9.752  0.2102 -0.2187  0.0563
  155SAPE   H5R17257   4.697   1.389   9.743 -1.4005  0.9682  0.3488
  155SAPE   C2617258   4.648   1.203   9.658  0.3380  0.1590  0.9001
  155SAPE   H6R17259   4.722   1.205   9.576  0.5244  2.6183  1.1144
  155SAPE   C2717260   4.571   1.069   9.669 -0.1036  0.1247 -0.4654
  155SAPE   H7R17261   4.460   1.074   9.658 -0.1638 -0.2864 -0.0401
  155SAPE   H7S17262   4.587   1.036   9.774 -0.3015 -1.2519 -0.8561
  155SAPE   C2817263   4.630   0.963   9.582 -0.7415 -0.3980 -0.4694
  155SAPE   H8R17264   4.656   0.876   9.643 -0.6707  0.7400  1.1503
  155SAPE   C2917265   4.633   0.969   9.449  0.2394 -0.0215 -0.2983
  155SAPE   H9R17266   4.695   0.891   9.401 -0.9184 -0.9400 -0.3110
  155SAPE  C21017267   4.576   1.078   9.365 -0.3047 -0.4981 -1.1677
  155SAPE  H10R17268   4.651   1.160   9.360 -0.6580 -0.1480 -0.7383
  155SAPE  H10S17269   4.496   1.134   9.417 -0.0127  2.0491 -3.3592
  155SAPE  C21117270   4.530   1.036   9.225  0.2050 -0.2387 -0.7750
  155SAPE  H11R17271   4.421   1.036   9.210  0.5195 -3.3063 -3.6127
  155SAPE  C21217272   4.611   1.002   9.124  0.1683 -0.2864  0.4157
  155SAPE  H12R17273   4.565   0.948   9.040  3.5710 -1.7110 -0.6427
  155SAPE  C21317274   4.759   0.992   9.136 -0.8998  0.8902 -0.1468
  155SAPE  H13R17275   4.791   0.891   9.169 -2.2991  0.4363 -0.1414
  155SAPE  H13S17276   4.799   1.052   9.220 -0.2691  0.8334 -0.4024
  155SAPE  C21417277   4.829   1.025   9.004 -0.1923 -0.5194  0.5235
  155SAPE  H14R17278   4.813   0.958   8.918 -0.8881 -0.0321  0.2628
  155SAPE  C21517279   4.905   1.130   8.980  0.5952  0.2960 -0.3075
  155SAPE  H15R17280   4.953   1.137   8.881 -0.6365 -0.0697 -0.9428
  155SAPE  C21617281   4.950   1.235   9.077 -0.2646  0.0604 -0.4263
  155SAPE  H16R17282   4.963   1.191   9.179 -1.2569  0.4115 -0.1380
  155SAPE  H16S17283   4.874   1.315   9.071 -0.3917 -0.1903 -2.2771
  155SAPE  C21717284   5.082   1.296   9.037  0.0968 -0.2294 -0.1160
  155SAPE  H17R17285   5.154   1.227   8.989 -0.7495 -0.0137 -1.7276
  155SAPE  H17S17286   5.127   1.346   9.125 -0.6897 -0.0858  0.2084
  155SAPE  C21817287   5.067   1.398   8.921  0.0333 -0.1158  0.3081
  155SAPE  H18R17288   5.004   1.482   8.958 -4.0416 -2.2470 -1.5284
  155SAPE  H18S17289   5.004   1.348   8.845  0.0002  2.1209 -1.2021
  155SAPE  C21917290   5.202   1.450   8.873 -0.1638  0.5585  0.0588
  155SAPE  H19R17291   5.255   1.365   8.827  0.0943  0.4512  0.5533
  155SAPE  H19S17292   5.267   1.480   8.958  0.3467  0.0446 -0.1523
  155SAPE  C22017293   5.196   1.558   8.764 -0.2219  0.1638 -0.6032
  155SAPE  H20R17294   5.290   1.581   8.709  0.1193 -1.1062 -0.5686
  155SAPE  H20S17295   5.161   1.657   8.800  1.0028  0.1208  0.7312
  155SAPE  H20T17296   5.119   1.536   8.687 -1.4382  1.0467  0.3607
  155SAPE   C3317297   5.008   0.970   9.955  0.3759 -0.4670  0.1699
  155SAPE   H3X17298   5.033   0.868   9.992 -0.5443  0.1206  2.5406
  155SAPE   H3Y17299   5.108   1.017   9.960 -0.9703  2.3771  1.6414
  155SAPE   C3417300   4.959   0.973   9.813  0.3719  0.4216  0.5865
  155SAPE   H4X17301   4.904   1.068   9.794 -0.6610 -0.1642  0.6090
  155SAPE   H4Y17302   4.883   0.892   9.811  2.2827 -1.3990  0.2120
  155SAPE   C3517303   5.068   0.971   9.709  0.1127 -0.0739  0.4495
  155SAPE   H5X17304   5.118   0.873   9.730  1.7558  0.8068  0.7137
  155SAPE   H5Y17305   5.149   1.046   9.719 -0.0537  0.0453  0.9111
  155SAPE   C3617306   5.013   0.964   9.561  0.5107 -0.4249 -0.4469
  155SAPE   H6X17307   4.954   1.055   9.539  0.0458 -0.6653 -0.1963
  155SAPE   H6Y17308   4.935   0.885   9.555  0.0965 -0.0968  0.5165
  155SAPE   C3717309   5.126   0.945   9.458  0.1384 -0.1031  0.0179
  155SAPE   H7X17310   5.159   0.842   9.482 -3.0256 -1.1140  0.1582
  155SAPE   H7Y17311   5.213   1.014   9.471 -1.0040  1.3379  0.2011
  155SAPE   C3817312   5.083   0.932   9.308 -0.2325  0.8943  0.1428
  155SAPE   H8X17313   5.060   1.028   9.258  1.5919  0.8987 -0.7313
  155SAPE   H8Y17314   4.982   0.888   9.292 -0.9899  2.6252  0.1068
  155SAPE   C3917315   5.192   0.859   9.221 -0.2290 -0.0345  0.4089
  155SAPE   H9X17316   5.224   0.764   9.269 -1.1985  1.1280  3.5010
  155SAPE   H9Y17317   5.283   0.918   9.199  0.7540 -0.7562  2.4156
  155SAPE  C31017318   5.136   0.822   9.080 -0.4616 -0.0152  0.1449
  155SAPE  H10X17319   5.099   0.916   9.036 -0.0458 -0.5779 -1.4470
  155SAPE  H10Y17320   5.047   0.756   9.076  0.3699 -1.0632 -1.5395
  155SAPE  C31117321   5.246   0.773   8.984 -0.2907 -0.0820 -0.3603
  155SAPE  H11X17322   5.330   0.843   8.965 -0.3921 -0.2230 -1.3198
  155SAPE  H11Y17323   5.193   0.746   8.891 -0.3522  0.6060 -0.5257
  155SAPE  C31217324   5.325   0.648   9.031 -0.6191  0.1667  0.0033
  155SAPE  H12X17325   5.381   0.674   9.123  1.6117 -1.4860 -0.8427
  155SAPE  H12Y17326   5.403   0.623   8.957  0.3320 -1.8873  1.6323
  155SAPE  C31317327   5.231   0.528   9.048  0.3748  0.3566  0.8255
  155SAPE  H13X17328   5.176   0.499   8.956  1.0786  0.2083  0.4498
  155SAPE  H13Y17329   5.152   0.558   9.121 -0.0642 -0.5977  0.7521
  155SAPE  C31417330   5.303   0.412   9.118  0.1580  0.3853  0.1610
  155SAPE  H14X17331   5.231   0.361   9.186 -0.4755  1.6476  0.4610
  155SAPE  H14Y17332   5.389   0.451   9.177  0.2087  0.5743 -0.0397
  155SAPE  C31517333   5.352   0.304   9.022 -0.6214 -0.3211  0.5718
  155SAPE  H15X17334   5.406   0.369   8.950 -0.7150 -1.3820 -0.4692
  155SAPE  H15Y17335   5.263   0.260   8.972 -2.2264  0.4920  2.6276
  155SAPE  C31617336   5.444   0.200   9.090  0.7546 -0.9938  0.1249
  155SAPE  H16X17337   5.539   0.250   9.118  0.5186  0.2175 -1.1822
  155SAPE  H16Y17338   5.465   0.134   9.004  2.3564  0.9064 -0.9918
  155SAPE  C31717339   5.379   0.116   9.196 -0.1948  0.0260  0.9371
  155SAPE  H17X17340   5.412   0.010   9.196  3.0878  0.9370 -2.3970
  155SAPE  H17Y17341   5.269   0.119   9.186 -0.2476 -1.7507  0.7255
  155SAPE  C31817342   5.395   0.171   9.342 -0.7718 -0.5964 -0.2059
  155SAPE  H18X17343   5.329   0.106   9.404 -2.2748 -2.3612 -3.5325
  155SAPE  H18Y17344   5.360   0.277   9.347  1.4057  0.1053  0.4531
  155SAPE  H18Z17345   5.505   0.165   9.356 -0.2218 -1.2446 -4.2709
  156SAPE     N17346   1.347   5.634  10.250 -0.0273  0.2956  0.1876
  156SAPE   HN117347   1.311   5.537  10.241  1.0459 -0.2759  1.7766
  156SAPE   HN217348   1.270   5.697  10.220 -3.5646 -3.4571  0.9846
  156SAPE   HN317349   1.426   5.645  10.183 -1.4283 -0.4185 -1.6092
  156SAPE   C1217350   1.389   5.668  10.389 -0.5247 -0.6739  0.1367
  156SAPE  H12A17351   1.299   5.653  10.454 -0.9577  1.5570  0.1033
  156SAPE  H12B17352   1.430   5.771  10.389  0.7705 -1.1809 -1.0586
  156SAPE   C1117353   1.490   5.561  10.429 -0.3755  0.2685  0.3713
  156SAPE  H11A17354   1.446   5.460  10.432  0.5309 -0.0984  1.6653
  156SAPE  H11B17355   1.518   5.591  10.532 -0.5357 -0.1848  0.5445
  156SAPE     P17356   1.746   5.551  10.367  0.2221  0.4357 -0.0462
  156SAPE   O1317357   1.818   5.664  10.317 -0.1553 -0.2614 -0.1947
  156SAPE   O1417358   1.755   5.525  10.513 -0.5853  0.3979 -0.0551
  156SAPE   O1217359   1.597   5.564  10.331 -0.2820  0.0707 -0.9618
  156SAPE   O1117360   1.781   5.419  10.296 -0.4449 -0.0262  0.1607
  156SAPE    C117361   1.701   5.343  10.211  0.9486 -0.1534 -0.8524
  156SAPE    HA17362   1.720   5.236  10.232  1.6688  0.1018 -0.2014
  156SAPE    HB17363   1.592   5.365  10.224  0.6565  0.7597 -4.2847
  156SAPE    C217364   1.740   5.361  10.062 -0.4684  0.4128 -0.3711
  156SAPE    HS17365   1.838   5.309  10.054  0.8573  2.8886 -0.7085
  156SAPE   O2117366   1.756   5.502  10.028  0.0879 -0.2763  0.1742
  156SAPE   C2117367   1.879   5.550  10.017 -0.0825  0.8301 -0.3816
  156SAPE   O2217368   1.981   5.489  10.048  0.1631 -0.5144 -0.1556
  156SAPE   C2217369   1.878   5.693   9.961  0.0044  0.2572 -0.3861
  156SAPE   H2R17370   1.836   5.757  10.042  1.1482 -0.5981  0.8950
  156SAPE   H2S17371   1.987   5.712   9.966  0.1967 -0.6895 -0.9447
  156SAPE    C317372   1.620   5.304   9.972  0.3898  0.0485 -0.1130
  156SAPE    HX17373   1.520   5.347   9.994  0.5723  0.6149 -0.3743
  156SAPE    HY17374   1.601   5.199  10.001 -1.8312  0.5849  0.4255
  156SAPE   O3117375   1.654   5.313   9.834 -0.0069 -0.2611  0.4741
  156SAPE   C3117376   1.592   5.413   9.762  0.5182 -0.0341 -0.3306
  156SAPE   O3217377   1.499   5.480   9.805 -0.1111  0.0886  0.3875
  156SAPE   C3217378   1.651   5.433   9.626 -0.0221 -0.0240  0.4654
  156SAPE   H2X17379   1.737   5.368   9.600  2.2031  3.2649 -0.6349
  156SAPE   H2Y17380   1.681   5.539   9.614  2.5031 -0.5541  1.8093
  156SAPE   C2317381   1.817   5.725   9.823 -0.3477 -0.2849 -0.1120
  156SAPE   H3R17382   1.718   5.675   9.815 -1.6418  2.0535  0.7832
  156SAPE   H3S17383   1.886   5.668   9.757 -1.4746 -0.7938 -0.8792
  156SAPE   C2417384   1.817   5.875   9.786  0.2649 -0.5122 -0.3969
  156SAPE   H4R17385   1.891   5.922   9.854 -0.6763  0.6358 -0.1509
  156SAPE   H4S17386   1.722   5.924   9.814  0.8765  0.3864  0.1701
  156SAPE   C2517387   1.846   5.892   9.639  0.5604  0.2532 -0.3593
  156SAPE   H5R17388   1.947   5.869   9.603  0.4739 -1.2580  0.3533
  156SAPE   C2617389   1.743   5.920   9.553 -0.3702  0.5732  0.3609
  156SAPE   H6R17390   1.767   5.918   9.446 -2.3846 -0.1688 -0.0984
  156SAPE   C2717391   1.594   5.952   9.576 -0.8663  0.1621  0.0219
  156SAPE   H7R17392   1.560   6.045   9.526 -5.3270 -1.2548  0.1878
  156SAPE   H7S17393   1.559   5.970   9.680 -0.4352  1.2157 -0.0163
  156SAPE   C2817394   1.503   5.845   9.526  1.0072 -0.2710  0.3603
  156SAPE   H8R17395   1.496   5.761   9.596 -3.7733  0.4621  0.9258
  156SAPE   C2917396   1.430   5.839   9.412 -0.3905  0.8318 -0.3294
  156SAPE   H9R17397   1.380   5.743   9.394  0.5406  0.2903 -0.0839
  156SAPE  C21017398   1.423   5.941   9.297  0.2108  0.6293 -0.9554
  156SAPE  H10R17399   1.483   6.032   9.320  1.2862 -0.8933  2.6521
  156SAPE  H10S17400   1.316   5.962   9.276 -0.1463 -1.2308 -1.0382
  156SAPE  C21117401   1.504   5.906   9.175 -0.1560 -0.1116 -0.5550
  156SAPE  H11R17402   1.578   5.829   9.199  1.0136  1.3315  0.5630
  156SAPE  C21217403   1.489   5.955   9.057 -0.2833  0.3075 -0.3661
  156SAPE  H12R17404   1.549   5.912   8.975  0.0464  1.2546 -0.6260
  156SAPE  C21317405   1.391   6.068   9.027 -0.3274  0.1086  0.5191
  156SAPE  H13R17406   1.363   6.125   9.118  1.6788  2.4785 -0.2952
  156SAPE  H13S17407   1.301   6.013   8.992 -0.7317 -0.5279  2.4859
  156SAPE  C21417408   1.429   6.156   8.917  0.0525 -0.5145  0.4375
  156SAPE  H14R17409   1.537   6.177   8.911  0.3454 -1.7820  0.9492
  156SAPE  C21517410   1.347   6.212   8.825 -0.1236  0.1756  0.7876
  156SAPE  H15R17411   1.391   6.276   8.747  0.2680  0.7063  1.4384
  156SAPE  C21617412   1.205   6.191   8.805 -0.3445 -0.4829  0.3127
  156SAPE  H16R17413   1.151   6.115   8.866 -1.3907 -0.2419 -0.3154
  156SAPE  H16S17414   1.175   6.172   8.700  3.5515 -3.3731 -0.3861
  156SAPE  C21717415   1.146   6.334   8.849 -0.2973  0.4933  0.2825
  156SAPE  H17R17416   1.037   6.320   8.834 -0.1525  1.3987 -1.7503
  156SAPE  H17S17417   1.178   6.414   8.778  1.1588  1.2537  1.7622
  156SAPE  C21817418   1.164   6.367   9.001  1.0243 -0.3589 -0.0627
  156SAPE  H18R17419   1.106   6.459   9.023  2.0195 -0.1278  1.6441
  156SAPE  H18S17420   1.270   6.380   9.031  1.5744 -1.0718 -1.6091
  156SAPE  C21917421   1.105   6.255   9.096 -0.7084  0.2107 -0.3806
  156SAPE  H19R17422   1.144   6.153   9.078 -0.1206  0.7833 -2.5472
  156SAPE  H19S17423   0.995   6.254   9.081 -0.5036 -1.8431 -1.9049
  156SAPE  C22017424   1.131   6.295   9.241  0.4171  0.4778  0.1632
  156SAPE  H20R17425   1.117   6.211   9.312 -2.2290 -1.4154 -2.4755
  156SAPE  H20S17426   1.056   6.374   9.265  0.2603  0.1230  0.8560
  156SAPE  H20T17427   1.232   6.340   9.255  1.4528 -1.4651 -1.0037
  156SAPE   C3317428   1.545   5.409   9.511  0.3561  0.1808 -0.2851
  156SAPE   H3X17429   1.456   5.474   9.518 -0.6345 -0.9478 -1.8902
  156SAPE   H3Y17430   1.495   5.309   9.515  0.5527 -0.0424 -2.6881
  156SAPE   C3417431   1.596   5.412   9.365  0.2091  0.8815 -0.7087
  156SAPE   H4X17432   1.514   5.430   9.293 -0.2209  1.0583 -0.1702
  156SAPE   H4Y17433   1.627   5.305   9.355 -1.1316  0.4077  0.0372
  156SAPE   C3517434   1.713   5.508   9.340  0.1811 -0.3102 -0.1199
  156SAPE   H5X17435   1.807   5.469   9.385  0.4789  0.8469  0.2763
  156SAPE   H5Y17436   1.686   5.612   9.369 -0.1371 -0.4042 -0.0780
  156SAPE   C3617437   1.759   5.528   9.198  0.5657  0.3484  0.1796
  156SAPE   H6X17438   1.668   5.563   9.145 -0.2844 -0.7348  0.8983
  156SAPE   H6Y17439   1.762   5.418   9.179  0.1822  0.2014  0.9224
  156SAPE   C3717440   1.887   5.603   9.181 -0.1180 -0.6382  0.2862
  156SAPE   H7X17441   1.902   5.617   9.072 -1.7632 -0.4304  0.0738
  156SAPE   H7Y17442   1.978   5.550   9.217 -0.1340 -0.2621  0.8728
  156SAPE   C3817443   1.877   5.741   9.254 -0.4390 -1.2144 -0.7426
  156SAPE   H8X17444   1.857   5.728   9.362  1.2668 -0.9391 -0.3780
  156SAPE   H8Y17445   1.798   5.802   9.206 -0.5238  0.6332  1.6584
  156SAPE   C3917446   2.007   5.830   9.236 -0.2386 -0.1479 -0.0591
  156SAPE   H9X17447   2.083   5.783   9.302  0.0878  1.3764  0.6541
  156SAPE   H9Y17448   1.981   5.934   9.264  2.5078 -0.3179  3.4293
  156SAPE  C31017449   2.073   5.833   9.088  0.3736  0.5976  0.6771
  156SAPE  H10X17450   2.107   5.731   9.060 -0.0493  0.4321  0.7571
  156SAPE  H10Y17451   2.156   5.906   9.094  0.8245  0.1584 -0.0679
  156SAPE  C31117452   1.963   5.873   8.983  0.4471 -0.1459 -0.1709
  156SAPE  H11X17453   1.911   5.962   9.026 -1.4076 -1.5637  0.5501
  156SAPE  H11Y17454   1.879   5.801   8.982 -0.9774  1.4579 -0.1817
  156SAPE  C31217455   2.012   5.911   8.845 -0.0818  0.9164 -0.1196
  156SAPE  H12X17456   2.092   5.988   8.851  1.6600 -0.7896 -1.0176
  156SAPE  H12Y17457   1.925   5.954   8.791 -0.4606 -1.7960 -1.7773
  156SAPE  C31317458   2.064   5.798   8.748  0.3987 -0.4443 -0.2112
  156SAPE  H13X17459   1.988   5.719   8.768 -0.8876  0.8657  0.2675
  156SAPE  H13Y17460   2.167   5.763   8.767  0.4352 -1.0836 -1.5785
  156SAPE  C31417461   2.048   5.827   8.599  0.0045  0.5629 -0.6058
  156SAPE  H14X17462   2.103   5.917   8.565  0.5053  0.1597 -0.8837
  156SAPE  H14Y17463   1.940   5.822   8.573 -0.6672  1.2124  1.8702
  156SAPE  C31517464   2.105   5.704   8.521  0.3797  0.5339  0.4147
  156SAPE  H15X17465   2.071   5.614   8.575 -0.5931  0.9485  0.5099
  156SAPE  H15Y17466   2.216   5.714   8.519  0.4580 -0.3471  0.1360
  156SAPE  C31617467   2.041   5.696   8.374 -0.0286 -0.1131 -0.3521
  156SAPE  H16X17468   2.088   5.782   8.320  0.6365 -0.9950 -1.1831
  156SAPE  H16Y17469   1.932   5.714   8.381  0.0245  0.1498 -0.1461
  156SAPE  C31717470   2.078   5.567   8.297  0.4535 -0.0667  0.7538
  156SAPE  H17X17471   1.990   5.565   8.229  0.3827 -1.1257  0.8741
  156SAPE  H17Y17472   2.072   5.479   8.365  0.0982  0.2994  1.1983
  156SAPE  C31817473   2.212   5.562   8.231 -0.1701 -0.8269 -0.1140
  156SAPE  H18X17474   2.216   5.647   8.160 -0.6425 -0.1652  0.6364
  156SAPE  H18Y17475   2.230   5.469   8.174  1.5983 -1.2663  1.1383
  156SAPE  H18Z17476   2.293   5.569   8.307  0.0782 -1.4970 -0.3216
  157SAPE     N17477   0.553   6.501  10.695  0.8467  0.0108 -0.5221
  157SAPE   HN117478   0.505   6.575  10.750  0.5382 -2.0189  2.0391
  157SAPE   HN217479   0.475   6.459  10.641 -1.2196  1.3757  1.2685
  157SAPE   HN317480   0.595   6.429  10.757 -0.1875  0.9216  1.3078
  157SAPE   C1217481   0.659   6.556  10.597  0.4352 -0.2021 -0.5235
  157SAPE  H12A17482   0.753   6.576  10.653  1.8914  0.4476 -3.1100
  157SAPE  H12B17483   0.622   6.649  10.551 -0.2914  0.0208  0.5029
  157SAPE   C1117484   0.691   6.455  10.487 -0.3259 -0.1547 -0.0283
  157SAPE  H11A17485   0.757   6.499  10.409 -0.5209 -2.7280 -1.6759
  157SAPE  H11B17486   0.594   6.437  10.435 -0.3256 -0.6769  0.1592
  157SAPE     P17487   0.874   6.291  10.574 -0.4777 -0.4120 -0.3041
  157SAPE   O1317488   0.939   6.403  10.646  0.4455 -0.9204  0.4755
  157SAPE   O1417489   0.873   6.161  10.636 -1.1470  0.8400 -0.4281
  157SAPE   O1217490   0.731   6.333  10.552 -0.1705  0.0168 -0.3012
  157SAPE   O1117491   0.949   6.277  10.430  0.3028 -0.3102  0.0303
  157SAPE    C117492   0.872   6.282  10.306 -0.3260 -0.0980 -0.1049
  157SAPE    HA17493   0.763   6.264  10.319 -0.3749 -1.5037 -2.2646
  157SAPE    HB17494   0.897   6.373  10.248  0.0992 -0.9918 -1.3298
  157SAPE    C217495   0.899   6.153  10.218  0.7930  1.0217 -0.3868
  157SAPE    HS17496   0.922   6.066  10.284 -0.8528  1.3779  0.6664
  157SAPE   O2117497   1.004   6.186  10.126 -0.2057 -0.0818 -0.3932
  157SAPE   C2117498   1.063   6.076  10.077  0.1554  0.3450  0.3715
  157SAPE   O2217499   1.040   5.962  10.112 -0.4050 -0.5008 -0.5971
  157SAPE   C2217500   1.174   6.117   9.970  0.0291  0.1200  1.0119
  157SAPE   H2R17501   1.201   6.222   9.992  0.1930  0.3701 -0.3842
  157SAPE   H2S17502   1.269   6.060   9.979 -0.0868 -0.3543 -0.6035
  157SAPE    C317503   0.771   6.104  10.145 -0.3364  0.0186 -0.9220
  157SAPE    HX17504   0.703   6.068  10.225  1.7171  1.1938  1.4229
  157SAPE    HY17505   0.796   6.012  10.087  0.0272 -0.8735  0.6120
  157SAPE   O3117506   0.704   6.206  10.064 -0.0037  0.7039  0.1561
  157SAPE   C3117507   0.596   6.160  10.001 -0.6116 -0.6734 -0.1839
  157SAPE   O3217508   0.564   6.042  10.007  0.3159 -0.2047 -0.2984
  157SAPE   C3217509   0.528   6.278   9.932  0.5720 -0.0721  0.5429
  157SAPE   H2X17510   0.595   6.289   9.844  0.9703  0.3175  0.8965
  157SAPE   H2Y17511   0.537   6.368   9.996 -2.2927 -0.3851  1.5021
  157SAPE   C2317512   1.121   6.099   9.829  0.2571  0.9997 -0.4688
  157SAPE   H3R17513   1.014   6.128   9.821  0.3758  1.4873 -0.2938
  157SAPE   H3S17514   1.131   5.994   9.794 -1.2772  1.2019 -1.5786
  157SAPE   C2417515   1.219   6.160   9.726 -0.3582  0.4472 -0.1460
  157SAPE   H4R17516   1.191   6.132   9.622  0.2106  0.9026 -0.4252
  157SAPE   H4S17517   1.315   6.113   9.756 -1.5219 -2.4519 -0.7672
  157SAPE   C2517518   1.243   6.312   9.723 -0.1979  0.1329  0.3759
  157SAPE   H5R17519   1.332   6.341   9.781 -0.3602 -0.0518  0.7210
  157SAPE   C2617520   1.177   6.412   9.671  0.1221 -0.1074 -0.6140
  157SAPE   H6R17521   1.224   6.510   9.687  0.3745 -0.6614  2.3093
  157SAPE   C2717522   1.046   6.396   9.596  0.0897  0.1082  0.4561
  157SAPE   H7R17523   1.061   6.327   9.510 -1.1948  1.5532 -0.9557
  157SAPE   H7S17524   1.022   6.486   9.536  0.8287  0.1097  0.1559
  157SAPE   C2817525   0.922   6.378   9.677  0.8086 -0.0934 -0.1655
  157SAPE   H8R17526   0.941   6.375   9.786 -0.5275 -0.0172  0.0756
  157SAPE   C2917527   0.799   6.359   9.625 -0.6805 -1.0682 -0.2353
  157SAPE   H9R17528   0.717   6.337   9.694 -0.7546 -0.6386 -0.1885
  157SAPE  C21017529   0.762   6.368   9.478 -0.6787 -0.0420 -0.2499
  157SAPE  H10R17530   0.689   6.288   9.451  0.8025 -1.5814  0.2438
  157SAPE  H10S17531   0.848   6.332   9.418 -1.3366 -2.0900 -0.0033
  157SAPE  C21117532   0.721   6.504   9.423  0.3130 -0.1846  0.3076
  157SAPE  H11R17533   0.683   6.573   9.499 -0.3076 -0.5749  0.3607
  157SAPE  C21217534   0.728   6.522   9.293 -0.0219 -0.1232  1.0011
  157SAPE  H12R17535   0.681   6.611   9.248  1.2047 -0.1647 -0.4231
  157SAPE  C21317536   0.789   6.419   9.188  0.2102  0.2598 -0.1685
  157SAPE  H13R17537   0.798   6.319   9.235  0.5260  0.5918  0.4827
  157SAPE  H13S17538   0.890   6.456   9.159 -0.3544  0.9476 -1.3399
  157SAPE  C21417539   0.691   6.423   9.075 -0.2781  0.0779  0.2364
  157SAPE  H14R17540   0.600   6.373   9.111 -1.2396  0.7956 -1.1603
  157SAPE  C21517541   0.695   6.476   8.949  0.9530 -0.5475  0.6140
  157SAPE  H15R17542   0.605   6.482   8.886 -0.3286  0.7998  2.5234
  157SAPE  C21617543   0.819   6.548   8.895 -0.7772  0.2078  0.4628
  157SAPE  H16R17544   0.870   6.494   8.813  0.0784  1.0591  0.4364
  157SAPE  H16S17545   0.893   6.569   8.975 -0.7055  0.9743  0.1902
  157SAPE  C21717546   0.777   6.696   8.854 -0.5111 -0.2676 -0.0898
  157SAPE  H17R17547   0.742   6.750   8.945 -1.4515 -0.0283 -0.5943
  157SAPE  H17S17548   0.691   6.691   8.785 -0.4459  0.8475 -0.2606
  157SAPE  C21817549   0.893   6.759   8.784 -0.2548 -0.3150  0.9941
  157SAPE  H18R17550   0.943   6.695   8.708  1.6331  2.0618  0.2069
  157SAPE  H18S17551   0.974   6.777   8.858  0.9094  1.0180 -0.5797
  157SAPE  C21917552   0.862   6.901   8.732 -0.0700  0.3838 -0.3661
  157SAPE  H19R17553   0.824   6.966   8.813  0.5607  0.5400 -0.1915
  157SAPE  H19S17554   0.782   6.887   8.655 -0.6824  1.5906  0.0401
  157SAPE  C22017555   0.982   6.975   8.679  0.0229 -0.4888 -0.4676
  157SAPE  H20R17556   1.068   6.958   8.747 -0.6559  0.0017  0.5233
  157SAPE  H20S17557   0.959   7.084   8.683  0.3021 -0.4523  0.2865
  157SAPE  H20T17558   1.019   6.952   8.577  2.2874 -0.8482  0.3957
  157SAPE   C3317559   0.374   6.264   9.902  0.1448 -0.2794  0.0428
  157SAPE   H3X17560   0.317   6.246   9.996  0.5098 -0.6518  0.1939
  157SAPE   H3Y17561   0.368   6.174   9.837 -1.1417 -0.5198  0.4760
  157SAPE   C3417562   0.315   6.389   9.824 -0.2519  0.2452  0.1158
  157SAPE   H4X17563   0.344   6.479   9.881  1.1369 -0.3119  0.3071
  157SAPE   H4Y17564   0.205   6.379   9.810 -0.8829  0.7827  4.0772
  157SAPE   C3517565   0.379   6.402   9.684  1.0075 -0.7449  0.1028
  157SAPE   H5X17566   0.489   6.415   9.688  0.8579  1.1055 -1.2181
  157SAPE   H5Y17567   0.339   6.496   9.642  2.7424  0.0483  0.1749
  157SAPE   C3617568   0.314   6.293   9.593 -0.2960  0.7625 -0.8738
  157SAPE   H6X17569   0.208   6.276   9.621  0.0302 -1.2411 -0.8028
  157SAPE   H6Y17570   0.365   6.196   9.610  0.0183  0.4552 -3.3489
  157SAPE   C3717571   0.316   6.329   9.444  0.0186 -0.5918 -0.2356
  157SAPE   H7X17572   0.410   6.388   9.435 -1.0962  1.2904  0.2816
  157SAPE   H7Y17573   0.238   6.406   9.428  1.4656  1.0364  0.3714
  157SAPE   C3817574   0.305   6.208   9.344 -0.7866  0.8654 -0.3000
  157SAPE   H8X17575   0.243   6.132   9.396 -2.6651  2.6411  0.1874
  157SAPE   H8Y17576   0.410   6.181   9.324 -0.1554  1.3547  2.1443
  157SAPE   C3917577   0.243   6.251   9.212  0.1009 -0.3767  0.8049
  157SAPE   H9X17578   0.304   6.336   9.174  0.1151 -0.4377  0.6893
  157SAPE   H9Y17579   0.138   6.288   9.213  1.0193  2.4493 -0.6325
  157SAPE  C31017580   0.253   6.142   9.096  0.7258 -0.4642 -0.6765
  157SAPE  H10X17581   0.209   6.196   9.010  0.6620  1.5368  0.5547
  157SAPE  H10Y17582   0.190   6.059   9.134 -0.2327 -0.0031 -1.2516
  157SAPE  C31117583   0.395   6.087   9.068  0.5925  0.3694 -0.1673
  157SAPE  H11X17584   0.415   6.013   9.148 -0.0879 -0.3232 -0.6268
  157SAPE  H11Y17585   0.468   6.170   9.077  0.6493  0.2637  0.3754
  157SAPE  C31217586   0.413   6.032   8.936 -0.5046  0.2861 -0.0672
  157SAPE  H12X17587   0.523   6.014   8.945 -0.8715 -2.0364  0.0132
  157SAPE  H12Y17588   0.394   6.107   8.856  0.8745  0.0179 -0.6721
  157SAPE  C31317589   0.340   5.899   8.908  0.3327  0.1640 -0.2644
  157SAPE  H13X17590   0.230   5.906   8.920  0.2792  1.0589 -1.2142
  157SAPE  H13Y17591   0.385   5.826   8.979 -0.2472 -1.5080 -1.5672
  157SAPE  C31417592   0.369   5.842   8.771 -0.2338 -0.0952  0.2430
  157SAPE  H14X17593   0.477   5.853   8.747 -0.5859  2.7915 -0.1196
  157SAPE  H14Y17594   0.321   5.907   8.694 -2.1105 -2.6198 -0.7925
  157SAPE  C31517595   0.334   5.693   8.751  0.0321  0.1330 -0.4174
  157SAPE  H15X17596   0.236   5.679   8.801  0.9674 -3.8962  0.4549
  157SAPE  H15Y17597   0.400   5.630   8.814  1.7014  1.2723 -0.9926
  157SAPE  C31617598   0.331   5.645   8.608 -0.9528 -0.4250  0.3640
  157SAPE  H16X17599   0.439   5.634   8.586 -0.9665  1.3168 -0.7193
  157SAPE  H16Y17600   0.284   5.722   8.542 -1.1569 -0.0704  0.9115
  157SAPE  C31717601   0.255   5.509   8.595  0.5431  0.0022  0.3263
  157SAPE  H17X17602   0.322   5.437   8.647  1.3497 -0.2695 -1.0484
  157SAPE  H17Y17603   0.256   5.491   8.486 -2.5976  0.1099  0.2299
  157SAPE  C31817604   0.110   5.506   8.651  0.2800  0.0720 -0.1468
  157SAPE  H18X17605   0.054   5.417   8.613 -0.2150  1.0217 -1.6983
  157SAPE  H18Y17606   0.043   5.589   8.622 -1.5691 -1.5041 -0.5217
  157SAPE  H18Z17607   0.114   5.502   8.762 -0.9762 -2.6151 -0.1571
  158SAPE     N17608   1.751   5.710  10.703  0.2725 -0.2973  0.0240
  158SAPE   HN117609   1.672   5.700  10.769  0.3385 -1.0128 -0.0022
  158SAPE   HN217610   1.737   5.799  10.651 -0.3001  1.3566  2.8883
  158SAPE   HN317611   1.737   5.632  10.636  2.1348 -0.0878 -0.6560
  158SAPE   C1217612   1.897   5.684  10.753 -0.0694 -0.8280 -1.1426
  158SAPE  H12A17613   1.910   5.575  10.768  0.8778 -0.9058 -2.5297
  158SAPE  H12B17614   1.915   5.743  10.846  0.8798 -2.4398 -0.2867
  158SAPE   C1117615   2.001   5.729  10.649  0.0053  0.2621  0.1140
  158SAPE  H11A17616   1.994   5.664  10.560  2.2209  1.6216 -1.1001
  158SAPE  H11B17617   2.108   5.715  10.675 -0.3922 -1.2795  0.9615
  158SAPE     P17618   2.042   5.986  10.651  0.1136 -0.1664  0.1023
  158SAPE   O1317619   1.962   6.103  10.622 -0.0340  0.3969 -0.5071
  158SAPE   O1417620   2.077   5.961  10.792  0.6452 -1.0067 -0.5764
  158SAPE   O1217621   1.976   5.862  10.599 -0.0230 -0.2619 -0.1883
  158SAPE   O1117622   2.176   5.998  10.568  1.0180  0.5813  0.7172
  158SAPE    C117623   2.186   5.946  10.430 -0.1920  1.2922  0.1332
  158SAPE    HA17624   2.272   5.876  10.424 -1.5397 -0.5459  1.4783
  158SAPE    HB17625   2.101   5.884  10.394 -0.8677  2.1729  0.1966
  158SAPE    C217626   2.213   6.065  10.343 -0.0043 -0.1236  0.0433
  158SAPE    HS17627   2.127   6.136  10.339  1.2915  1.3582 -3.9129
  158SAPE   O2117628   2.254   6.018  10.212 -0.2504 -0.4619 -0.1481
  158SAPE   C2117629   2.171   5.966  10.141 -0.0742 -0.8628 -0.2050
  158SAPE   O2217630   2.051   5.965  10.154  0.1224  0.2544 -0.6534
  158SAPE   C2217631   2.247   5.890  10.026 -0.6351  0.6995  0.0643
  158SAPE   H2R17632   2.353   5.883  10.057  0.0721 -0.7742 -2.5243
  158SAPE   H2S17633   2.210   5.786  10.022 -0.5867  0.6017  1.9437
  158SAPE    C317634   2.332   6.152  10.397  1.1956  0.5662  0.3940
  158SAPE    HX17635   2.420   6.084  10.404  0.4254 -0.5886 -0.8511
  158SAPE    HY17636   2.310   6.190  10.499 -1.6362 -2.9370  1.1950
  158SAPE   O3117637   2.369   6.261  10.301 -0.4196 -0.3288  0.0019
  158SAPE   C3117638   2.285   6.364  10.310 -0.7925 -0.0926  0.0017
  158SAPE   O3217639   2.212   6.384  10.407  0.2687 -0.0975  0.5258
  158SAPE   C3217640   2.278   6.458  10.187  0.5387 -0.2035  0.3209
  158SAPE   H2X17641   2.351   6.541  10.192  3.3438 -2.4824 -1.2639
  158SAPE   H2Y17642   2.175   6.500  10.185  1.0288  0.9495 -0.6489
  158SAPE   C2317643   2.225   5.958   9.894 -0.5544 -0.3629  0.3586
  158SAPE   H3R17644   2.281   6.054   9.892 -0.6644 -0.3071 -0.0049
  158SAPE   H3S17645   2.126   6.005   9.878 -0.8858 -1.3585 -0.5492
  158SAPE   C2417646   2.251   5.859   9.785  0.2173 -0.5962  0.7437
  158SAPE   H4R17647   2.190   5.768   9.801  0.4404 -0.9164 -0.1902
  158SAPE   H4S17648   2.359   5.833   9.785  0.5463  0.7301  0.2276
  158SAPE   C2517649   2.216   5.918   9.655  0.3907 -0.4698 -1.2773
  158SAPE   H5R17650   2.119   5.969   9.656  0.8149  0.3767  2.4319
  158SAPE   C2617651   2.280   5.931   9.539  0.2155 -0.7374  0.3370
  158SAPE   H6R17652   2.232   5.981   9.453 -0.3196  0.2268  1.1905
  158SAPE   C2717653   2.432   5.908   9.515  0.1508  0.3271  0.0517
  158SAPE   H7R17654   2.451   5.820   9.449 -0.3621  0.1234  0.1724
  158SAPE   H7S17655   2.479   5.886   9.613 -1.5515  0.2823  0.8793
  158SAPE   C2817656   2.485   6.037   9.463 -0.0699 -0.4417  0.3335
  158SAPE   H8R17657   2.464   6.128   9.521 -1.1717 -0.6800  0.3342
  158SAPE   C2917658   2.569   6.055   9.363  0.4518  0.3834  0.6732
  158SAPE   H9R17659   2.601   6.159   9.345  2.3205 -0.3773 -0.5501
  158SAPE  C21017660   2.630   5.947   9.278 -0.1355 -0.3144 -0.3565
  158SAPE  H10R17661   2.635   5.846   9.325 -2.5589  0.6901  2.1571
  158SAPE  H10S17662   2.733   5.987   9.260 -1.2391  3.0215  0.5000
  158SAPE  C21117663   2.559   5.951   9.143 -0.2839 -0.2528  0.3305
  158SAPE  H11R17664   2.461   5.900   9.145  0.5723 -1.9856 -0.5041
  158SAPE  C21217665   2.593   5.989   9.022 -0.5081 -0.4142  0.4416
  158SAPE  H12R17666   2.525   5.991   8.936 -1.9113  2.6323  1.5519
  158SAPE  C21317667   2.724   6.047   8.980 -0.7972 -0.4999  0.2041
  158SAPE  H13R17668   2.743   6.001   8.881  0.6163  0.2374  0.1120
  158SAPE  H13S17669   2.812   6.014   9.040  0.0021 -0.4999 -0.9425
  158SAPE  C21417670   2.730   6.196   8.972  1.1311 -0.2773  0.1378
  158SAPE  H14R17671   2.751   6.237   9.071  0.9647 -0.6255  0.3166
  158SAPE  C21517672   2.714   6.278   8.865 -0.0878 -0.6284 -0.6832
  158SAPE  H15R17673   2.715   6.386   8.883 -0.4313 -0.5061 -1.3789
  158SAPE  C21617674   2.686   6.235   8.718 -0.2152  0.1791 -0.1506
  158SAPE  H16R17675   2.607   6.297   8.671 -0.8377  0.9448  1.8496
  158SAPE  H16S17676   2.644   6.132   8.717 -3.8715  1.5772  1.2990
  158SAPE  C21717677   2.812   6.233   8.636 -0.3606  0.2379 -0.1691
  158SAPE  H17R17678   2.849   6.129   8.634 -1.1311 -0.0568  0.4697
  158SAPE  H17S17679   2.890   6.301   8.678 -1.2546 -0.4453  2.6985
  158SAPE  C21817680   2.781   6.280   8.490 -0.7526  0.0241  1.1431
  158SAPE  H18R17681   2.765   6.390   8.493  0.7374  0.2776  0.7085
  158SAPE  H18S17682   2.692   6.236   8.440 -1.8482  2.1198  1.1591
  158SAPE  C21917683   2.898   6.245   8.393 -0.7847  0.2169  0.5951
  158SAPE  H19R17684   2.938   6.144   8.416 -0.1632 -0.1207 -1.8562
  158SAPE  H19S17685   2.984   6.309   8.422  1.0206 -0.6805 -2.4937
  158SAPE  C22017686   2.861   6.264   8.246 -0.4814 -0.4554 -0.1427
  158SAPE  H20R17687   2.815   6.364   8.231 -0.1136  0.3375  3.6111
  158SAPE  H20S17688   2.782   6.198   8.205 -1.0401 -0.8253  1.5198
  158SAPE  H20T17689   2.951   6.268   8.180  0.6673  0.4989  1.4564
  158SAPE   C3317690   2.314   6.378  10.059  0.0645  0.8943  0.0277
  158SAPE   H3X17691   2.231   6.311  10.028  2.0705 -2.6782  2.0495
  158SAPE   H3Y17692   2.407   6.318  10.074  0.7125  1.5336 -1.3330
  158SAPE   C3417693   2.351   6.463   9.941 -0.2881 -0.0324  0.5456
  158SAPE   H4X17694   2.446   6.517   9.962 -0.7471  1.8875 -2.1050
  158SAPE   H4Y17695   2.269   6.536   9.919 -2.6021 -2.6058  0.3443
  158SAPE   C3517696   2.387   6.391   9.805  0.1799  0.6319  0.0688
  158SAPE   H5X17697   2.292   6.334   9.791  0.6086 -0.7321  2.5220
  158SAPE   H5Y17698   2.463   6.311   9.817  0.0889  0.2830 -1.5756
  158SAPE   C3617699   2.409   6.498   9.699 -0.5036 -0.2908 -0.1998
  158SAPE   H6X17700   2.491   6.566   9.731 -0.0346  0.1999 -2.3667
  158SAPE   H6Y17701   2.324   6.567   9.677 -0.5906  0.3854  2.1936
  158SAPE   C3717702   2.457   6.438   9.567  0.5386 -0.3418  0.1360
  158SAPE   H7X17703   2.379   6.376   9.519 -0.8424  1.8625 -0.5570
  158SAPE   H7Y17704   2.557   6.392   9.578  0.4279 -0.2392  1.7192
  158SAPE   C3817705   2.483   6.545   9.462  0.0350 -0.0018 -0.2606
  158SAPE   H8X17706   2.552   6.616   9.512  0.6515 -1.1750  0.5731
  158SAPE   H8Y17707   2.388   6.598   9.442 -0.5457 -1.1005 -0.4350
  158SAPE   C3917708   2.551   6.497   9.335  0.5797 -0.4441  1.4074
  158SAPE   H9X17709   2.486   6.430   9.274  1.9590  1.9018 -2.8987
  158SAPE   H9Y17710   2.636   6.429   9.351  0.6436 -1.3455 -2.2066
  158SAPE  C31017711   2.590   6.623   9.250 -0.1335 -0.5992 -0.2637
  158SAPE  H10X17712   2.660   6.684   9.310  0.7797  0.8049 -2.7112
  158SAPE  H10Y17713   2.496   6.675   9.223  1.3042  1.3481 -1.6583
  158SAPE  C31117714   2.661   6.564   9.123 -0.3353  0.6071 -0.1314
  158SAPE  H11X17715   2.584   6.511   9.063  0.0402  0.3429 -0.3775
  158SAPE  H11Y17716   2.736   6.484   9.141 -0.1652  0.9626  0.7983
  158SAPE  C31217717   2.718   6.680   9.044 -0.0971  0.1813  0.3693
  158SAPE  H12X17718   2.804   6.724   9.098 -1.6874  1.3002  2.0539
  158SAPE  H12Y17719   2.645   6.764   9.045 -0.3154 -0.0121  1.3870
  158SAPE  C31317720   2.762   6.640   8.907 -0.6674 -0.7270  0.2435
  158SAPE  H13X17721   2.680   6.581   8.863 -0.1587 -1.6470  0.5263
  158SAPE  H13Y17722   2.848   6.570   8.904  1.0962  1.2803  1.8971
  158SAPE  C31417723   2.807   6.760   8.817 -0.3894 -0.2115  0.7319
  158SAPE  H14X17724   2.897   6.806   8.864  0.8597 -3.2809  1.5036
  158SAPE  H14Y17725   2.723   6.832   8.817  1.2301  1.7333 -0.3409
  158SAPE  C31517726   2.837   6.730   8.669 -0.0453  0.4423 -0.4950
  158SAPE  H15X17727   2.758   6.663   8.629  1.5267 -1.3089 -0.7142
  158SAPE  H15Y17728   2.929   6.674   8.645  0.7138  0.9090  1.2564
  158SAPE  C31617729   2.847   6.854   8.579  0.2871 -0.0820 -0.1482
  158SAPE  H16X17730   2.927   6.834   8.505  0.9168 -1.4666  0.8876
  158SAPE  H16Y17731   2.892   6.930   8.647  0.0295 -0.1811  0.1360
  158SAPE  C31717732   2.712   6.892   8.516 -0.4466  0.1892 -0.0098
  158SAPE  H17X17733   2.643   6.897   8.603 -0.2105 -0.7948  0.2418
  158SAPE  H17Y17734   2.676   6.811   8.450 -2.1094  0.3963  0.6223
  158SAPE  C31817735   2.716   7.028   8.450 -0.3125 -0.4008 -0.2931
  158SAPE  H18X17736   2.792   7.045   8.370 -0.7626 -1.3028 -0.9205
  158SAPE  H18Y17737   2.741   7.112   8.519  1.8890 -1.4063  0.1863
  158SAPE  H18Z17738   2.621   7.060   8.402 -1.4252 -2.5765  0.4131
  159SAPE     N17739   0.900   4.009   6.645  0.4176 -0.0720  0.1117
  159SAPE   HN117740   0.945   3.996   6.738  0.0942 -1.4548  0.0924
  159SAPE   HN217741   0.800   3.979   6.647  0.6999 -1.0605  0.0517
  159SAPE   HN317742   0.945   3.943   6.578  1.4667  1.2923 -0.5498
  159SAPE   C1217743   0.900   4.152   6.592  0.3389  0.5166  0.2770
  159SAPE  H12A17744   0.819   4.207   6.645 -0.9392 -2.1491  1.1631
  159SAPE  H12B17745   0.882   4.143   6.483 -2.0994 -0.5526  0.7437
  159SAPE   C1117746   1.041   4.209   6.612 -0.0650 -0.5317  0.0134
  159SAPE  H11A17747   1.077   4.231   6.715  2.1841  2.0475 -1.2616
  159SAPE  H11B17748   1.039   4.309   6.564  0.9609 -0.2935  0.4529
  159SAPE     P17749   1.294   4.181   6.557 -0.3648 -0.3332 -0.1036
  159SAPE   O1317750   1.373   4.093   6.462  0.4673  0.0584  0.3265
  159SAPE   O1417751   1.292   4.329   6.537  0.1406  0.0311  0.3880
  159SAPE   O1217752   1.146   4.123   6.558  0.3089 -0.3614  0.4709
  159SAPE   O1117753   1.335   4.147   6.706 -0.5164  0.0288 -0.5278
  159SAPE    C117754   1.378   4.015   6.751 -0.2217  0.5963  0.3956
  159SAPE    HA17755   1.409   3.945   6.670  0.7697  0.2568  1.0558
  159SAPE    HB17756   1.454   4.031   6.830 -3.2411  0.8699  3.3859
  159SAPE    C217757   1.257   3.945   6.823 -0.2376 -0.3526  0.7740
  159SAPE    HS17758   1.175   3.949   6.748  1.9605  2.7918 -1.6328
  159SAPE   O2117759   1.218   4.012   6.943  0.2297  0.1335 -0.4169
  159SAPE   C2117760   1.093   4.014   6.975  0.1102  0.1707  0.0783
  159SAPE   O2217761   1.001   3.980   6.897  0.1619 -0.2581  0.1997
  159SAPE   C2217762   1.076   4.056   7.119 -0.4949 -0.2739 -0.3732
  159SAPE   H2R17763   1.174   4.090   7.159 -0.0329  0.0544 -1.7465
  159SAPE   H2S17764   1.015   4.148   7.118  0.5773  0.4785 -3.1085
  159SAPE    C317765   1.294   3.798   6.860  0.0390  0.3579 -0.1630
  159SAPE    HX17766   1.346   3.754   6.772 -0.7320 -1.4143  0.2614
  159SAPE    HY17767   1.196   3.750   6.881 -0.2716  0.4875 -1.2794
  159SAPE   O3117768   1.367   3.788   6.983 -0.2879  0.2415 -0.0796
  159SAPE   C3117769   1.493   3.770   6.979  0.2627 -0.2245  0.2623
  159SAPE   O3217770   1.563   3.754   6.876  0.1656  0.2113 -0.1479
  159SAPE   C3217771   1.551   3.738   7.119  0.1807 -0.9809  0.3164
  159SAPE   H2X17772   1.564   3.833   7.175 -3.5557  0.2586 -0.7888
  159SAPE   H2Y17773   1.656   3.708   7.099  0.4047 -0.5570  0.8337
  159SAPE   C2317774   1.009   3.945   7.202 -0.1074 -0.0009 -1.1355
  159SAPE   H3R17775   1.078   3.858   7.210  0.4290  0.3612 -1.7057
  159SAPE   H3S17776   0.912   3.915   7.156 -2.3268  0.3602  3.1249
  159SAPE   C2417777   0.987   3.997   7.349  0.5024  0.1541  0.1666
  159SAPE   H4R17778   0.923   4.088   7.346  0.6615  0.2662  0.1981
  159SAPE   H4S17779   1.084   4.041   7.382  1.1137 -0.2787 -1.0264
  159SAPE   C2517780   0.913   3.895   7.432 -0.5783  0.2374 -0.0943
  159SAPE   H5R17781   0.823   3.844   7.393  0.3999 -1.4019 -0.2596
  159SAPE   C2617782   0.955   3.848   7.551  0.3293  0.1695  0.3321
  159SAPE   H6R17783   0.889   3.781   7.607  1.9649 -0.3930  1.6034
  159SAPE   C2717784   1.075   3.888   7.631 -0.2200  0.1478 -0.6177
  159SAPE   H7R17785   1.056   3.992   7.666 -2.6002  0.3451 -2.3857
  159SAPE   H7S17786   1.167   3.887   7.570  2.4607  0.1942  3.2358
  159SAPE   C2817787   1.082   3.796   7.750  0.3035 -0.4102  1.4630
  159SAPE   H8R17788   1.124   3.697   7.728 -0.2603 -0.4378  0.4651
  159SAPE   C2917789   1.029   3.814   7.874  0.2973 -0.7273  0.0513
  159SAPE   H9R17790   1.054   3.742   7.953  2.4984  2.5172  2.4503
  159SAPE  C21017791   0.961   3.935   7.933  0.3735 -0.3175  0.4679
  159SAPE  H10R17792   0.861   3.900   7.969  0.5013 -2.7394 -1.3893
  159SAPE  H10S17793   0.958   4.016   7.857  3.1585  1.4621  2.1687
  159SAPE  C21117794   1.047   4.009   8.034 -0.9527  0.3802  0.4731
  159SAPE  H11R17795   1.086   4.110   8.011 -1.2043  0.5855  0.9421
  159SAPE  C21217796   1.078   3.971   8.152  0.3517  0.2240 -0.6380
  159SAPE  H12R17797   1.143   4.034   8.215 -0.6621  0.4410  0.2122
  159SAPE  C21317798   1.032   3.839   8.214 -0.0458 -0.3864  0.0620
  159SAPE  H13R17799   1.114   3.765   8.222 -0.5523 -0.8692  0.9664
  159SAPE  H13S17800   0.955   3.800   8.144 -1.0406  0.9883  0.3626
  159SAPE  C21417801   0.974   3.867   8.350 -0.2034  0.6178  0.2243
  159SAPE  H14R17802   0.999   3.967   8.389 -0.1270  0.6036  0.2114
  159SAPE  C21517803   0.886   3.789   8.415 -1.0255  0.3296 -0.3758
  159SAPE  H15R17804   0.826   3.822   8.500 -1.3175 -0.6859 -0.1785
  159SAPE  C21617805   0.845   3.654   8.360 -0.6496 -0.0313  0.5979
  159SAPE  H16R17806   0.928   3.609   8.303 -3.2131 -1.0818 -2.4901
  159SAPE  H16S17807   0.757   3.658   8.292 -0.6185 -0.6727  0.5158
  159SAPE  C21717808   0.806   3.555   8.472 -0.8243 -0.0030  0.2180
  159SAPE  H17R17809   0.697   3.576   8.481 -0.5439  1.9601 -0.7429
  159SAPE  H17S17810   0.863   3.576   8.565  2.8581 -2.5034 -1.3578
  159SAPE  C21817811   0.833   3.402   8.441 -0.2220 -0.2084 -0.5017
  159SAPE  H18R17812   0.944   3.408   8.449 -0.3379  0.4178  0.8363
  159SAPE  H18S17813   0.816   3.392   8.332  2.5595  1.3383 -1.1186
  159SAPE  C21917814   0.751   3.303   8.525  0.6009  0.1842 -0.1859
  159SAPE  H19R17815   0.762   3.203   8.478 -1.5580  0.2433 -0.8626
  159SAPE  H19S17816   0.645   3.334   8.514  1.5110  4.2184  1.2519
  159SAPE  C22017817   0.786   3.293   8.671  0.1271 -0.1012 -0.0689
  159SAPE  H20R17818   0.792   3.397   8.709  3.0561 -0.1309 -0.3423
  159SAPE  H20S17819   0.879   3.234   8.687 -0.0849  0.1376  2.2475
  159SAPE  H20T17820   0.705   3.235   8.721 -2.0109  3.3822  0.6964
  159SAPE   C3317821   1.487   3.624   7.194 -0.0439  0.3053 -0.1153
  159SAPE   H3X17822   1.490   3.533   7.131 -1.0142  0.8898 -1.0061
  159SAPE   H3Y17823   1.384   3.656   7.219  0.9817  1.5801  2.8224
  159SAPE   C3417824   1.558   3.591   7.331  0.0033  1.1802  0.0072
  159SAPE   H4X17825   1.660   3.557   7.302  1.2557  3.0498  2.0006
  159SAPE   H4Y17826   1.513   3.509   7.390  0.5188 -0.5162 -1.8986
  159SAPE   C3517827   1.576   3.698   7.450  0.1588  0.0198 -0.1052
  159SAPE   H5X17828   1.646   3.777   7.416  0.8893 -0.1943  0.8496
  159SAPE   H5Y17829   1.616   3.647   7.541  1.1468 -1.0543 -1.1301
  159SAPE   C3617830   1.447   3.764   7.501  0.8303  0.2515  0.1171
  159SAPE   H6X17831   1.384   3.681   7.539  2.0089 -1.0279 -0.6629
  159SAPE   H6Y17832   1.397   3.825   7.423 -1.7046 -1.4827  0.3303
  159SAPE   C3717833   1.478   3.857   7.620  0.6559  0.3180  0.1204
  159SAPE   H7X17834   1.391   3.924   7.636  0.5639  0.3407 -0.4444
  159SAPE   H7Y17835   1.567   3.923   7.607  1.0684  0.3438  2.8542
  159SAPE   C3817836   1.518   3.776   7.741  0.1855  0.2017 -0.1406
  159SAPE   H8X17837   1.623   3.741   7.734  0.7325  1.7579  0.1565
  159SAPE   H8Y17838   1.458   3.683   7.757 -0.6823  0.8821  0.6217
  159SAPE   C3917839   1.518   3.859   7.879 -0.1177  0.4725  0.1647
  159SAPE   H9X17840   1.413   3.888   7.898 -0.5123  1.4196 -3.1815
  159SAPE   H9Y17841   1.568   3.955   7.855 -0.2487  0.5199  0.0781
  159SAPE  C31017842   1.584   3.786   7.995  0.0506  0.9078 -0.3604
  159SAPE  H10X17843   1.694   3.789   7.983  0.0565  0.0778 -0.4979
  159SAPE  H10Y17844   1.550   3.681   7.991 -0.9989  1.2270 -0.0398
  159SAPE  C31117845   1.540   3.851   8.128 -0.4746  0.1154 -0.8146
  159SAPE  H11X17846   1.429   3.854   8.133 -0.4036  0.2435  0.8764
  159SAPE  H11Y17847   1.573   3.955   8.111  1.3367 -0.1160  1.1424
  159SAPE  C31217848   1.603   3.785   8.254 -0.0845  0.5847  0.3481
  159SAPE  H12X17849   1.608   3.854   8.341 -0.9666  2.3400 -0.9845
  159SAPE  H12Y17850   1.704   3.748   8.226 -0.2363  0.0541  0.4971
  159SAPE  C31317851   1.527   3.660   8.297  0.1586 -0.3459  0.0249
  159SAPE  H13X17852   1.511   3.596   8.207  0.5508  1.6775 -1.5148
  159SAPE  H13Y17853   1.426   3.697   8.323  0.2318  1.3239 -1.9054
  159SAPE  C31417854   1.579   3.589   8.426 -0.5235  0.4501 -0.3755
  159SAPE  H14X17855   1.506   3.506   8.444 -1.7348  1.7827  0.9563
  159SAPE  H14Y17856   1.590   3.653   8.516 -1.3797 -1.1603  0.9104
  159SAPE  C31517857   1.710   3.516   8.409  0.2578 -0.2922 -0.6477
  159SAPE  H15X17858   1.724   3.485   8.303  0.0235 -0.5086 -0.6156
  159SAPE  H15Y17859   1.708   3.427   8.476 -1.5122  1.7547  2.1288
  159SAPE  C31617860   1.836   3.597   8.460  0.5712  0.1602 -0.4057
  159SAPE  H16X17861   1.825   3.603   8.571  1.0761  0.1990 -0.3565
  159SAPE  H16Y17862   1.848   3.696   8.412 -0.3846  0.3409 -0.2739
  159SAPE  C31717863   1.965   3.517   8.436 -0.4422  0.6466 -0.2285
  159SAPE  H17X17864   1.991   3.532   8.329  0.0807  0.0919 -0.1795
  159SAPE  H17Y17865   1.944   3.409   8.452  0.4122  0.4242 -0.5832
  159SAPE  C31817866   2.076   3.560   8.528  0.3488 -0.1085  0.5582
  159SAPE  H18X17867   2.107   3.665   8.514 -0.2732 -0.0608 -0.4670
  159SAPE  H18Y17868   2.167   3.498   8.515 -1.0947 -2.2159  0.2025
  159SAPE  H18Z17869   2.043   3.546   8.634  1.0200 -0.6379  0.6984
  160SAPE     N17870   0.180   5.434   6.257 -0.4150  0.5290 -0.1735
  160SAPE   HN117871   0.186   5.333   6.230 -0.2788  0.7956 -1.1439
  160SAPE   HN217872   0.101   5.483   6.211  0.9543 -0.0093 -3.2104
  160SAPE   HN317873   0.267   5.483   6.227  0.7684 -1.3895  0.0299
  160SAPE   C1217874   0.159   5.437   6.406 -0.4398  0.0039 -0.5181
  160SAPE  H12A17875   0.058   5.394   6.424  0.5690 -1.8763  0.7987
  160SAPE  H12B17876   0.158   5.541   6.447  1.1632 -0.8518  1.8177
  160SAPE   C1117877   0.241   5.336   6.485 -0.1725 -0.6037 -0.6408
  160SAPE  H11A17878   0.233   5.335   6.595 -1.8489  0.0212 -0.7440
  160SAPE  H11B17879   0.348   5.364   6.478 -0.6918  1.5816 -0.3577
  160SAPE     P17880   0.113   5.106   6.477  0.6448  0.1401  0.4644
  160SAPE   O1317881  -0.017   5.178   6.472 -0.1900  0.2105 -0.6466
  160SAPE   O1417882   0.121   4.979   6.395  0.3079 -0.3589  0.5267
  160SAPE   O1217883   0.238   5.203   6.440  0.7382 -0.0109  0.0143
  160SAPE   O1117884   0.150   5.065   6.627 -0.3680  0.3586  0.2426
  160SAPE    C117885   0.274   5.031   6.681  0.3452 -0.0202 -0.2261
  160SAPE    HA17886   0.355   5.079   6.621  1.2752 -0.1750  0.8840
  160SAPE    HB17887   0.278   5.069   6.785  0.0377 -0.8005  0.0722
  160SAPE    C217888   0.317   4.885   6.695 -1.1477 -0.5275  0.2318
  160SAPE    HS17889   0.332   4.852   6.590  0.7261  0.7393  0.0726
  160SAPE   O2117890   0.213   4.808   6.751 -0.1249 -0.4276  0.0692
  160SAPE   C2117891   0.233   4.678   6.719 -0.1943  0.3456 -0.3680
  160SAPE   O2217892   0.336   4.627   6.686 -0.5951  0.1941  0.3698
  160SAPE   C2217893   0.105   4.612   6.754 -1.1556 -0.4894 -0.1517
  160SAPE   H2R17894   0.025   4.690   6.755 -0.3346  0.3837 -1.2299
  160SAPE   H2S17895   0.079   4.527   6.686  0.7634  0.2310 -1.8331
  160SAPE    C317896   0.450   4.879   6.777  0.0110 -0.7775  0.0817
  160SAPE    HX17897   0.523   4.937   6.717  1.3073  0.5643  2.8477
  160SAPE    HY17898   0.491   4.776   6.781 -1.6429 -1.4488  0.2011
  160SAPE   O3117899   0.433   4.943   6.908 -0.3960 -0.2696 -0.0109
  160SAPE   C3117900   0.480   4.865   7.004 -0.6014  0.7644  0.9649
  160SAPE   O3217901   0.518   4.748   6.998  0.0403  0.5883 -0.3712
  160SAPE   C3217902   0.449   4.928   7.142  0.3054 -0.6342  0.2172
  160SAPE   H2X17903   0.346   4.894   7.165 -1.4414  3.4331 -1.1413
  160SAPE   H2Y17904   0.451   5.039   7.130  1.9477 -0.6349  0.4152
  160SAPE   C2317905   0.114   4.548   6.894  0.1982  0.5604  0.6912
  160SAPE   H3R17906   0.183   4.462   6.888 -0.0707  0.4441 -0.8064
  160SAPE   H3S17907   0.014   4.509   6.921 -0.8289  2.1137 -0.7451
  160SAPE   C2417908   0.168   4.634   7.011 -0.1076  0.4990 -0.2356
  160SAPE   H4R17909   0.266   4.679   6.983  0.0395  0.6809  0.5631
  160SAPE   H4S17910   0.178   4.578   7.106 -0.9694  1.5533  0.4695
  160SAPE   C2517911   0.079   4.748   7.040  0.3282  0.1852 -0.3263
  160SAPE   H5R17912   0.061   4.813   6.953 -1.7423 -0.2591 -0.2667
  160SAPE   C2617913   0.044   4.798   7.160 -0.6104  0.2507  0.6608
  160SAPE   H6R17914  -0.013   4.892   7.164 -0.1763  0.5229  0.4620
  160SAPE   C2717915   0.075   4.733   7.299 -0.0046  0.3098  0.3384
  160SAPE   H7R17916   0.186   4.737   7.310  0.0229  1.9701 -0.3745
  160SAPE   H7S17917   0.042   4.627   7.295 -0.1129  0.3314  0.6419
  160SAPE   C2817918   0.003   4.800   7.406 -0.0978  0.4531 -0.2432
  160SAPE   H8R17919  -0.069   4.879   7.380 -1.0447  0.0358  1.0634
  160SAPE   C2917920   0.028   4.781   7.536  0.2297 -0.3430 -0.0644
  160SAPE   H9R17921  -0.021   4.843   7.613  1.9925  0.6419  0.2814
  160SAPE  C21017922   0.137   4.691   7.590  0.4443 -1.4356 -0.2476
  160SAPE  H10R17923   0.172   4.622   7.511 -1.9231 -2.1298 -0.7338
  160SAPE  H10S17924   0.080   4.630   7.663 -1.0127  2.0515  1.6798
  160SAPE  C21117925   0.241   4.780   7.652  0.1318 -0.2251 -0.5778
  160SAPE  H11R17926   0.285   4.855   7.584  3.4326 -2.1637 -0.6622
  160SAPE  C21217927   0.281   4.788   7.779  0.2073 -0.0484  0.1165
  160SAPE  H12R17928   0.351   4.868   7.806  0.3170  0.3946 -1.4043
  160SAPE  C21317929   0.237   4.704   7.894  0.8408 -0.2836 -0.0648
  160SAPE  H13R17930   0.328   4.683   7.954  0.8541 -2.8696 -0.8952
  160SAPE  H13S17931   0.187   4.610   7.859  1.3405 -0.9009  0.8643
  160SAPE  C21417932   0.138   4.761   7.979  0.2496 -0.6977  0.3586
  160SAPE  H14R17933   0.037   4.729   7.949 -0.4473  2.4140 -0.8720
  160SAPE  C21517934   0.166   4.830   8.089 -0.5435  1.1860 -0.3526
  160SAPE  H15R17935   0.086   4.860   8.157  0.1681  1.6079  0.3158
  160SAPE  C21617936   0.309   4.874   8.130  0.0029  0.5346  0.1226
  160SAPE  H16R17937   0.314   4.968   8.187  0.0674  0.6745 -0.1108
  160SAPE  H16S17938   0.369   4.894   8.038  1.9119 -1.6315  0.8273
  160SAPE  C21717939   0.373   4.770   8.223 -0.1686 -0.2009  0.5574
  160SAPE  H17R17940   0.482   4.779   8.247 -0.1153 -0.0552  0.2579
  160SAPE  H17S17941   0.368   4.674   8.166  5.5306  0.9262 -2.2663
  160SAPE  C21817942   0.294   4.764   8.357  0.0782  0.8688 -0.9426
  160SAPE  H18R17943   0.195   4.724   8.328  0.6779 -2.8413  1.8333
  160SAPE  H18S17944   0.290   4.870   8.392  0.6924  0.6129 -0.0848
  160SAPE  C21917945   0.351   4.667   8.465 -0.3478 -0.0679  0.4277
  160SAPE  H19R17946   0.347   4.563   8.424 -4.8455  0.2312 -0.1350
  160SAPE  H19S17947   0.286   4.673   8.555  1.5003 -1.0564  1.8568
  160SAPE  C22017948   0.497   4.708   8.512 -0.0578 -0.2242 -0.4322
  160SAPE  H20R17949   0.566   4.702   8.425  2.9744  1.7801  1.7423
  160SAPE  H20S17950   0.523   4.629   8.587  0.1951 -0.2738 -0.5726
  160SAPE  H20T17951   0.503   4.811   8.553  1.0960 -0.7003  0.6086
  160SAPE   C3317952   0.545   4.884   7.251  0.0931 -0.4716 -0.6271
  160SAPE   H3X17953   0.653   4.895   7.225  0.7121 -1.0827  1.5963
  160SAPE   H3Y17954   0.537   4.774   7.260  0.2719 -0.4460 -0.1745
  160SAPE   C3417955   0.523   4.947   7.394  0.2028 -0.1249 -0.1664
  160SAPE   H4X17956   0.429   4.919   7.447 -0.2008  1.1045 -0.2161
  160SAPE   H4Y17957   0.507   5.056   7.384 -1.8819 -0.2302  1.5889
  160SAPE   C3517958   0.641   4.916   7.492  0.8200 -0.0229 -0.8921
  160SAPE   H5X17959   0.705   5.006   7.485  0.6790  0.0079 -2.0188
  160SAPE   H5Y17960   0.709   4.837   7.455 -0.5711 -2.0214  0.7184
  160SAPE   C3617961   0.590   4.886   7.637 -0.0971  0.3949  0.4860
  160SAPE   H6X17962   0.555   4.781   7.650 -2.0217  0.6527 -2.1697
  160SAPE   H6Y17963   0.510   4.959   7.660  0.3668  0.9069  0.4742
  160SAPE   C3717964   0.712   4.915   7.734  0.1626  0.2791 -0.2729
  160SAPE   H7X17965   0.752   5.017   7.715  0.2388  0.8379  2.6271
  160SAPE   H7Y17966   0.788   4.845   7.693 -0.9350  0.0151 -1.9204
  160SAPE   C3817967   0.676   4.892   7.879  0.1399  0.0975  0.8210
  160SAPE   H8X17968   0.647   4.786   7.894  0.8262 -0.0489  1.1379
  160SAPE   H8Y17969   0.590   4.956   7.911  0.1240  0.7408 -0.4785
  160SAPE   C3917970   0.807   4.910   7.966 -0.4128  0.1772 -0.3928
  160SAPE   H9X17971   0.863   4.995   7.919  0.7694 -0.5647 -0.3541
  160SAPE   H9Y17972   0.870   4.819   7.952 -1.4974 -0.3245 -2.2061
  160SAPE  C31017973   0.780   4.941   8.114 -0.5481 -0.1874 -0.4540
  160SAPE  H10X17974   0.710   4.865   8.155 -2.4592  1.5017 -0.5506
  160SAPE  H10Y17975   0.727   5.038   8.124  0.3687  0.4540 -1.6774
  160SAPE  C31117976   0.911   4.944   8.191 -1.2212 -0.5511 -0.0173
  160SAPE  H11X17977   0.973   5.028   8.153  2.0800 -2.0955  1.7480
  160SAPE  H11Y17978   0.970   4.852   8.172  0.0708  0.3333 -0.3032
  160SAPE  C31217979   0.891   4.969   8.342 -0.0405  0.0611 -0.2753
  160SAPE  H12X17980   0.994   4.970   8.383 -1.0846 -2.0842  2.5766
  160SAPE  H12Y17981   0.833   4.889   8.393 -1.7355  1.3205 -0.1760
  160SAPE  C31317982   0.835   5.114   8.369  1.0530  0.1815 -0.3825
  160SAPE  H13X17983   0.807   5.110   8.477  2.4365  2.1028  0.0863
  160SAPE  H13Y17984   0.732   5.126   8.330 -0.2957 -2.2925  2.2099
  160SAPE  C31417985   0.932   5.230   8.368  0.5705 -0.6494  0.1654
  160SAPE  H14X17986   0.967   5.241   8.263 -0.6832 -3.2572 -0.5825
  160SAPE  H14Y17987   1.025   5.213   8.426  1.2265 -1.6093 -1.1241
  160SAPE  C31517988   0.856   5.360   8.412  0.4284  0.2270 -0.0076
  160SAPE  H15X17989   0.775   5.372   8.338 -0.4754 -0.5115  0.8510
  160SAPE  H15Y17990   0.934   5.435   8.388  0.4345 -0.3927 -2.0300
  160SAPE  C31617991   0.827   5.380   8.563 -0.2689 -0.3704  0.0959
  160SAPE  H16X17992   0.923   5.355   8.613 -1.1165 -2.0589  0.9282
  160SAPE  H16Y17993   0.745   5.314   8.599 -0.9792  0.8602  0.7659
  160SAPE  C31717994   0.769   5.520   8.596  1.0610  0.0919  0.4940
  160SAPE  H17X17995   0.678   5.536   8.535  1.1394 -0.4841  0.2278
  160SAPE  H17Y17996   0.857   5.581   8.565  0.6835  0.7269  0.6740
  160SAPE  C31817997   0.743   5.541   8.746 -0.3658  0.8321 -0.4009
  160SAPE  H18X17998   0.679   5.455   8.775  0.8205 -0.0938 -0.4879
  160SAPE  H18Y17999   0.696   5.641   8.760 -1.3787  0.4015 -0.7449
  160SAPE  H18Z18000   0.846   5.535   8.788  0.1661 -0.9914 -1.8753
  161SAPE     N18001   3.313   3.305   6.118 -0.1326 -0.0029 -0.2687
  161SAPE   HN118002   3.326   3.348   6.024  0.7362 -0.0157 -0.1616
  161SAPE   HN218003   3.309   3.202   6.106  1.2951 -0.2611  1.4041
  161SAPE   HN318004   3.227   3.345   6.161 -2.0949 -0.5259 -3.5256
  161SAPE   C1218005   3.435   3.315   6.205 -0.2845  0.0118 -0.8427
  161SAPE  H12A18006   3.451   3.422   6.230  2.4822 -0.4129 -0.6683
  161SAPE  H12B18007   3.523   3.280   6.148 -0.3769 -1.7289  0.0293
  161SAPE   C1118008   3.434   3.229   6.336  0.8226 -0.1887 -0.0697
  161SAPE  H11A18009   3.376   3.276   6.418 -0.2997 -1.9125  0.1646
  161SAPE  H11B18010   3.540   3.220   6.367  0.6849 -2.7242 -0.1616
  161SAPE     P18011   3.437   2.973   6.383 -0.1590  0.4087  0.0856
  161SAPE   O1318012   3.528   2.894   6.284 -0.2161 -0.3786 -1.2798
  161SAPE   O1418013   3.493   3.013   6.510  0.0673  0.4556  0.1247
  161SAPE   O1218014   3.373   3.102   6.313  0.0915  0.5450  0.1120
  161SAPE   O1118015   3.300   2.889   6.403  0.0976 -0.2008  0.3655
  161SAPE    C118016   3.189   2.947   6.471  0.1157  0.6461 -0.0756
  161SAPE    HA18017   3.207   3.054   6.496  2.5186  0.9637 -2.8662
  161SAPE    HB18018   3.100   2.952   6.405 -0.1581  0.8975  0.3062
  161SAPE    C218019   3.146   2.850   6.587 -0.3559  0.7521  0.1314
  161SAPE    HS18020   3.126   2.757   6.529 -0.5980  0.5200  0.5820
  161SAPE   O2118021   3.031   2.905   6.646  0.3424  0.3758  0.1342
  161SAPE   C2118022   2.942   2.830   6.713  0.3202 -0.5051  0.0949
  161SAPE   O2218023   2.941   2.705   6.709  0.1659 -0.4614  0.5155
  161SAPE   C2218024   2.851   2.919   6.795  0.1810 -0.1336 -0.3718
  161SAPE   H2R18025   2.913   2.981   6.862  0.4690 -0.5872 -0.2175
  161SAPE   H2S18026   2.795   2.989   6.728 -2.6152  0.8116  2.8226
  161SAPE    C318027   3.264   2.826   6.689  0.4862 -0.2178 -0.1362
  161SAPE    HX18028   3.268   2.918   6.750  0.3746 -0.3717  0.1025
  161SAPE    HY18029   3.354   2.821   6.624  1.5461 -2.2799  1.3948
  161SAPE   O3118030   3.264   2.702   6.758  0.3437 -0.0221 -0.1843
  161SAPE   C3118031   3.220   2.701   6.881  0.1821 -0.4621  0.6053
  161SAPE   O3218032   3.200   2.796   6.951  1.0115  0.0795 -0.3619
  161SAPE   C3218033   3.214   2.550   6.918  0.4837 -0.0975  0.7183
  161SAPE   H2X18034   3.321   2.523   6.906  0.0636 -0.4835 -2.4605
  161SAPE   H2Y18035   3.158   2.497   6.839  1.5921 -0.6113  0.2616
  161SAPE   C2318036   2.747   2.846   6.871  0.3266 -0.5235 -0.3714
  161SAPE   H3R18037   2.803   2.768   6.927  1.6292 -0.8442 -2.0700
  161SAPE   H3S18038   2.691   2.797   6.789 -0.3340  0.0864 -0.2817
  161SAPE   C2418039   2.661   2.950   6.954 -0.8282 -0.2577  0.3405
  161SAPE   H4R18040   2.625   3.031   6.887 -1.6503 -1.6952 -0.9783
  161SAPE   H4S18041   2.724   2.990   7.036 -0.4194 -0.1202 -0.0426
  161SAPE   C2518042   2.540   2.876   7.002 -0.3517  0.3091 -0.0478
  161SAPE   H5R18043   2.479   2.834   6.921 -1.3366 -1.7868  1.7335
  161SAPE   C2618044   2.508   2.838   7.132  0.4841 -0.4381  0.2444
  161SAPE   H6R18045   2.413   2.788   7.153  0.9552 -1.6909 -0.5372
  161SAPE   C2718046   2.594   2.871   7.256 -0.3278  0.3504 -0.2732
  161SAPE   H7R18047   2.680   2.934   7.226  1.1699 -1.6650 -0.2608
  161SAPE   H7S18048   2.635   2.776   7.296 -0.9601 -0.3954 -1.3367
  161SAPE   C2818049   2.502   2.948   7.351  0.9307  0.1613  0.1726
  161SAPE   H8R18050   2.447   3.029   7.301 -1.9041 -2.7071 -1.5442
  161SAPE   C2918051   2.489   2.935   7.482 -0.2596  0.4710 -0.4918
  161SAPE   H9R18052   2.403   2.982   7.531 -0.8769 -1.7171  0.5573
  161SAPE  C21018053   2.571   2.834   7.565 -0.1774  0.1251  0.0275
  161SAPE  H10R18054   2.630   2.895   7.637 -0.3348 -1.0092  1.1295
  161SAPE  H10S18055   2.628   2.759   7.506  1.4420  2.3743 -1.3430
  161SAPE  C21118056   2.464   2.765   7.647 -0.0648 -0.7291 -0.2031
  161SAPE  H11R18057   2.409   2.685   7.595  0.8936 -2.6874  1.6793
  161SAPE  C21218058   2.424   2.786   7.772 -0.8008  0.0606 -0.1792
  161SAPE  H12R18059   2.341   2.730   7.817 -0.5482  0.1510  0.3926
  161SAPE  C21318060   2.482   2.894   7.861  0.2919  0.3414 -0.1141
  161SAPE  H13R18061   2.492   2.993   7.810 -0.0705 -0.2775 -1.4201
  161SAPE  H13S18062   2.582   2.860   7.893  1.1158  0.0101 -2.8608
  161SAPE  C21418063   2.397   2.917   7.981 -0.1815  0.0060 -0.0206
  161SAPE  H14R18064   2.297   2.956   7.958 -0.7770 -2.9170 -2.7428
  161SAPE  C21518065   2.423   2.911   8.116  0.4514  0.2686  0.0561
  161SAPE  H15R18066   2.352   2.959   8.185  0.2572 -1.3814  1.0217
  161SAPE  C21618067   2.551   2.873   8.196  0.0880  0.0486 -0.2799
  161SAPE  H16R18068   2.592   2.958   8.254  1.3172  0.7431 -2.1395
  161SAPE  H16S18069   2.631   2.843   8.125  0.4857 -1.6160  0.8446
  161SAPE  C21718070   2.534   2.756   8.298  0.0982 -0.3187  0.2090
  161SAPE  H17R18071   2.457   2.685   8.261 -1.1027 -0.1936  2.4054
  161SAPE  H17S18072   2.496   2.810   8.387  2.1572 -1.3293  1.7586
  161SAPE  C21818073   2.673   2.698   8.339 -0.4335 -0.1919 -0.6274
  161SAPE  H18R18074   2.732   2.777   8.389  0.1253 -1.3623  0.5895
  161SAPE  H18S18075   2.722   2.647   8.254  0.7006 -1.2581  0.6498
  161SAPE  C21918076   2.662   2.594   8.449  0.1673  1.3836  0.6997
  161SAPE  H19R18077   2.589   2.515   8.420  0.3052  1.5970 -0.2514
  161SAPE  H19S18078   2.618   2.629   8.545 -2.9767 -0.0008 -0.1491
  161SAPE  C22018079   2.797   2.516   8.479 -0.2802 -0.6487 -0.1926
  161SAPE  H20R18080   2.841   2.497   8.378 -1.7398  1.5688 -1.2871
  161SAPE  H20S18081   2.788   2.424   8.540  2.8439 -0.8258  0.0649
  161SAPE  H20T18082   2.862   2.573   8.549 -0.4809  0.2595 -0.7342
  161SAPE   C3318083   3.155   2.540   7.059 -0.0355 -0.2508  1.1274
  161SAPE   H3X18084   3.123   2.434   7.064 -0.2003 -0.3368 -1.1722
  161SAPE   H3Y18085   3.065   2.603   7.079  1.1698  2.2250 -0.9343
  161SAPE   C3418086   3.255   2.575   7.168 -0.2603  0.2843  0.3376
  161SAPE   H4X18087   3.277   2.683   7.172 -1.5728  0.5188  1.6252
  161SAPE   H4Y18088   3.345   2.512   7.150 -0.8781 -0.4425 -0.2832
  161SAPE   C3518089   3.199   2.539   7.308 -0.1611  0.3291 -0.5224
  161SAPE   H5X18090   3.174   2.432   7.319 -2.1340  1.0415  2.7712
  161SAPE   H5Y18091   3.098   2.584   7.310 -0.6007 -0.6707  0.4327
  161SAPE   C3618092   3.271   2.573   7.431 -0.3789  0.6086  0.2046
  161SAPE   H6X18093   3.261   2.683   7.437  3.5766  1.0402  0.1719
  161SAPE   H6Y18094   3.378   2.543   7.437 -1.6932 -4.5248  0.2486
  161SAPE   C3718095   3.209   2.514   7.561  0.1682  0.1538  0.4122
  161SAPE   H7X18096   3.229   2.404   7.558 -0.4936  0.0008  1.2879
  161SAPE   H7Y18097   3.100   2.531   7.556 -0.0774 -0.9035  1.7419
  161SAPE   C3818098   3.262   2.574   7.686 -0.6878 -0.7651 -0.1069
  161SAPE   H8X18099   3.231   2.680   7.682  1.2196 -0.1980 -0.7367
  161SAPE   H8Y18100   3.373   2.576   7.677 -0.5510 -4.7813 -0.2771
  161SAPE   C3918101   3.213   2.519   7.816  0.1866  0.2461 -0.3921
  161SAPE   H9X18102   3.257   2.418   7.832  1.9015  1.0656  0.1749
  161SAPE   H9Y18103   3.104   2.505   7.799  0.2216 -3.2440  1.7762
  161SAPE  C31018104   3.244   2.600   7.945  0.2483 -0.3898 -0.4028
  161SAPE  H10X18105   3.198   2.700   7.926  0.6524  0.1736  1.5142
  161SAPE  H10Y18106   3.352   2.616   7.964 -0.1405  0.4808  1.1537
  161SAPE  C31118107   3.192   2.535   8.068 -0.1569 -0.0963 -0.4850
  161SAPE  H11X18108   3.209   2.425   8.073 -0.6719 -0.1161  0.9507
  161SAPE  H11Y18109   3.081   2.539   8.073 -0.2023  0.6631 -1.7767
  161SAPE  C31218110   3.234   2.605   8.202  0.1429  1.0085 -0.2932
  161SAPE  H12X18111   3.194   2.709   8.202 -1.5336  0.3914  1.0445
  161SAPE  H12Y18112   3.343   2.589   8.207  0.2150  1.8460  0.9365
  161SAPE  C31318113   3.173   2.530   8.320  0.4942 -0.2857  0.1911
  161SAPE  H13X18114   3.185   2.420   8.310 -0.6470 -0.2354 -1.9463
  161SAPE  H13Y18115   3.063   2.546   8.327  0.3163 -1.1071 -0.7301
  161SAPE  C31418116   3.227   2.578   8.456 -0.1431 -0.6697  0.1450
  161SAPE  H14X18117   3.182   2.527   8.544 -1.0224 -2.5775 -1.3721
  161SAPE  H14Y18118   3.198   2.685   8.466 -2.7730 -1.3637  0.3568
  161SAPE  C31518119   3.382   2.571   8.461  0.5593 -0.7266 -0.4371
  161SAPE  H15X18120   3.409   2.626   8.554 -3.3589 -1.1549  1.0514
  161SAPE  H15Y18121   3.432   2.622   8.375 -1.3232  1.5757 -0.2272
  161SAPE  C31618122   3.441   2.434   8.457  0.7307  0.0895 -0.3383
  161SAPE  H16X18123   3.549   2.431   8.431  0.3124  0.6410 -2.2073
  161SAPE  H16Y18124   3.387   2.377   8.377 -0.2357 -2.1654  1.8623
  161SAPE  C31718125   3.423   2.363   8.586  0.2317 -0.0018  0.1092
  161SAPE  H17X18126   3.319   2.366   8.624  0.4627 -2.1198  0.9508
  161SAPE  H17Y18127   3.482   2.406   8.670  1.8907  0.1818 -1.1189
  161SAPE  C31818128   3.449   2.211   8.568  0.0529 -0.3111  0.8501
  161SAPE  H18X18129   3.385   2.171   8.486  1.2243 -1.7850  0.6298
  161SAPE  H18Y18130   3.460   2.142   8.653  3.4177  0.2282  0.9525
  161SAPE  H18Z18131   3.549   2.196   8.521 -0.7789 -1.4494 -0.6223
  162SAPE     N18132   1.262   5.587   5.783 -0.3930  0.2159  0.4942
  162SAPE   HN118133   1.305   5.595   5.689 -3.2865 -1.6644 -1.0939
  162SAPE   HN218134   1.162   5.614   5.774 -0.7895 -0.7967  1.6541
  162SAPE   HN318135   1.308   5.663   5.836 -0.1351  1.3574 -1.3262
  162SAPE   C1218136   1.278   5.446   5.841 -0.4311 -0.5378 -0.9651
  162SAPE  H12A18137   1.212   5.380   5.780 -0.6333  0.1317 -1.4706
  162SAPE  H12B18138   1.244   5.443   5.947  0.6880 -0.5063 -0.5959
  162SAPE   C1118139   1.421   5.394   5.829 -0.0322  0.1476  0.2260
  162SAPE  H11A18140   1.465   5.398   5.727  0.7557  0.6465  0.5820
  162SAPE  H11B18141   1.419   5.290   5.866  0.6736  0.2308  0.4934
  162SAPE     P18142   1.648   5.412   5.952 -0.0954 -0.0025 -0.2329
  162SAPE   O1318143   1.690   5.307   5.857  0.0151  0.4289  0.0464
  162SAPE   O1418144   1.749   5.519   5.970 -0.3700  0.6812 -0.1839
  162SAPE   O1218145   1.518   5.470   5.906 -0.5656  0.3129  0.0789
  162SAPE   O1118146   1.617   5.335   6.090  0.5215 -0.0315 -0.0113
  162SAPE    C118147   1.498   5.350   6.169 -0.6745 -0.9690 -0.1725
  162SAPE    HA18148   1.407   5.325   6.110 -0.0821 -1.7358 -0.7853
  162SAPE    HB18149   1.496   5.273   6.250 -0.6305  2.3075  3.0640
  162SAPE    C218150   1.499   5.484   6.248 -0.7063 -0.6995  0.7609
  162SAPE    HS18151   1.530   5.562   6.175 -1.0636 -1.1838  0.0857
  162SAPE   O2118152   1.597   5.462   6.354  0.4746  0.3967 -0.4074
  162SAPE   C2118153   1.670   5.571   6.384  0.8189  0.2207 -0.6667
  162SAPE   O2218154   1.674   5.674   6.320  0.1252 -0.6261  0.3593
  162SAPE   C2218155   1.742   5.550   6.511  0.7487 -0.0075  0.1007
  162SAPE   H2R18156   1.678   5.588   6.593  1.8692  2.4695 -0.1473
  162SAPE   H2S18157   1.766   5.443   6.533 -1.6614 -0.7692 -0.7790
  162SAPE    C318158   1.353   5.528   6.289 -0.0351  0.6857 -0.3883
  162SAPE    HX18159   1.299   5.436   6.321 -0.8989  1.2830 -0.1316
  162SAPE    HY18160   1.300   5.571   6.202 -0.7650  1.3648  0.3805
  162SAPE   O3118161   1.351   5.617   6.405  0.4368  0.8180  0.2168
  162SAPE   C3118162   1.375   5.737   6.363 -0.2613 -0.0459  0.1576
  162SAPE   O3218163   1.401   5.772   6.247 -0.0997  0.1243  0.1217
  162SAPE   C3218164   1.378   5.839   6.484  0.1237 -0.4775  0.3443
  162SAPE   H2X18165   1.273   5.833   6.521 -0.9033  0.8493 -2.1806
  162SAPE   H2Y18166   1.396   5.935   6.430  0.0196  1.4101  3.5383
  162SAPE   C2318167   1.884   5.620   6.515  0.3611  0.0906 -0.4692
  162SAPE   H3R18168   1.882   5.727   6.486 -2.6359  0.4673  0.9384
  162SAPE   H3S18169   1.949   5.574   6.437  2.3272  1.3751  0.3608
  162SAPE   C2418170   1.953   5.605   6.652  0.0253  0.1734 -0.1790
  162SAPE   H4R18171   2.057   5.641   6.637 -0.7744  3.3818  1.4001
  162SAPE   H4S18172   1.959   5.495   6.665  1.0103 -0.2649 -3.7275
  162SAPE   C2518173   1.902   5.680   6.774 -0.3619  0.2063  0.2429
  162SAPE   H5R18174   1.901   5.789   6.758  2.0803  0.4754  1.6393
  162SAPE   C2618175   1.860   5.635   6.901 -0.5637 -0.3384  0.3549
  162SAPE   H6R18176   1.824   5.710   6.972 -1.6948  2.4408 -3.0351
  162SAPE   C2718177   1.868   5.496   6.951  0.6026 -0.2730 -0.9607
  162SAPE   H7R18178   1.945   5.480   7.030  1.3905  0.6496 -1.5355
  162SAPE   H7S18179   1.890   5.412   6.881  1.7986  0.3928 -1.3931
  162SAPE   C2818180   1.731   5.464   7.018  0.7622 -0.6291  0.2763
  162SAPE   H8R18181   1.645   5.465   6.948  0.1766  2.1456  0.9609
  162SAPE   C2918182   1.707   5.426   7.144  0.1879 -0.2663  0.3349
  162SAPE   H9R18183   1.610   5.384   7.174 -0.2405 -0.5326 -1.3405
  162SAPE  C21018184   1.819   5.417   7.242  0.8386  0.4156  0.2808
  162SAPE  H10R18185   1.909   5.376   7.190 -0.3677 -2.6535  0.5430
  162SAPE  H10S18186   1.794   5.329   7.304 -1.4541  1.5230  0.9669
  162SAPE  C21118187   1.864   5.540   7.321  0.2305  1.0119 -0.1298
  162SAPE  H11R18188   1.823   5.634   7.281 -0.7656  1.6860  2.3863
  162SAPE  C21218189   1.930   5.540   7.439 -0.4191  0.3759  0.2264
  162SAPE  H12R18190   1.940   5.633   7.497  1.0874  0.5155 -0.2325
  162SAPE  C21318191   1.975   5.418   7.516  0.1948  0.1604 -0.5026
  162SAPE  H13R18192   1.960   5.324   7.459  1.4433  0.4521 -1.3378
  162SAPE  H13S18193   1.934   5.419   7.619  1.6607 -0.5625  0.1094
  162SAPE  C21418194   2.125   5.439   7.533 -0.5084 -0.7209  0.0342
  162SAPE  H14R18195   2.171   5.406   7.439 -0.3197 -2.5318  0.7458
  162SAPE  C21518196   2.195   5.479   7.634 -0.0920 -0.9986 -0.2116
  162SAPE  H15R18197   2.303   5.466   7.622 -0.0756 -2.0079  0.9731
  162SAPE  C21618198   2.144   5.526   7.767  0.2702  0.7643  0.0097
  162SAPE  H16R18199   2.043   5.569   7.753  0.3184  0.7954 -0.2524
  162SAPE  H16S18200   2.207   5.608   7.809 -0.2583  1.0005  0.3391
  162SAPE  C21718201   2.136   5.422   7.886 -0.1126  0.3126 -0.5832
  162SAPE  H17R18202   2.096   5.479   7.972 -0.8492  2.2335 -2.1763
  162SAPE  H17S18203   2.244   5.397   7.895  0.4025  2.2056 -1.2331
  162SAPE  C21818204   2.059   5.289   7.844 -0.1550  0.5855  0.9546
  162SAPE  H18R18205   2.104   5.255   7.749 -1.4280 -1.3535  1.0137
  162SAPE  H18S18206   1.950   5.308   7.832  0.0580  1.1718 -0.0911
  162SAPE  C21918207   2.078   5.169   7.933  0.2730  0.3335  0.3015
  162SAPE  H19R18208   2.181   5.134   7.911  0.1618 -0.4825  1.0287
  162SAPE  H19S18209   2.015   5.086   7.895  1.9542  0.1650 -2.2051
  162SAPE  C22018210   2.069   5.193   8.082  0.5867  0.5239  0.1950
  162SAPE  H20R18211   1.984   5.256   8.114  0.1181  0.0082 -0.0189
  162SAPE  H20S18212   2.158   5.256   8.105  1.7469 -1.3714  1.0579
  162SAPE  H20T18213   2.078   5.094   8.131  0.7662  0.2544 -0.3734
  162SAPE   C3318214   1.481   5.806   6.590  0.4522 -0.5617 -0.0028
  162SAPE   H3X18215   1.586   5.819   6.556  0.1941  0.2358 -0.5107
  162SAPE   H3Y18216   1.460   5.707   6.636 -0.7327  0.3117  1.4053
  162SAPE   C3418217   1.461   5.906   6.708  0.5134  0.3295 -0.4867
  162SAPE   H4X18218   1.359   5.881   6.743  0.5935  2.1302  1.1556
  162SAPE   H4Y18219   1.481   6.011   6.676  3.6622 -0.0562  0.0011
  162SAPE   C3518220   1.553   5.869   6.824 -0.2648 -0.4118  0.0323
  162SAPE   H5X18221   1.659   5.899   6.809 -0.0932  0.0887  2.0216
  162SAPE   H5Y18222   1.552   5.761   6.851  1.1301 -0.4022  0.1615
  162SAPE   C3618223   1.507   5.936   6.950 -0.1258 -0.4104  0.0148
  162SAPE   H6X18224   1.400   5.909   6.966 -0.3830  0.7766  0.2903
  162SAPE   H6Y18225   1.520   6.046   6.950  0.7731 -0.4936 -2.1420
  162SAPE   C3718226   1.590   5.885   7.071 -0.0100 -0.1052  0.7446
  162SAPE   H7X18227   1.697   5.909   7.058 -1.0770  3.8038 -1.7005
  162SAPE   H7Y18228   1.583   5.774   7.083 -1.7678  0.0286  1.0680
  162SAPE   C3818229   1.542   5.941   7.205 -0.5009 -0.4468  0.1538
  162SAPE   H8X18230   1.431   5.934   7.205 -0.5460  0.1345  1.4513
  162SAPE   H8Y18231   1.559   6.049   7.223 -2.0809 -0.0991 -0.3798
  162SAPE   C3918232   1.611   5.864   7.325 -0.0297 -0.4988  0.0811
  162SAPE   H9X18233   1.722   5.866   7.316  0.0303  1.9718  1.0084
  162SAPE   H9Y18234   1.588   5.756   7.316 -0.3745 -0.5204  1.2084
  162SAPE  C31018235   1.572   5.909   7.464 -0.3163 -0.7129  0.5940
  162SAPE  H10X18236   1.468   5.950   7.465  0.5592  1.5964  0.6699
  162SAPE  H10Y18237   1.640   5.997   7.465  0.4826 -1.3413  1.0973
  162SAPE  C31118238   1.606   5.809   7.571 -0.6464  0.6374 -0.0106
  162SAPE  H11X18239   1.705   5.765   7.543 -2.1257 -2.2046 -0.9518
  162SAPE  H11Y18240   1.521   5.737   7.576 -2.4180  2.8009  1.8348
  162SAPE  C31218241   1.618   5.870   7.718  0.2359  0.0545 -0.1875
  162SAPE  H12X18242   1.518   5.893   7.760 -0.4605 -2.2502 -0.5391
  162SAPE  H12Y18243   1.679   5.963   7.713  1.1398 -0.5704 -0.7575
  162SAPE  C31318244   1.661   5.756   7.815  0.6801  0.2305 -0.0270
  162SAPE  H13X18245   1.770   5.733   7.813  0.8698  1.1022 -0.0972
  162SAPE  H13Y18246   1.590   5.673   7.795  0.6290  0.2132  0.2264
  162SAPE  C31418247   1.606   5.792   7.952  0.2422  0.0584  0.2571
  162SAPE  H14X18248   1.496   5.801   7.933  0.5632  1.7314 -0.9171
  162SAPE  H14Y18249   1.649   5.887   7.991  0.3486 -0.0541  0.4127
  162SAPE  C31518250   1.613   5.684   8.058 -0.4890  0.3668  0.8931
  162SAPE  H15X18251   1.718   5.648   8.064 -0.7361 -1.0427 -2.1432
  162SAPE  H15Y18252   1.548   5.596   8.039 -1.2135  0.3197  3.3158
  162SAPE  C31618253   1.566   5.739   8.201 -0.6258  1.0571 -0.2033
  162SAPE  H16X18254   1.464   5.782   8.205 -1.4241 -0.7175 -0.9540
  162SAPE  H16Y18255   1.627   5.830   8.223  1.6297 -0.7795  1.4335
  162SAPE  C31718256   1.599   5.634   8.311 -0.5795  0.2411  0.4060
  162SAPE  H17X18257   1.697   5.588   8.286 -0.9488  0.7423 -2.0463
  162SAPE  H17Y18258   1.521   5.555   8.303 -0.9514  0.3747  2.4161
  162SAPE  C31818259   1.606   5.692   8.451  0.1555 -0.3600  1.1357
  162SAPE  H18X18260   1.643   5.796   8.440  1.3993 -1.0637 -2.0618
  162SAPE  H18Y18261   1.688   5.633   8.498  0.9519 -0.2118 -0.0204
  162SAPE  H18Z18262   1.511   5.675   8.505 -0.5119 -0.0546  0.0856
  163SAPE     N18263   0.077   3.290   6.734 -1.2019  0.0206 -0.3172
  163SAPE   HN118264   0.020   3.316   6.818 -0.7564 -0.5245  0.1536
  163SAPE   HN218265   0.135   3.208   6.760 -2.4836 -0.5675  0.7328
  163SAPE   HN318266   0.139   3.368   6.703 -1.6906  0.0103 -1.3459
  163SAPE   C1218267  -0.011   3.267   6.616  0.6205  0.4673 -0.8291
  163SAPE  H12A18268  -0.094   3.198   6.641  0.2708  0.7489 -1.1894
  163SAPE  H12B18269   0.053   3.242   6.529 -0.1425  0.7658 -1.4864
  163SAPE   C1118270  -0.078   3.398   6.584 -0.0437 -0.2991 -0.0690
  163SAPE  H11A18271  -0.141   3.413   6.674 -0.1177 -1.2977  0.0435
  163SAPE  H11B18272  -0.146   3.393   6.497 -0.2983  1.8012 -0.0235
  163SAPE     P18273  -0.041   3.654   6.557 -0.0285 -0.7201 -0.0583
  163SAPE   O1318274   0.059   3.738   6.636  0.4883  0.2838  0.4027
  163SAPE   O1418275  -0.060   3.701   6.417  0.0148  0.0891  0.0117
  163SAPE   O1218276   0.009   3.506   6.562  0.0247  0.6624  0.1051
  163SAPE   O1118277  -0.184   3.653   6.632  0.5801 -0.3592 -0.3551
  163SAPE    C118278  -0.226   3.741   6.735  0.2753  0.1330  0.6999
  163SAPE    HA18279  -0.159   3.830   6.730  0.2334  0.2049  1.4328
  163SAPE    HB18280  -0.332   3.767   6.714  0.0128  0.9151  2.9416
  163SAPE    C218281  -0.203   3.683   6.870  0.4686 -0.3210 -0.1039
  163SAPE    HS18282  -0.251   3.755   6.940  0.2322 -0.2565 -0.3331
  163SAPE   O2118283  -0.063   3.666   6.896  0.2691 -0.0063  0.3923
  163SAPE   C2118284  -0.008   3.775   6.944 -0.1028  0.8607 -0.5477
  163SAPE   O2218285  -0.071   3.880   6.972 -0.7040  0.0532 -0.7541
  163SAPE   C2218286   0.140   3.758   6.959  0.4644 -0.5711 -0.1848
  163SAPE   H2R18287   0.174   3.686   6.882  0.9135  0.7609 -1.2390
  163SAPE   H2S18288   0.184   3.856   6.928 -0.8508  0.5054  1.2583
  163SAPE    C318289  -0.280   3.552   6.896 -0.5962  0.3327 -0.9004
  163SAPE    HX18290  -0.270   3.475   6.816 -1.7854 -0.5979 -0.1765
  163SAPE    HY18291  -0.389   3.573   6.894 -0.7086 -0.0351  0.7285
  163SAPE   O3118292  -0.248   3.507   7.028  0.7104 -0.2321 -0.1969
  163SAPE   C3118293  -0.144   3.421   7.031  0.3855 -0.3098  0.9150
  163SAPE   O3218294  -0.084   3.385   6.927  0.0331 -0.7139  0.1564
  163SAPE   C3218295  -0.110   3.374   7.175  0.1772 -0.9192  0.4629
  163SAPE   H2X18296  -0.101   3.464   7.238 -0.4005  0.7982 -1.8368
  163SAPE   H2Y18297  -0.011   3.323   7.165  0.5795 -0.6768  3.0153
  163SAPE   C2318298   0.172   3.724   7.105  0.5113  0.1957  0.1970
  163SAPE   H3R18299   0.270   3.673   7.110 -0.8034 -2.3058  1.4355
  163SAPE   H3S18300   0.098   3.649   7.139  2.2898 -0.7742  2.0353
  163SAPE   C2418301   0.181   3.849   7.198  0.1448  0.4085  0.4949
  163SAPE   H4R18302   0.087   3.909   7.197 -1.9075 -2.6252  1.4079
  163SAPE   H4S18303   0.261   3.914   7.158  0.2683 -0.3169 -0.4547
  163SAPE   C2518304   0.209   3.807   7.342  0.9196 -0.0216 -0.3331
  163SAPE   H5R18305   0.139   3.732   7.379 -0.9681  1.4430 -0.8728
  163SAPE   C2618306   0.298   3.853   7.432  0.0550 -0.3154  0.3230
  163SAPE   H6R18307   0.306   3.801   7.528 -2.0430 -1.2763  0.0036
  163SAPE   C2718308   0.405   3.963   7.413  0.5080  0.8722 -0.2589
  163SAPE   H7R18309   0.346   4.051   7.447 -0.1982 -0.0159  0.8802
  163SAPE   H7S18310   0.429   3.976   7.306 -0.0367  0.6462 -0.4090
  163SAPE   C2818311   0.540   3.944   7.490  0.4935 -0.1887  0.7041
  163SAPE   H8R18312   0.619   3.905   7.425  1.8406  1.9742  0.9895
  163SAPE   C2918313   0.578   3.983   7.613  0.1561 -0.2335  0.6879
  163SAPE   H9R18314   0.685   3.972   7.639  0.0087  1.1393  1.9743
  163SAPE  C21018315   0.484   4.068   7.703 -0.1346  0.3575  0.4692
  163SAPE  H10R18316   0.379   4.046   7.675 -0.2748  0.6429  0.7699
  163SAPE  H10S18317   0.504   4.177   7.689 -2.1240  0.5333 -1.2972
  163SAPE  C21118318   0.485   4.043   7.846 -0.7876  0.2960  0.1973
  163SAPE  H11R18319   0.534   4.121   7.905 -3.4778  1.4023  1.0451
  163SAPE  C21218320   0.432   3.941   7.912  0.0266 -0.3822  0.3869
  163SAPE  H12R18321   0.432   3.948   8.021  0.9121 -0.0373  0.3627
  163SAPE  C21318322   0.356   3.820   7.852  0.6857  0.7340  0.4458
  163SAPE  H13R18323   0.371   3.740   7.927  2.0707  1.8194  1.3581
  163SAPE  H13S18324   0.408   3.776   7.764 -0.5664  1.7752 -0.8373
  163SAPE  C21418325   0.208   3.833   7.833  0.3782  0.5775  0.4326
  163SAPE  H14R18326   0.183   3.857   7.728  2.9519 -1.0821 -0.5951
  163SAPE  C21518327   0.105   3.815   7.921 -0.8568  0.2230 -0.2598
  163SAPE  H15R18328   0.004   3.834   7.884 -1.0444  1.5317  0.8925
  163SAPE  C21618329   0.117   3.780   8.075  0.0100  0.7605 -0.2420
  163SAPE  H16R18330   0.221   3.781   8.114  0.5190  0.1494 -1.5507
  163SAPE  H16S18331   0.058   3.690   8.100  3.5207 -1.2541  1.2323
  163SAPE  C21718332   0.055   3.900   8.147  0.0172  0.2858  0.0284
  163SAPE  H17R18333  -0.052   3.899   8.119 -0.5889  0.5184  2.2826
  163SAPE  H17S18334   0.108   3.994   8.120 -1.6457  1.3857  0.5308
  163SAPE  C21818335   0.061   3.895   8.305  0.8729 -0.2515 -0.5174
  163SAPE  H18R18336   0.166   3.927   8.327  1.3864 -2.1906 -0.0997
  163SAPE  H18S18337   0.045   3.792   8.342 -0.5520  0.8820  2.1934
  163SAPE  C21918338  -0.037   3.992   8.383  0.1264  0.2186  0.0759
  163SAPE  H19R18339   0.004   4.095   8.374 -0.8450  0.4467 -1.9393
  163SAPE  H19S18340  -0.026   3.957   8.488 -0.3947 -0.2889 -0.0329
  163SAPE  C22018341  -0.187   3.978   8.337 -0.2605  0.1577 -0.2696
  163SAPE  H20R18342  -0.256   4.015   8.416 -0.9586  1.1843 -1.3425
  163SAPE  H20S18343  -0.226   3.876   8.322 -1.1062  0.5150 -0.5190
  163SAPE  H20T18344  -0.195   4.028   8.239  0.4683 -1.0469 -0.9522
  163SAPE   C3318345  -0.213   3.268   7.229  0.1295 -0.3545  0.3799
  163SAPE   H3X18346  -0.213   3.178   7.164 -0.1119 -0.5493  0.6493
  163SAPE   H3Y18347  -0.315   3.313   7.231 -0.2292 -1.0991 -0.9103
  163SAPE   C3418348  -0.189   3.235   7.378  0.2053 -0.0678  0.4206
  163SAPE   H4X18349  -0.138   3.322   7.423  0.3944  0.2531 -0.4004
  163SAPE   H4Y18350  -0.111   3.155   7.376  1.2877  0.9727  0.2419
  163SAPE   C3518351  -0.304   3.182   7.459  0.6191  0.2783  0.6368
  163SAPE   H5X18352  -0.343   3.091   7.409  0.0367  2.1337 -2.4229
  163SAPE   H5Y18353  -0.385   3.257   7.450  0.6551  0.5687  2.4875
  163SAPE   C3618354  -0.250   3.144   7.600 -0.3866 -0.3314  0.2475
  163SAPE   H6X18355  -0.222   3.241   7.648  1.7135  0.4065 -2.3590
  163SAPE   H6Y18356  -0.155   3.087   7.594 -0.0933  0.2543 -0.7676
  163SAPE   C3718357  -0.359   3.063   7.683 -0.9951 -0.7405 -0.3149
  163SAPE   H7X18358  -0.384   2.980   7.613  1.3655 -1.9879  0.2289
  163SAPE   H7Y18359  -0.442   3.136   7.687  0.3125  0.7082  1.1110
  163SAPE   C3818360  -0.297   3.023   7.812 -0.7813  0.2402  0.2661
  163SAPE   H8X18361  -0.249   3.114   7.853  0.5465  0.7005 -2.1801
  163SAPE   H8Y18362  -0.216   2.954   7.777 -1.9150 -2.1349  2.2028
  163SAPE   C3918363  -0.385   2.955   7.916 -0.2691 -0.3975 -0.0948
  163SAPE   H9X18364  -0.394   2.847   7.890  0.3094 -0.3068 -0.6561
  163SAPE   H9Y18365  -0.483   3.008   7.922  1.2230  2.2980  1.3275
  163SAPE  C31018366  -0.324   2.971   8.058  0.2485  0.7776 -0.1226
  163SAPE  H10X18367  -0.328   3.074   8.098 -0.3082  0.8762 -0.4253
  163SAPE  H10Y18368  -0.215   2.961   8.040 -0.2301 -2.3488 -1.7520
  163SAPE  C31118369  -0.383   2.862   8.154  0.3380 -0.2237  0.3313
  163SAPE  H11X18370  -0.359   2.767   8.102  1.3066  1.0329 -1.5616
  163SAPE  H11Y18371  -0.494   2.866   8.153  0.2320 -2.7621 -1.8329
  163SAPE  C31218372  -0.325   2.864   8.294 -0.1498 -0.2288 -0.4993
  163SAPE  H12X18373  -0.379   2.944   8.347  0.5556 -0.3809  0.4502
  163SAPE  H12Y18374  -0.216   2.884   8.294 -0.3475  0.8667  0.1541
  163SAPE  C31318375  -0.346   2.739   8.378  0.6894  0.4920 -0.1848
  163SAPE  H13X18376  -0.299   2.665   8.309 -1.5688 -0.5706 -0.6327
  163SAPE  H13Y18377  -0.452   2.706   8.373  0.6685  0.9092 -3.4989
  163SAPE  C31418378  -0.295   2.749   8.523 -0.3835 -0.7035  0.1612
  163SAPE  H14X18379  -0.347   2.843   8.551 -0.0592 -0.3859 -0.3063
  163SAPE  H14Y18380  -0.186   2.769   8.521 -0.1184 -2.1341 -0.9251
  163SAPE  C31518381  -0.326   2.617   8.612  0.1909 -0.9211 -0.0247
  163SAPE  H15X18382  -0.269   2.629   8.706  1.2162 -1.6675 -0.5363
  163SAPE  H15Y18383  -0.292   2.529   8.553 -2.4945 -1.3725 -1.0023
  163SAPE  C31618384  -0.472   2.598   8.644 -0.3888 -0.2454 -0.4431
  163SAPE  H16X18385  -0.537   2.591   8.554 -0.2349  0.1346 -0.5846
  163SAPE  H16Y18386  -0.514   2.686   8.697  1.2267  0.4743 -0.3164
  163SAPE  C31718387  -0.494   2.467   8.728  0.2171  0.0084 -0.2553
  163SAPE  H17X18388  -0.601   2.459   8.756 -0.2381  1.4705 -1.4916
  163SAPE  H17Y18389  -0.431   2.474   8.819 -1.9537 -0.0396  1.2903
  163SAPE  C31818390  -0.461   2.329   8.664  0.1251 -0.6259  0.1210
  163SAPE  H18X18391  -0.377   2.339   8.593  0.5011 -2.2576  0.3030
  163SAPE  H18Y18392  -0.542   2.295   8.596 -0.0525  0.7885 -0.3836
  163SAPE  H18Z18393  -0.444   2.249   8.740  2.1115 -0.3996 -0.0690
  164SAPE     N18394   3.015   0.457   5.809  0.3993 -0.0511  1.0368
  164SAPE   HN118395   2.969   0.487   5.721 -0.0794  0.4406  1.4532
  164SAPE   HN218396   3.118   0.462   5.797  0.0630  1.5496 -1.9444
  164SAPE   HN318397   2.991   0.370   5.860  3.0143 -0.1985  2.0737
  164SAPE   C1218398   2.984   0.581   5.894 -0.8102 -0.5063 -0.8912
  164SAPE  H12A18399   2.876   0.599   5.909 -0.3780  3.8725 -2.3283
  164SAPE  H12B18400   3.019   0.666   5.832  1.5294 -0.4945  0.3762
  164SAPE   C1118401   3.061   0.584   6.032  0.4945  0.5817 -0.3591
  164SAPE  H11A18402   3.003   0.509   6.089  0.0220  1.3356  0.1568
  164SAPE  H11B18403   3.063   0.684   6.081 -0.0960  0.7615 -0.7012
  164SAPE     P18404   3.328   0.621   6.039  0.6487 -0.3038  0.1641
  164SAPE   O1318405   3.451   0.580   5.966  0.1509  0.2240  0.2889
  164SAPE   O1418406   3.292   0.762   6.022 -0.5177 -0.5586 -0.1749
  164SAPE   O1218407   3.196   0.533   6.004 -0.8183  0.4681  0.1101
  164SAPE   O1118408   3.351   0.593   6.191  0.0716  0.5406  0.3684
  164SAPE    C118409   3.261   0.518   6.270  0.3784  0.3563 -0.2357
  164SAPE    HA18410   3.165   0.571   6.287 -0.7328 -1.9971  1.0434
  164SAPE    HB18411   3.236   0.427   6.211  1.7226 -0.6695  0.7478
  164SAPE    C218412   3.324   0.479   6.406 -0.2927  0.4521 -1.3243
  164SAPE    HS18413   3.244   0.435   6.469 -0.3484 -0.7791 -2.2420
  164SAPE   O2118414   3.383   0.594   6.472 -0.2684 -0.0677 -0.3691
  164SAPE   C2118415   3.285   0.670   6.522  0.3945 -0.3326 -0.8089
  164SAPE   O2218416   3.165   0.645   6.544  0.3665  0.7133  0.0724
  164SAPE   C2218417   3.340   0.804   6.563  0.1777  0.4469  0.0767
  164SAPE   H2R18418   3.392   0.783   6.658  0.2107  3.3417  0.7152
  164SAPE   H2S18419   3.409   0.841   6.484  2.3848 -2.7480  0.3975
  164SAPE    C318420   3.437   0.372   6.378  0.8401  0.2201 -0.3108
  164SAPE    HX18421   3.505   0.412   6.300  0.2493 -1.8889 -1.9465
  164SAPE    HY18422   3.395   0.280   6.333 -0.0377  0.1468  0.6165
  164SAPE   O3118423   3.516   0.349   6.497 -0.0427  0.1270 -0.1442
  164SAPE   C3118424   3.473   0.249   6.575 -0.9179 -0.0110 -0.1067
  164SAPE   O3218425   3.379   0.176   6.542  0.2045 -0.0853 -0.0561
  164SAPE   C3218426   3.559   0.248   6.705  0.6799 -0.2346 -0.3992
  164SAPE   H2X18427   3.639   0.323   6.687  2.5954 -2.5146 -1.7593
  164SAPE   H2Y18428   3.597   0.148   6.733  1.1436  0.4727  1.5690
  164SAPE   C2318429   3.239   0.911   6.605 -0.1605 -0.2992 -0.5475
  164SAPE   H3R18430   3.165   0.870   6.676  0.1786 -2.9032 -1.6338
  164SAPE   H3S18431   3.195   0.947   6.509  0.0708 -2.2444 -1.4219
  164SAPE   C2418432   3.304   1.034   6.680  0.3964  0.4165 -0.2897
  164SAPE   H4R18433   3.331   0.995   6.780 -0.0446 -0.6855 -0.5883
  164SAPE   H4S18434   3.224   1.109   6.699  1.1614  0.6703  2.0117
  164SAPE   C2518435   3.419   1.110   6.619  0.9648  0.3388  0.0319
  164SAPE   H5R18436   3.417   1.108   6.509  0.2347 -0.9134  0.0587
  164SAPE   C2618437   3.530   1.151   6.681  0.6365  0.4152 -0.2403
  164SAPE   H6R18438   3.607   1.197   6.617  0.5002 -1.5272 -1.8405
  164SAPE   C2718439   3.563   1.149   6.830  0.3509 -0.0627  0.0733
  164SAPE   H7R18440   3.485   1.088   6.880  0.6953 -1.1690 -0.7243
  164SAPE   H7S18441   3.573   1.244   6.888  1.2793  0.2747 -0.6274
  164SAPE   C2818442   3.695   1.084   6.865  0.6797 -0.4883 -0.3984
  164SAPE   H8R18443   3.786   1.147   6.860  0.7733 -0.3288  2.6740
  164SAPE   C2918444   3.716   0.954   6.871 -0.3217 -0.2226 -0.1403
  164SAPE   H9R18445   3.817   0.916   6.892  0.5453  0.5286 -2.7728
  164SAPE  C21018446   3.609   0.852   6.849 -0.0850 -0.2530  0.2984
  164SAPE  H10R18447   3.594   0.843   6.739 -0.7727 -1.1429  0.4596
  164SAPE  H10S18448   3.508   0.891   6.875  0.2532  1.0040 -0.2466
  164SAPE  C21118449   3.636   0.718   6.923 -0.8643  0.0785 -0.8645
  164SAPE  H11R18450   3.657   0.629   6.862  0.5412 -1.5846  1.9579
  164SAPE  C21218451   3.649   0.698   7.055 -0.7736 -0.2786  0.7979
  164SAPE  H12R18452   3.685   0.599   7.086  0.7325 -0.0023  0.0007
  164SAPE  C21318453   3.646   0.791   7.173  0.9982  0.6366  0.2143
  164SAPE  H13R18454   3.557   0.764   7.234  1.3902 -0.4020  0.3310
  164SAPE  H13S18455   3.632   0.892   7.131 -0.5548 -0.2061 -1.3891
  164SAPE  C21418456   3.768   0.779   7.251  0.0630  0.0404 -0.1737
  164SAPE  H14R18457   3.843   0.854   7.221 -1.4160  1.1140 -1.2508
  164SAPE  C21518458   3.800   0.689   7.352  0.3293 -0.0014 -0.1072
  164SAPE  H15R18459   3.899   0.707   7.398  0.6995  2.3957 -1.7574
  164SAPE  C21618460   3.700   0.596   7.415  0.0516 -0.3822 -0.5285
  164SAPE  H16R18461   3.598   0.623   7.380  0.1486  1.2369  0.3571
  164SAPE  H16S18462   3.691   0.623   7.522  0.0014 -0.8740 -0.4082
  164SAPE  C21718463   3.732   0.451   7.401  0.3890 -0.2098 -0.0936
  164SAPE  H17R18464   3.819   0.428   7.466 -1.2358  1.3925  2.7405
  164SAPE  H17S18465   3.761   0.427   7.296  0.8017  1.7118 -0.4396
  164SAPE  C21818466   3.621   0.362   7.449 -0.1130  0.1987 -0.0103
  164SAPE  H18R18467   3.583   0.411   7.541 -2.2081 -1.3373 -0.0249
  164SAPE  H18S18468   3.661   0.263   7.479  0.3108  1.3133  3.3235
  164SAPE  C21918469   3.507   0.338   7.344  0.2146 -0.3550  0.2255
  164SAPE  H19R18470   3.466   0.439   7.320  1.2608  0.6189  2.2905
  164SAPE  H19S18471   3.425   0.286   7.398  0.0936 -1.7642 -1.3024
  164SAPE  C22018472   3.540   0.276   7.210 -0.3485 -0.2553 -0.1513
  164SAPE  H20R18473   3.554   0.166   7.222  0.5709 -0.2709 -1.2946
  164SAPE  H20S18474   3.629   0.326   7.168  0.5828  0.8187  2.9446
  164SAPE  H20T18475   3.452   0.286   7.143  0.7318  0.4680 -1.4584
  164SAPE   C3318476   3.469   0.302   6.827  0.1532 -0.7007  0.1070
  164SAPE   H3X18477   3.545   0.304   6.908  1.6317 -1.2967 -1.2438
  164SAPE   H3Y18478   3.396   0.218   6.836 -0.0513 -0.7369 -1.7206
  164SAPE   C3418479   3.393   0.439   6.812  0.1594  0.4730  0.0500
  164SAPE   H4X18480   3.309   0.426   6.741 -1.2911 -0.4661  1.8868
  164SAPE   H4Y18481   3.467   0.514   6.776  2.1441 -1.6186 -0.3380
  164SAPE   C3518482   3.341   0.492   6.951 -0.0306 -0.0762 -0.1381
  164SAPE   H5X18483   3.426   0.512   7.020  0.6885 -2.7240 -0.1774
  164SAPE   H5Y18484   3.275   0.410   6.986 -0.2255 -1.1310 -2.8657
  164SAPE   C3618485   3.251   0.616   6.937  0.0459  1.5062 -0.5205
  164SAPE   H6X18486   3.180   0.582   6.859 -1.1415  1.3372  0.6191
  164SAPE   H6Y18487   3.322   0.697   6.909  0.6818  0.5556 -1.6800
  164SAPE   C3718488   3.172   0.639   7.067  0.3761  0.0413  0.3529
  164SAPE   H7X18489   3.099   0.556   7.074  0.4267 -0.0295  0.0570
  164SAPE   H7Y18490   3.109   0.728   7.043  2.3072  0.8160 -2.0899
  164SAPE   C3818491   3.255   0.672   7.186 -0.0405  0.1076 -0.2441
  164SAPE   H8X18492   3.312   0.767   7.172 -2.5086  1.7098  0.2851
  164SAPE   H8Y18493   3.336   0.597   7.197  0.9197  1.0630 -0.7136
  164SAPE   C3918494   3.169   0.686   7.313  0.6938  0.4254 -0.0939
  164SAPE   H9X18495   3.079   0.748   7.295 -0.2826  0.5729  4.6883
  164SAPE   H9Y18496   3.240   0.735   7.383  1.5049  0.8369 -1.1795
  164SAPE  C31018497   3.136   0.550   7.369  0.5251 -0.0378  0.1969
  164SAPE  H10X18498   3.142   0.473   7.289  1.2873  1.1570 -0.9198
  164SAPE  H10Y18499   3.030   0.557   7.401  1.4045  1.7840  2.8175
  164SAPE  C31118500   3.218   0.499   7.493 -0.1147  0.2491 -0.7679
  164SAPE  H11X18501   3.328   0.509   7.480  0.2573 -1.3116  0.9699
  164SAPE  H11Y18502   3.197   0.390   7.498 -0.1195  0.2660 -0.3708
  164SAPE  C31218503   3.186   0.574   7.622 -0.0263  0.2523  0.4500
  164SAPE  H12X18504   3.092   0.530   7.662 -0.1137 -0.0891 -0.1309
  164SAPE  H12Y18505   3.170   0.683   7.610 -0.5355  0.3661  1.9605
  164SAPE  C31318506   3.302   0.559   7.727  0.2690  0.2136 -0.5223
  164SAPE  H13X18507   3.270   0.596   7.827  1.0708  0.8839 -0.5104
  164SAPE  H13Y18508   3.394   0.613   7.696  0.4727  0.1752 -0.0022
  164SAPE  C31418509   3.341   0.414   7.750  0.1006  0.1767 -0.3312
  164SAPE  H14X18510   3.389   0.373   7.659 -3.2912  0.7311 -2.4704
  164SAPE  H14Y18511   3.246   0.358   7.765 -0.0226  0.9720  2.0232
  164SAPE  C31518512   3.439   0.385   7.862  0.1780  0.1942 -0.3856
  164SAPE  H15X18513   3.481   0.283   7.850  1.7903  0.7575  0.3589
  164SAPE  H15Y18514   3.388   0.395   7.960 -1.1526  0.0880 -1.0539
  164SAPE  C31618515   3.558   0.471   7.852 -0.1356 -0.4552 -0.1212
  164SAPE  H16X18516   3.538   0.573   7.891  2.1498  0.1298 -0.4054
  164SAPE  H16Y18517   3.589   0.480   7.746 -2.7171 -1.8677 -1.0442
  164SAPE  C31718518   3.685   0.407   7.909 -0.2010  0.4563  1.2027
  164SAPE  H17X18519   3.770   0.475   7.891 -0.6089  1.1540  1.8731
  164SAPE  H17Y18520   3.705   0.314   7.851 -2.4769  0.9646 -0.5123
  164SAPE  C31818521   3.669   0.379   8.064  0.7364  0.6009 -0.4784
  164SAPE  H18X18522   3.644   0.469   8.125  0.3240 -1.3761  2.3385
  164SAPE  H18Y18523   3.766   0.342   8.103  0.5798  1.7333  1.0282
  164SAPE  H18Z18524   3.591   0.302   8.080 -0.6112  1.4222 -2.7855
  165SAPE     N18525   3.285   3.873   6.413 -0.2568 -0.3745 -0.7127
  165SAPE   HN118526   3.303   3.771   6.406 -1.2667 -0.5169 -1.1960
  165SAPE   HN218527   3.376   3.915   6.440 -0.6439 -0.2082  0.3368
  165SAPE   HN318528   3.219   3.870   6.493 -3.1886 -1.3921 -3.0874
  165SAPE   C1218529   3.214   3.937   6.296  0.3842 -0.6828  0.0266
  165SAPE  H12A18530   3.272   3.914   6.204 -0.8977  1.0572 -1.2429
  165SAPE  H12B18531   3.204   4.045   6.320  0.5014 -0.3507 -1.3672
  165SAPE   C1118532   3.079   3.867   6.257 -0.8585  1.2739  0.2267
  165SAPE  H11A18533   3.097   3.762   6.223 -0.5702  1.4976 -0.3281
  165SAPE  H11B18534   3.033   3.939   6.186 -1.2183  0.6623 -0.1658
  165SAPE     P18535   2.847   3.842   6.363  0.0095 -0.2138  0.2595
  165SAPE   O1318536   2.785   3.957   6.438 -0.2525  0.0833  0.0134
  165SAPE   O1418537   2.808   3.842   6.225  0.4432 -0.0983 -0.2514
  165SAPE   O1218538   2.999   3.863   6.375 -0.2513 -0.4388  0.3436
  165SAPE   O1118539   2.822   3.706   6.438 -0.0842 -0.0242  0.4365
  165SAPE    C118540   2.915   3.655   6.537  0.1449  0.0894 -0.0883
  165SAPE    HA18541   2.875   3.554   6.564  1.2515 -0.5907 -0.9889
  165SAPE    HB18542   3.014   3.651   6.488 -0.7787  3.0809 -2.2893
  165SAPE    C218543   2.912   3.744   6.669 -0.7843 -0.1329 -0.3518
  165SAPE    HS18544   2.933   3.852   6.653 -1.5831  0.1802  0.6213
  165SAPE   O2118545   3.011   3.693   6.757  0.0928 -0.0103 -0.0521
  165SAPE   C2118546   3.130   3.746   6.740 -0.2271 -0.2919  0.3626
  165SAPE   O2218547   3.158   3.830   6.655  0.5459  0.5400 -0.3639
  165SAPE   C2218548   3.225   3.679   6.843 -0.1551  0.1098  0.2424
  165SAPE   H2R18549   3.171   3.625   6.923  1.3399 -0.3164  0.9955
  165SAPE   H2S18550   3.275   3.599   6.784 -1.3209  0.1918 -0.8734
  165SAPE    C318551   2.770   3.737   6.733 -0.3198 -0.5747 -0.2251
  165SAPE    HX18552   2.742   3.630   6.718 -0.2698 -0.7162  0.6644
  165SAPE    HY18553   2.687   3.788   6.680  0.1961  1.7847  1.1904
  165SAPE   O3118554   2.765   3.778   6.876  0.3810 -0.6069 -0.3840
  165SAPE   C3118555   2.802   3.898   6.906 -0.5154 -0.9438 -0.1232
  165SAPE   O3218556   2.852   3.981   6.829 -0.0492 -0.2445  0.6374
  165SAPE   C3218557   2.776   3.924   7.052  0.2122 -0.0796 -0.4220
  165SAPE   H2X18558   2.770   3.821   7.094 -1.3882  1.5609  3.6532
  165SAPE   H2Y18559   2.678   3.977   7.055  1.0609  1.4579  0.9140
  165SAPE   C2318560   3.324   3.786   6.904 -0.1636 -0.2309  0.3859
  165SAPE   H3R18561   3.364   3.837   6.814 -0.5493 -1.0091 -0.2339
  165SAPE   H3S18562   3.416   3.732   6.937  0.4623  1.0332  0.7489
  165SAPE   C2418563   3.274   3.865   7.022  0.6402 -0.1346  0.0593
  165SAPE   H4R18564   3.243   3.792   7.100 -0.6644 -2.5805 -2.6858
  165SAPE   H4S18565   3.179   3.909   6.986  0.1278  0.5726  2.1779
  165SAPE   C2518566   3.371   3.975   7.068 -0.7229 -0.5548 -0.3293
  165SAPE   H5R18567   3.438   3.989   6.981 -0.6466  0.3167 -0.1359
  165SAPE   C2618568   3.398   4.031   7.184 -0.1457 -0.3995 -0.0675
  165SAPE   H6R18569   3.489   4.093   7.194 -0.0251 -0.3912 -1.1292
  165SAPE   C2718570   3.331   3.989   7.309  0.0575 -0.5010 -0.1854
  165SAPE   H7R18571   3.229   3.949   7.291 -0.3645  0.3788  0.2510
  165SAPE   H7S18572   3.319   4.084   7.364  1.1449 -1.3336  1.5414
  165SAPE   C2818573   3.410   3.893   7.394  0.3377 -0.3088  0.7888
  165SAPE   H8R18574   3.462   3.819   7.331 -1.7792 -1.9191  0.8971
  165SAPE   C2918575   3.422   3.897   7.528 -0.3404 -0.2963 -0.5652
  165SAPE   H9R18576   3.482   3.818   7.574 -0.5597  0.8432  1.7290
  165SAPE  C21018577   3.356   3.990   7.624  0.4569  0.6136  0.4579
  165SAPE  H10R18578   3.260   3.949   7.663 -0.1417  0.9093 -0.6887
  165SAPE  H10S18579   3.325   4.083   7.571 -1.0996  0.6944  1.4558
  165SAPE  C21118580   3.449   4.034   7.735 -0.3880 -0.1980 -0.8988
  165SAPE  H11R18581   3.505   4.127   7.721 -0.4067  0.0907  0.8588
  165SAPE  C21218582   3.449   3.987   7.862  0.6780 -0.1040 -0.0010
  165SAPE  H12R18583   3.528   4.038   7.920  2.4848 -1.6552 -1.0224
  165SAPE  C21318584   3.367   3.874   7.919  1.2823  0.8323  0.5910
  165SAPE  H13R18585   3.435   3.786   7.925 -0.6468 -0.8246 -0.9624
  165SAPE  H13S18586   3.291   3.853   7.840 -0.2444 -1.3308  2.5592
  165SAPE  C21418587   3.303   3.925   8.046  0.9029  0.2766 -0.0413
  165SAPE  H14R18588   3.201   3.965   8.042  0.6298 -0.4484 -0.3403
  165SAPE  C21518589   3.356   3.921   8.173 -0.3506 -0.3132 -0.0091
  165SAPE  H15R18590   3.302   3.980   8.249  0.0849 -0.9873  0.8288
  165SAPE  C21618591   3.491   3.875   8.221  0.2926  0.4657 -0.0264
  165SAPE  H16R18592   3.564   3.958   8.215  0.1562  0.5668 -0.2856
  165SAPE  H16S18593   3.519   3.798   8.146  1.1447 -1.0936  1.8372
  165SAPE  C21718594   3.495   3.817   8.362  0.0648 -0.6783 -0.3622
  165SAPE  H17R18595   3.419   3.737   8.367 -0.1223 -0.4999 -0.3380
  165SAPE  H17S18596   3.479   3.900   8.434  0.8391  1.0415 -2.1346
  165SAPE  C21818597   3.636   3.762   8.392 -0.2174  0.1892 -0.0640
  165SAPE  H18R18598   3.706   3.847   8.404  0.2869 -0.3262  0.6442
  165SAPE  H18S18599   3.684   3.712   8.305 -1.2877  0.6126 -0.9123
  165SAPE  C21918600   3.634   3.669   8.518 -0.4493  0.4946 -0.1133
  165SAPE  H19R18601   3.569   3.581   8.499  0.2864  0.3789 -2.3142
  165SAPE  H19S18602   3.589   3.727   8.600 -1.3736  0.9415 -0.9270
  165SAPE  C22018603   3.776   3.640   8.557  0.2065  0.1048  0.4015
  165SAPE  H20R18604   3.800   3.573   8.643  0.8201  0.2937  0.3784
  165SAPE  H20S18605   3.808   3.736   8.603 -0.3076 -0.1277  1.2587
  165SAPE  H20T18606   3.833   3.623   8.463 -0.8146 -0.3247 -0.1495
  165SAPE   C3318607   2.882   3.994   7.130  0.2243 -0.4273 -0.6398
  165SAPE   H3X18608   2.889   4.104   7.113 -1.1288  0.5185  4.0429
  165SAPE   H3Y18609   2.983   3.947   7.134 -0.0199 -0.8389  1.6483
  165SAPE   C3418610   2.832   3.996   7.278 -0.6178 -0.7450  0.5594
  165SAPE   H4X18611   2.840   3.887   7.303  0.2686 -0.0963  3.3025
  165SAPE   H4Y18612   2.724   4.018   7.288 -0.4851  1.1262 -1.7023
  165SAPE   C3518613   2.916   4.077   7.384  0.3047 -0.2254 -0.4286
  165SAPE   H5X18614   2.912   4.186   7.366 -0.4889  0.1327  1.8125
  165SAPE   H5Y18615   3.020   4.043   7.363 -0.0063 -1.2088 -0.4390
  165SAPE   C3618616   2.888   4.053   7.530 -0.7865 -0.2765 -0.2583
  165SAPE   H6X18617   2.902   3.944   7.549  1.0014  0.2445  1.6699
  165SAPE   H6Y18618   2.780   4.074   7.544 -0.1741  1.4262  2.2765
  165SAPE   C3718619   2.971   4.144   7.624  0.3610 -0.4204 -0.0211
  165SAPE   H7X18620   2.956   4.252   7.605 -0.2028 -0.3721  0.7146
  165SAPE   H7Y18621   3.076   4.116   7.600  0.5566  0.5219 -0.2764
  165SAPE   C3818622   2.933   4.131   7.773 -0.1004 -0.5731 -0.5957
  165SAPE   H8X18623   2.934   4.023   7.799 -1.0526 -0.6432 -0.8270
  165SAPE   H8Y18624   2.831   4.170   7.793  0.3660  1.4355 -1.9987
  165SAPE   C3918625   3.035   4.184   7.869  0.3110 -1.0338 -0.3954
  165SAPE   H9X18626   3.055   4.289   7.837 -1.2003 -0.7912 -0.5494
  165SAPE   H9Y18627   3.133   4.133   7.864  0.9015 -0.0214  0.3880
  165SAPE  C31018628   2.969   4.192   8.011 -0.6586  0.2418  0.0050
  165SAPE  H10X18629   2.951   4.087   8.042  2.4956 -0.2787  0.3005
  165SAPE  H10Y18630   2.869   4.237   7.997  0.4977  1.8382 -3.6907
  165SAPE  C31118631   3.042   4.273   8.121 -0.5524 -0.1194  1.2630
  165SAPE  H11X18632   3.076   4.372   8.082 -2.0024 -0.5840 -1.3330
  165SAPE  H11Y18633   3.141   4.226   8.140  0.2778  1.1976  0.2965
  165SAPE  C31218634   2.976   4.291   8.250 -0.2774 -0.0465  0.2309
  165SAPE  H12X18635   2.971   4.188   8.292  0.1576 -1.1562 -2.3701
  165SAPE  H12Y18636   2.869   4.319   8.243 -0.4520 -0.5541  0.7742
  165SAPE  C31318637   3.061   4.387   8.333  0.5713 -0.8342 -0.0996
  165SAPE  H13X18638   3.098   4.469   8.269 -0.9034  1.3535  1.7767
  165SAPE  H13Y18639   3.151   4.332   8.368  2.3850  1.5316 -0.9061
  165SAPE  C31418640   2.981   4.441   8.447 -0.0657  0.4676 -0.6012
  165SAPE  H14X18641   2.908   4.369   8.490  0.3260  1.8033  2.3645
  165SAPE  H14Y18642   2.908   4.521   8.422  0.2821  0.7016 -0.8832
  165SAPE  C31518643   3.084   4.469   8.557 -0.3423 -0.4550  0.1396
  165SAPE  H15X18644   3.169   4.535   8.531  1.0949 -1.8731  1.1662
  165SAPE  H15Y18645   3.120   4.370   8.593  3.0704  0.1430 -1.4322
  165SAPE  C31618646   3.015   4.534   8.686 -0.1467  0.5653 -0.0135
  165SAPE  H16X18647   2.907   4.525   8.664 -0.4639  0.2355  1.5951
  165SAPE  H16Y18648   3.027   4.645   8.694 -1.1122  0.5870  1.4892
  165SAPE  C31718649   3.032   4.455   8.821  0.1313 -0.0995  0.0738
  165SAPE  H17X18650   3.036   4.346   8.799 -1.6308 -0.0473 -0.5990
  165SAPE  H17Y18651   2.942   4.487   8.877 -0.7697 -1.6289 -0.4863
  165SAPE  C31818652   3.154   4.499   8.904 -0.6087  0.4000  0.3436
  165SAPE  H18X18653   3.243   4.449   8.860  1.6032  1.3759  3.5489
  165SAPE  H18Y18654   3.140   4.470   9.010  1.4560  0.2129  0.5678
  165SAPE  H18Z18655   3.162   4.610   8.899  1.1253  0.2652 -0.2513
  166SAPE     N18656   2.955   6.572   5.748 -0.3594 -0.1133 -0.2143
  166SAPE   HN118657   2.964   6.536   5.651  2.1548 -0.7015  0.2026
  166SAPE   HN218658   3.027   6.645   5.766 -0.8783 -0.3809  3.1583
  166SAPE   HN318659   2.969   6.499   5.820  0.5223 -1.4180 -1.6719
  166SAPE   C1218660   2.817   6.620   5.767 -0.0899  0.3187 -0.5272
  166SAPE  H12A18661   2.763   6.546   5.830  0.0091  1.3257  0.7624
  166SAPE  H12B18662   2.771   6.619   5.665  1.8983 -1.3984 -1.4449
  166SAPE   C1118663   2.806   6.761   5.840  0.1789 -0.1233 -0.3023
  166SAPE  H11A18664   2.701   6.767   5.878  1.2049  2.1681  2.3875
  166SAPE  H11B18665   2.801   6.844   5.766 -2.0197 -0.5234 -0.6525
  166SAPE     P18666   2.927   6.909   6.008 -0.3801  0.0294 -0.2328
  166SAPE   O1318667   2.971   6.890   6.148  0.3016 -0.0107 -0.0173
  166SAPE   O1418668   3.023   6.972   5.911  0.0021 -0.4494  0.2422
  166SAPE   O1218669   2.889   6.766   5.959  0.1607  0.6448  0.3734
  166SAPE   O1118670   2.790   6.990   6.008  0.0324  0.6022  0.0226
  166SAPE    C118671   2.675   6.952   6.082  0.2930  0.6186 -0.0369
  166SAPE    HA18672   2.588   6.975   6.017 -0.5093 -3.8447 -0.7347
  166SAPE    HB18673   2.674   6.844   6.109  0.8306  1.0216  1.7218
  166SAPE    C218674   2.658   7.040   6.207 -0.1255 -0.3315  0.3649
  166SAPE    HS18675   2.685   7.147   6.193 -2.9484  0.4311  0.3932
  166SAPE   O2118676   2.733   6.989   6.313 -0.3053 -0.7797 -0.2711
  166SAPE   C2118677   2.841   7.064   6.355 -0.4002  0.0305 -0.4960
  166SAPE   O2218678   2.867   7.174   6.310 -0.1150  0.1358  0.1694
  166SAPE   C2218679   2.915   6.998   6.473 -0.7613 -0.8788 -0.3138
  166SAPE   H2R18680   2.831   6.941   6.519 -2.4503  0.9680 -1.0966
  166SAPE   H2S18681   2.990   6.925   6.435 -0.2274 -0.9960  0.9261
  166SAPE    C318682   2.509   7.046   6.258 -0.2313  0.3944 -0.4733
  166SAPE    HX18683   2.487   6.937   6.255  1.3464  0.0963 -2.5541
  166SAPE    HY18684   2.455   7.095   6.174 -2.0211 -0.7451 -0.0177
  166SAPE   O3118685   2.484   7.107   6.388 -0.0235 -0.0610  0.0499
  166SAPE   C3118686   2.355   7.097   6.428 -0.1773 -0.1750 -0.2920
  166SAPE   O3218687   2.260   7.061   6.361  0.1005 -0.2937  0.0630
  166SAPE   C3218688   2.335   7.143   6.573 -0.2767  0.0713  0.2521
  166SAPE   H2X18689   2.232   7.121   6.607 -0.4653 -0.0282 -0.3806
  166SAPE   H2Y18690   2.359   7.252   6.572 -1.7901  0.4216  1.3485
  166SAPE   C2318691   2.971   7.081   6.590 -0.1159 -0.0302  0.3646
  166SAPE   H3R18692   2.900   7.162   6.616  1.8398  1.6885  0.4468
  166SAPE   H3S18693   3.068   7.120   6.553  1.0488 -3.0365  0.0817
  166SAPE   C2418694   2.976   7.000   6.714 -0.0691 -0.4000  0.3087
  166SAPE   H4R18695   3.021   6.901   6.692 -1.1833 -0.4896 -1.7368
  166SAPE   H4S18696   2.872   6.970   6.738 -1.8948  2.4322 -3.5244
  166SAPE   C2518697   3.046   7.061   6.832 -0.0607  0.4955  0.3228
  166SAPE   H5R18698   3.112   7.144   6.804  2.8925 -1.6961  0.6429
  166SAPE   C2618699   3.021   7.046   6.963 -0.1930 -0.0580  0.5144
  166SAPE   H6R18700   3.084   7.096   7.039 -0.2263  1.3788 -0.3960
  166SAPE   C2718701   2.904   6.964   7.019 -0.0388  0.0718  1.0281
  166SAPE   H7R18702   2.930   6.943   7.125  1.2381  2.5227  1.2241
  166SAPE   H7S18703   2.894   6.865   6.968 -2.3738 -0.4414  2.3659
  166SAPE   C2818704   2.766   7.032   7.000 -0.3621 -0.4244  0.6591
  166SAPE   H8R18705   2.744   7.073   6.900  0.8049  1.7637  1.2748
  166SAPE   C2918706   2.680   7.074   7.096  0.2986  0.4104  0.5432
  166SAPE   H9R18707   2.590   7.124   7.058 -0.2189 -0.4252  0.6511
  166SAPE  C21018708   2.688   7.055   7.245 -0.9038  0.6238 -0.4532
  166SAPE  H10R18709   2.725   6.951   7.257  0.9056  1.4653  1.5172
  166SAPE  H10S18710   2.586   7.054   7.290 -0.6104 -1.4156  0.1850
  166SAPE  C21118711   2.779   7.148   7.319 -0.2549 -0.4825  0.0185
  166SAPE  H11R18712   2.879   7.161   7.274  1.4685 -2.1166  3.2085
  166SAPE  C21218713   2.743   7.219   7.426  0.1133 -0.3861  0.0292
  166SAPE  H12R18714   2.819   7.280   7.477  0.5410 -0.0709 -0.9690
  166SAPE  C21318715   2.610   7.222   7.500  0.0315 -0.0480  0.6450
  166SAPE  H13R18716   2.618   7.265   7.602  1.6177 -0.6673  0.8021
  166SAPE  H13S18717   2.578   7.118   7.522 -1.1394 -0.0318 -0.8468
  166SAPE  C21418718   2.494   7.279   7.420 -0.5942 -0.4798 -0.0631
  166SAPE  H14R18719   2.481   7.238   7.319 -0.2222 -2.0951  0.5289
  166SAPE  C21518720   2.402   7.369   7.460  0.5172  0.2412  0.6291
  166SAPE  H15R18721   2.329   7.401   7.385 -0.7015 -2.2684  0.7072
  166SAPE  C21618722   2.396   7.443   7.593 -0.0683  0.4484  0.0197
  166SAPE  H16R18723   2.413   7.546   7.556  0.0540  0.3354 -0.2388
  166SAPE  H16S18724   2.486   7.424   7.656 -1.1447  0.2946  1.5416
  166SAPE  C21718725   2.261   7.437   7.665 -0.3558  0.4272 -0.5973
  166SAPE  H17R18726   2.248   7.501   7.755  1.3465 -1.3830  1.0093
  166SAPE  H17S18727   2.246   7.331   7.695  1.7405  0.4865  0.7992
  166SAPE  C21818728   2.140   7.481   7.585  0.9219 -0.4110  1.3105
  166SAPE  H18R18729   2.167   7.536   7.493 -0.9398 -1.7159 -0.0455
  166SAPE  H18S18730   2.082   7.563   7.633  3.2201  1.6057  0.7236
  166SAPE  C21918731   2.048   7.365   7.553  0.1696  0.1522 -0.2912
  166SAPE  H19R18732   1.994   7.332   7.644  0.8832 -0.3297 -0.0352
  166SAPE  H19S18733   2.096   7.270   7.518 -2.9044 -0.9679 -1.6593
  166SAPE  C22018734   1.959   7.396   7.430 -0.0383 -0.6383  0.1184
  166SAPE  H20R18735   2.030   7.403   7.345 -0.7816 -0.3470 -0.4934
  166SAPE  H20S18736   1.912   7.495   7.448  2.8930  0.8231  0.0260
  166SAPE  H20T18737   1.878   7.320   7.418 -1.1508  0.3308  1.2926
  166SAPE   C3318738   2.437   7.077   6.668  0.4899 -0.4248  0.3101
  166SAPE   H3X18739   2.413   7.106   6.772  0.5395  1.5241 -0.1926
  166SAPE   H3Y18740   2.540   7.113   6.646  0.1434  0.6412  0.4049
  166SAPE   C3418741   2.420   6.921   6.664  0.1861  0.1109  0.5145
  166SAPE   H4X18742   2.473   6.883   6.574  1.6630  2.5714  0.2755
  166SAPE   H4Y18743   2.315   6.889   6.655  0.6806 -0.9840 -1.8740
  166SAPE   C3518744   2.482   6.864   6.793 -0.6473  0.1016  0.3658
  166SAPE   H5X18745   2.419   6.884   6.882 -3.0883  0.5147 -1.4053
  166SAPE   H5Y18746   2.579   6.913   6.814 -0.5032 -0.3235  0.6985
  166SAPE   C3618747   2.506   6.704   6.794 -0.5781 -0.4374  0.0369
  166SAPE   H6X18748   2.579   6.679   6.714 -1.0141 -1.0757 -0.1643
  166SAPE   H6Y18749   2.406   6.661   6.773 -0.5564 -1.0333  1.1084
  166SAPE   C3718750   2.568   6.656   6.921  0.3198 -0.6977  0.0787
  166SAPE   H7X18751   2.672   6.693   6.916 -0.9587  2.9098 -1.2710
  166SAPE   H7Y18752   2.564   6.545   6.924  0.9453 -0.7077  0.5989
  166SAPE   C3818753   2.504   6.703   7.050 -0.0469 -0.4167  0.1717
  166SAPE   H8X18754   2.401   6.662   7.064  0.5022 -1.3631  1.5698
  166SAPE   H8Y18755   2.500   6.814   7.049  2.1082 -0.2842  2.2329
  166SAPE   C3918756   2.584   6.666   7.171  0.5501 -0.1437 -0.3589
  166SAPE   H9X18757   2.689   6.701   7.166  0.8160 -1.1354 -1.8895
  166SAPE   H9Y18758   2.592   6.555   7.178 -1.2425 -0.2935 -0.5400
  166SAPE  C31018759   2.526   6.722   7.298 -0.5205 -0.0894 -0.0389
  166SAPE  H10X18760   2.419   6.692   7.310 -0.7012  0.6593  0.2314
  166SAPE  H10Y18761   2.522   6.833   7.296  0.2260 -0.0826 -1.1920
  166SAPE  C31118762   2.595   6.664   7.427  1.0049 -0.0652  0.5657
  166SAPE  H11X18763   2.706   6.673   7.427  0.9549  0.5738  1.1907
  166SAPE  H11Y18764   2.572   6.556   7.435  2.4652 -0.3440  1.2094
  166SAPE  C31218765   2.546   6.731   7.560  1.1750 -0.8509 -0.3596
  166SAPE  H12X18766   2.444   6.696   7.587  0.7507  1.0145  0.4897
  166SAPE  H12Y18767   2.537   6.840   7.544  1.8510 -0.7401 -0.0072
  166SAPE  C31318768   2.644   6.710   7.670  0.1724  0.3889 -0.6752
  166SAPE  H13X18769   2.743   6.750   7.640  1.0171 -1.6035 -0.6332
  166SAPE  H13Y18770   2.662   6.601   7.681 -0.5357  0.3197 -0.1900
  166SAPE  C31418771   2.606   6.769   7.806  0.3414 -0.2964 -0.4664
  166SAPE  H14X18772   2.691   6.750   7.876  0.5309 -2.2828 -1.2122
  166SAPE  H14Y18773   2.521   6.712   7.848 -0.8106  1.3649 -0.4874
  166SAPE  C31518774   2.577   6.918   7.800 -0.2086  0.0363  0.1181
  166SAPE  H15X18775   2.489   6.940   7.735  1.8367  2.7466 -1.8582
  166SAPE  H15Y18776   2.665   6.975   7.763 -0.4602  1.3823  1.4998
  166SAPE  C31618777   2.553   6.981   7.939  0.7530  0.3542  0.0666
  166SAPE  H16X18778   2.547   7.091   7.938 -1.7534  0.2463  1.0652
  166SAPE  H16Y18779   2.647   6.948   7.990  1.3942 -1.3793 -2.1361
  166SAPE  C31718780   2.442   6.916   8.019  0.2635 -0.2697 -0.1344
  166SAPE  H17X18781   2.471   6.809   8.027  0.1281 -0.1914  1.4308
  166SAPE  H17Y18782   2.350   6.924   7.956  0.6842  0.5490 -0.6563
  166SAPE  C31818783   2.426   6.978   8.164 -0.1846  0.1182  1.0248
  166SAPE  H18X18784   2.407   7.087   8.164 -0.8517  0.0311 -0.6198
  166SAPE  H18Y18785   2.524   6.966   8.214  1.4099 -0.0616 -2.0417
  166SAPE  H18Z18786   2.340   6.935   8.220  0.1786 -0.1148  1.4058
  167SAPE     N18787   4.089   6.629   5.911  0.0396  0.0201 -0.0259
  167SAPE   HN118788   4.127   6.713   5.864  1.9643 -0.5581  0.4301
  167SAPE   HN218789   4.073   6.555   5.840 -1.7538  1.8604 -1.5792
  167SAPE   HN318790   3.995   6.641   5.954  0.0871  2.2653 -0.5011
  167SAPE   C1218791   4.183   6.557   6.002 -0.5282 -0.0965 -0.8342
  167SAPE  H12A18792   4.222   6.634   6.071 -2.8387  0.8299 -0.5151
  167SAPE  H12B18793   4.268   6.517   5.942  0.4427  0.1198  0.3871
  167SAPE   C1118794   4.123   6.435   6.083 -0.2411  0.2174 -0.8405
  167SAPE  H11A18795   4.030   6.485   6.118  0.8805  0.3193  2.1282
  167SAPE  H11B18796   4.198   6.410   6.161 -0.2146  2.4393 -0.1120
  167SAPE     P18797   4.167   6.180   6.020  0.2584  0.0987 -0.4416
  167SAPE   O1318798   4.100   6.073   5.948 -0.0962  0.3124  0.1538
  167SAPE   O1418799   4.313   6.184   6.006 -0.0207 -0.3341 -0.2755
  167SAPE   O1218800   4.101   6.328   5.986 -0.4058  0.3111  0.2914
  167SAPE   O1118801   4.126   6.178   6.172  0.1640  0.4369 -0.2085
  167SAPE    C118802   3.990   6.171   6.209  0.4005 -0.4084 -1.1324
  167SAPE    HA18803   3.932   6.257   6.169  1.9123  1.4724  0.6455
  167SAPE    HB18804   3.950   6.082   6.155  4.5955 -0.1461 -4.9622
  167SAPE    C218805   3.964   6.142   6.360 -0.4269  0.4697  0.5525
  167SAPE    HS18806   3.853   6.143   6.361 -0.4427  0.8935 -1.0083
  167SAPE   O2118807   4.017   6.248   6.442  0.3089 -0.3374 -0.1542
  167SAPE   C2118808   3.964   6.366   6.425  0.3246 -1.1308 -0.2121
  167SAPE   O2218809   3.873   6.389   6.346 -0.9742 -0.1890  0.3597
  167SAPE   C2218810   4.056   6.467   6.485 -0.4020  0.3327  0.4240
  167SAPE   H2R18811   4.159   6.428   6.465 -1.0253 -0.1358 -1.9984
  167SAPE   H2S18812   4.032   6.563   6.436  0.1128 -0.4306 -1.3649
  167SAPE    C318813   4.017   6.006   6.409  0.5383 -0.8190  0.2983
  167SAPE    HX18814   4.126   6.007   6.433  0.6525 -3.2221  0.0251
  167SAPE    HY18815   3.996   5.931   6.330 -2.3045  0.5991 -0.3674
  167SAPE   O3118816   3.971   5.971   6.541  0.1949  0.1588  0.2208
  167SAPE   C3118817   3.849   5.922   6.542  0.5843  0.4967  0.1691
  167SAPE   O3218818   3.767   5.910   6.451 -0.0398 -0.5457 -0.3641
  167SAPE   C3218819   3.808   5.891   6.687  0.2749 -0.3648  0.9549
  167SAPE   H2X18820   3.884   5.826   6.736 -0.4129 -0.9891  1.1930
  167SAPE   H2Y18821   3.707   5.846   6.684  0.0530  0.0469  1.9830
  167SAPE   C2318822   4.031   6.476   6.640 -0.1359 -0.1939 -0.5066
  167SAPE   H3R18823   4.113   6.524   6.697 -1.9038 -0.7439  2.5889
  167SAPE   H3S18824   4.026   6.372   6.679 -0.6450  0.6220  1.6915
  167SAPE   C2418825   3.899   6.547   6.677  0.3915  0.9446 -0.3507
  167SAPE   H4R18826   3.876   6.519   6.782 -0.6041  1.3388 -0.4574
  167SAPE   H4S18827   3.806   6.509   6.630 -0.1004 -0.3854  1.6317
  167SAPE   C2518828   3.914   6.693   6.660  0.3158  0.2656 -0.4535
  167SAPE   H5R18829   3.941   6.730   6.560  0.7071  1.3327  0.0330
  167SAPE   C2618830   3.907   6.786   6.760  0.4286  0.1137  0.2617
  167SAPE   H6R18831   3.933   6.885   6.720 -3.0857  0.3521 -1.6489
  167SAPE   C2718832   3.873   6.760   6.903 -0.3677 -0.6764 -0.0709
  167SAPE   H7R18833   3.957   6.705   6.950 -0.2982 -0.7541 -0.2819
  167SAPE   H7S18834   3.778   6.702   6.910 -0.7337 -0.2603 -1.3406
  167SAPE   C2818835   3.852   6.890   6.985  0.3681  0.2986 -0.7551
  167SAPE   H8R18836   3.832   6.984   6.932  1.7970  1.1636  0.1796
  167SAPE   C2918837   3.870   6.899   7.120 -0.1500 -0.0081 -0.1628
  167SAPE   H9R18838   3.855   7.000   7.162 -0.1700 -0.7947  1.7840
  167SAPE  C21018839   3.910   6.786   7.206 -0.5135 -0.5195  1.2347
  167SAPE  H10R18840   3.923   6.693   7.147  0.2977  1.3592 -1.6895
  167SAPE  H10S18841   3.833   6.762   7.283 -1.6945  0.1850  0.2933
  167SAPE  C21118842   4.051   6.817   7.266  0.3992  0.0604 -0.0365
  167SAPE  H11R18843   4.140   6.828   7.202  0.3513 -0.0137 -0.1155
  167SAPE  C21218844   4.072   6.829   7.396  0.1510  0.0532 -0.6256
  167SAPE  H12R18845   4.174   6.838   7.436 -0.4278  0.2617  0.8211
  167SAPE  C21318846   3.970   6.824   7.504 -0.3717  0.1311  0.2535
  167SAPE  H13R18847   3.883   6.758   7.483  0.2432 -0.1987 -1.3852
  167SAPE  H13S18848   3.924   6.925   7.512  2.1637  1.3105  0.2157
  167SAPE  C21418849   4.038   6.778   7.631  0.4878  0.1880 -0.4723
  167SAPE  H14R18850   4.024   6.670   7.644 -0.3308  0.6480  3.2622
  167SAPE  C21518851   4.107   6.848   7.721  0.4810 -0.1695  0.3996
  167SAPE  H15R18852   4.161   6.791   7.797  0.3531  1.0544  1.4177
  167SAPE  C21618853   4.140   6.990   7.718  0.0326  0.2551  0.5567
  167SAPE  H16R18854   4.081   7.040   7.798 -1.3494 -0.4761  0.0038
  167SAPE  H16S18855   4.115   7.033   7.619 -0.5322  0.2823  0.7102
  167SAPE  C21718856   4.283   7.027   7.759  0.5003 -0.4930 -0.8117
  167SAPE  H17R18857   4.308   7.130   7.725  0.8629 -0.7795 -1.4113
  167SAPE  H17S18858   4.347   6.959   7.698 -0.0822  0.0412 -2.0216
  167SAPE  C21818859   4.319   7.007   7.903 -0.0617 -0.3467  0.0521
  167SAPE  H18R18860   4.298   6.907   7.944 -0.8414 -0.1353  0.1734
  167SAPE  H18S18861   4.254   7.078   7.957 -0.6711  0.1109 -1.2456
  167SAPE  C21918862   4.458   7.051   7.931 -1.0425 -0.0160  0.4359
  167SAPE  H19R18863   4.463   7.160   7.909 -0.8628  0.2267  1.6016
  167SAPE  H19S18864   4.531   6.992   7.871  0.0959  1.3081  0.4825
  167SAPE  C22018865   4.509   7.023   8.072  0.7899  0.5227 -0.7053
  167SAPE  H20R18866   4.487   6.915   8.086 -1.4646  0.4845 -3.8808
  167SAPE  H20S18867   4.457   7.084   8.149  1.0339 -0.0424 -0.0966
  167SAPE  H20T18868   4.616   7.053   8.080  0.1393  2.2885  2.2822
  167SAPE   C3318869   3.783   6.021   6.761 -0.0726  0.2976  0.8226
  167SAPE   H3X18870   3.729   6.093   6.696  1.0110 -2.0825 -2.8583
  167SAPE   H3Y18871   3.877   6.067   6.799 -0.2023 -0.9439  2.7055
  167SAPE   C3418872   3.698   5.990   6.879  0.8076 -0.5756 -0.9886
  167SAPE   H4X18873   3.718   5.891   6.927 -0.8094 -0.1986  0.4927
  167SAPE   H4Y18874   3.593   5.982   6.846  0.0920 -1.8354  1.4642
  167SAPE   C3518875   3.702   6.098   6.990  0.2249  0.4255 -0.6482
  167SAPE   H5X18876   3.794   6.090   7.050  0.2528  1.0681 -0.5978
  167SAPE   H5Y18877   3.622   6.083   7.065  1.4199 -3.2524 -0.0095
  167SAPE   C3618878   3.698   6.245   6.934  0.6485  0.6524  0.0596
  167SAPE   H6X18879   3.612   6.259   6.865 -0.8906 -0.9835  1.5960
  167SAPE   H6Y18880   3.793   6.264   6.880 -0.2143 -0.1092 -1.7679
  167SAPE   C3718881   3.670   6.350   7.043 -0.0553  0.2907 -0.2020
  167SAPE   H7X18882   3.568   6.326   7.081 -0.1626  1.2422  0.1257
  167SAPE   H7Y18883   3.660   6.451   6.999  0.1282  0.1817 -0.4984
  167SAPE   C3818884   3.774   6.337   7.157  0.1444 -0.1233  0.7084
  167SAPE   H8X18885   3.752   6.239   7.205 -0.0612 -1.1957 -1.4928
  167SAPE   H8Y18886   3.748   6.417   7.229 -0.7799  0.3981 -0.2052
  167SAPE   C3918887   3.926   6.352   7.126  0.1776 -0.2826 -0.2769
  167SAPE   H9X18888   3.925   6.430   7.047 -1.5806 -1.1467 -1.1402
  167SAPE   H9Y18889   3.957   6.251   7.091  2.0367 -0.7481  2.5505
  167SAPE  C31018890   4.002   6.404   7.241 -0.5905  0.6467  0.6364
  167SAPE  H10X18891   3.978   6.510   7.265 -0.3157  0.7555  0.4248
  167SAPE  H10Y18892   4.110   6.401   7.217 -0.5436 -3.3272  1.0416
  167SAPE  C31118893   3.979   6.321   7.375  0.1918  0.3753  0.4226
  167SAPE  H11X18894   3.983   6.212   7.353 -1.6878  0.0711  1.4474
  167SAPE  H11Y18895   3.873   6.334   7.407  1.0748 -1.2264  4.3965
  167SAPE  C31218896   4.064   6.364   7.490  0.7775  0.1658  0.3869
  167SAPE  H12X18897   4.056   6.474   7.501 -0.4543  0.1950 -0.7133
  167SAPE  H12Y18898   4.169   6.330   7.472  0.6226  0.2079 -0.6161
  167SAPE  C31318899   4.013   6.311   7.628  0.3716  0.2932  0.3659
  167SAPE  H13X18900   4.061   6.211   7.634 -0.7269 -0.1546  1.7421
  167SAPE  H13Y18901   3.903   6.297   7.628  0.5969 -1.5693  0.4927
  167SAPE  C31418902   4.042   6.398   7.747 -0.0457 -0.2737  0.1522
  167SAPE  H14X18903   3.997   6.500   7.740  0.6440  0.0342  0.1437
  167SAPE  H14Y18904   4.150   6.426   7.747  0.1299 -0.9318  1.2535
  167SAPE  C31518905   4.000   6.323   7.876  0.3180  0.4811  0.7524
  167SAPE  H15X18906   4.060   6.231   7.896 -0.9507 -0.4820  0.1537
  167SAPE  H15Y18907   3.891   6.303   7.869  0.3778  0.7230 -0.9532
  167SAPE  C31618908   4.011   6.397   8.014 -0.0378  0.0659 -0.7912
  167SAPE  H16X18909   3.972   6.501   8.013  1.9651  0.8338 -0.8892
  167SAPE  H16Y18910   4.115   6.412   8.051 -0.9302 -1.0965  2.2606
  167SAPE  C31718911   3.930   6.326   8.128  0.4299  0.1100 -0.1765
  167SAPE  H17X18912   3.824   6.343   8.101  0.3821 -2.0904 -1.5601
  167SAPE  H17Y18913   3.962   6.367   8.226  0.7049 -1.2405  0.3076
  167SAPE  C31818914   3.941   6.173   8.130 -0.5684 -0.0377  0.2310
  167SAPE  H18X18915   3.900   6.128   8.037  2.1616  0.3068 -1.1712
  167SAPE  H18Y18916   3.892   6.130   8.220 -0.6876  0.1447  0.2524
  167SAPE  H18Z18917   4.046   6.140   8.145 -0.6458 -0.6322 -0.5467
  168SAPE     N18918   5.869   1.885   6.346 -0.2315 -0.1372  0.3824
  168SAPE   HN118919   5.935   1.901   6.267 -0.1388 -3.5948 -0.3195
  168SAPE   HN218920   5.797   1.816   6.316  0.2582  0.0211 -1.2006
  168SAPE   HN318921   5.812   1.968   6.374  1.3953  1.5034 -1.0555
  168SAPE   C1218922   5.936   1.827   6.469 -0.6649  0.1411 -0.6468
  168SAPE  H12A18923   5.864   1.822   6.553  0.0195 -0.5809 -0.1044
  168SAPE  H12B18924   6.008   1.906   6.499 -0.8934  0.9653 -2.2114
  168SAPE   C1118925   6.008   1.693   6.436  0.0524  0.3887 -0.5174
  168SAPE  H11A18926   5.949   1.634   6.364 -0.2232 -0.4731  0.3964
  168SAPE  H11B18927   6.020   1.638   6.532 -1.4533  0.3645 -0.3404
  168SAPE     P18928   6.249   1.620   6.384  0.2973  0.1088 -0.1429
  168SAPE   O1318929   6.200   1.484   6.344  0.1512  0.1817  0.0622
  168SAPE   O1418930   6.368   1.681   6.312  0.1474 -0.4741  0.0781
  168SAPE   O1218931   6.134   1.732   6.371  0.5736 -0.1111  0.2164
  168SAPE   O1118932   6.278   1.607   6.539 -0.2102 -0.2329  0.5405
  168SAPE    C118933   6.338   1.722   6.608 -1.0236 -0.8547 -0.9288
  168SAPE    HA18934   6.405   1.781   6.542 -0.9486  0.2455  0.1117
  168SAPE    HB18935   6.249   1.782   6.636  0.1178  0.2638  0.3790
  168SAPE    C218936   6.415   1.672   6.725 -0.1729 -0.7736  0.0382
  168SAPE    HS18937   6.491   1.599   6.690  0.8106  0.3971 -0.3188
  168SAPE   O2118938   6.316   1.622   6.817  0.0529  0.0939  0.1605
  168SAPE   C2118939   6.319   1.491   6.828 -0.3890 -0.2056  0.4791
  168SAPE   O2218940   6.414   1.415   6.793  0.6992  0.2100 -0.2443
  168SAPE   C2218941   6.183   1.445   6.890  0.1579 -0.3680  0.2254
  168SAPE   H2R18942   6.219   1.348   6.931 -0.2741  0.4782  2.6694
  168SAPE   H2S18943   6.150   1.520   6.966  0.5445 -0.5346  0.5621
  168SAPE    C318944   6.502   1.790   6.797  0.4732 -0.0805 -0.5434
  168SAPE    HX18945   6.429   1.873   6.799 -0.4927 -0.9264 -0.0722
  168SAPE    HY18946   6.574   1.812   6.716 -0.9431  0.7478 -1.5999
  168SAPE   O3118947   6.559   1.746   6.930  0.3114 -0.0274 -0.1308
  168SAPE   C3118948   6.586   1.858   7.003  0.5076  0.0818  0.6930
  168SAPE   O3218949   6.588   1.973   6.957 -0.5564  0.2255 -0.1737
  168SAPE   C3218950   6.590   1.821   7.150  0.2568 -0.3883 -0.0018
  168SAPE   H2X18951   6.691   1.844   7.190  0.0448  1.6013 -0.5444
  168SAPE   H2Y18952   6.555   1.716   7.150 -0.0911 -0.2715  0.0246
  168SAPE   C2318953   6.070   1.427   6.789 -0.1665  0.2209 -0.0978
  168SAPE   H3R18954   6.093   1.364   6.701  1.1430 -1.9021  1.7154
  168SAPE   H3S18955   6.044   1.524   6.741  1.6393  1.3380  1.1344
  168SAPE   C2418956   5.944   1.356   6.843  0.1405  0.4587  0.2653
  168SAPE   H4R18957   5.938   1.392   6.948 -0.0285 -0.8678  0.7144
  168SAPE   H4S18958   5.960   1.247   6.832 -1.4866  0.1490  0.8618
  168SAPE   C2518959   5.812   1.378   6.770  1.1708 -0.1821  0.5175
  168SAPE   H5R18960   5.798   1.480   6.733 -1.8314 -1.3389 -1.7382
  168SAPE   C2618961   5.716   1.285   6.752 -0.5421  0.2353  0.5507
  168SAPE   H6R18962   5.619   1.307   6.707  0.1670  0.4064 -0.9075
  168SAPE   C2718963   5.725   1.138   6.785 -0.5034 -0.0222  0.5167
  168SAPE   H7R18964   5.787   1.127   6.876  0.0653  3.5029  0.6194
  168SAPE   H7S18965   5.772   1.081   6.702  2.1685  0.9214  1.3261
  168SAPE   C2818966   5.590   1.074   6.796 -0.8849  0.6425  0.9763
  168SAPE   H8R18967   5.571   0.990   6.727  0.4149  3.2022 -2.6461
  168SAPE   C2918968   5.484   1.100   6.876  0.0869 -0.7686  0.2167
  168SAPE   H9R18969   5.389   1.047   6.858  0.6216 -1.1585 -1.5677
  168SAPE  C21018970   5.473   1.196   6.994  0.3478 -0.4424  0.1336
  168SAPE  H10R18971   5.563   1.262   6.997  0.1011  0.1154 -2.9098
  168SAPE  H10S18972   5.505   1.146   7.088  0.6754  0.1575  0.3472
  168SAPE  C21118973   5.340   1.274   7.021  0.2535 -0.3064 -0.0838
  168SAPE  H11R18974   5.343   1.383   7.001 -0.5294 -0.2170  0.2715
  168SAPE  C21218975   5.233   1.220   7.074  0.8409  0.2696 -0.3206
  168SAPE  H12R18976   5.143   1.281   7.091  1.2643  1.1445 -1.1466
  168SAPE  C21318977   5.214   1.076   7.125  0.2104 -0.5125 -0.3790
  168SAPE  H13R18978   5.231   1.080   7.235 -1.5143 -0.1169 -0.0993
  168SAPE  H13S18979   5.291   1.019   7.069  0.7418  1.5459 -1.7717
  168SAPE  C21418980   5.083   1.016   7.086 -0.0922 -0.0595  0.4662
  168SAPE  H14R18981   5.070   0.980   6.983  2.2559 -4.6394  1.6141
  168SAPE  C21518982   4.977   1.004   7.167  0.3018  0.1852 -0.6679
  168SAPE  H15R18983   4.880   0.957   7.142  1.1139 -0.9169 -1.7557
  168SAPE  C21618984   4.962   1.038   7.313 -0.0458 -0.4276 -1.1830
  168SAPE  H16R18985   5.059   1.009   7.360 -1.0684 -1.2470  0.4716
  168SAPE  H16S18986   4.881   0.984   7.366 -0.9656 -0.1776 -2.3177
  168SAPE  C21718987   4.953   1.185   7.348  0.3144  0.0405  0.4482
  168SAPE  H17R18988   4.843   1.203   7.350  0.5660  1.4706  1.5610
  168SAPE  H17S18989   4.989   1.238   7.258  0.9361 -1.5318 -0.2468
  168SAPE  C21818990   5.034   1.221   7.475 -0.4160  0.2250 -0.4262
  168SAPE  H18R18991   5.141   1.223   7.444 -0.6638 -1.7636 -1.5098
  168SAPE  H18S18992   5.011   1.144   7.552 -0.3919  0.7782  0.1361
  168SAPE  C21918993   4.983   1.352   7.536 -0.8347 -0.0273  0.0342
  168SAPE  H19R18994   5.034   1.371   7.632  0.4628  2.4713 -1.1229
  168SAPE  H19S18995   4.873   1.342   7.549 -0.8173  0.7228  0.7738
  168SAPE  C22018996   5.005   1.475   7.449 -0.0571  0.0350  0.3731
  168SAPE  H20R18997   5.115   1.488   7.436  0.0474  0.3973  1.6455
  168SAPE  H20S18998   4.953   1.567   7.483 -0.8449 -0.0609 -0.5357
  168SAPE  H20T18999   4.961   1.450   7.350  0.4712  0.0545  0.1327
  168SAPE   C3319000   6.486   1.906   7.231 -0.2667 -0.0828  0.0906
  168SAPE   H3X19001   6.385   1.875   7.197 -0.4388 -1.1977  1.5813
  168SAPE   H3Y19002   6.505   2.014   7.211  0.8932 -0.4823 -1.0469
  168SAPE   C3419003   6.510   1.869   7.381  0.2748  0.1300  0.1978
  168SAPE   H4X19004   6.613   1.890   7.418  0.2966 -1.1946  0.9282
  168SAPE   H4Y19005   6.485   1.761   7.388 -3.6567  0.9274 -0.1785
  168SAPE   C3519006   6.404   1.944   7.461  0.1445 -0.0269 -0.1542
  168SAPE   H5X19007   6.309   1.922   7.408  2.4746  0.6067 -4.8727
  168SAPE   H5Y19008   6.403   2.054   7.444  0.7068  0.1432  0.9048
  168SAPE   C3619009   6.415   1.922   7.615 -0.7066 -0.6167  0.0714
  168SAPE   H6X19010   6.523   1.934   7.637 -0.5828 -0.6122 -0.5381
  168SAPE   H6Y19011   6.389   1.817   7.640 -1.6070 -0.8590 -1.8240
  168SAPE   C3719012   6.336   2.013   7.702 -0.7240  0.4317 -0.2080
  168SAPE   H7X19013   6.248   2.052   7.647 -0.3561  0.1840 -0.9798
  168SAPE   H7Y19014   6.406   2.094   7.730  0.2170 -0.3611 -0.2219
  168SAPE   C3819015   6.278   1.966   7.839  0.0186  0.5795 -0.3243
  168SAPE   H8X19016   6.243   1.862   7.821  1.4283  0.2105 -0.9867
  168SAPE   H8Y19017   6.184   2.019   7.866  0.1954 -0.0594  1.5915
  168SAPE   C3919018   6.380   1.989   7.942  0.0934  0.3615 -0.3500
  168SAPE   H9X19019   6.422   2.090   7.926  0.2372  0.3725  0.0956
  168SAPE   H9Y19020   6.459   1.914   7.920  0.0949  0.3155 -0.1882
  168SAPE  C31019021   6.325   1.970   8.084  0.5991 -0.3562  0.3070
  168SAPE  H10X19022   6.416   1.987   8.144  0.6399  0.3687  0.0449
  168SAPE  H10Y19023   6.277   1.873   8.110  1.3832  0.1137  3.7056
  168SAPE  C31119024   6.224   2.081   8.122  0.3097 -0.0560 -0.2049
  168SAPE  H11X19025   6.129   2.070   8.065 -0.2536  1.1095  0.4934
  168SAPE  H11Y19026   6.253   2.185   8.099  2.0358 -0.9343 -2.1767
  168SAPE  C31219027   6.183   2.056   8.267 -0.9494  0.3549 -0.6524
  168SAPE  H12X19028   6.151   2.152   8.313  0.6521  0.7712 -0.4067
  168SAPE  H12Y19029   6.276   2.022   8.317 -1.0764  1.1152  0.1184
  168SAPE  C31319030   6.073   1.953   8.285  0.7808 -0.0814 -0.5243
  168SAPE  H13X19031   6.081   1.879   8.202  2.1564  1.1243 -1.5054
  168SAPE  H13Y19032   5.978   2.007   8.266  0.0597 -1.4900 -0.9891
  168SAPE  C31419033   6.080   1.885   8.418 -0.2517 -0.6802  0.5056
  168SAPE  H14X19034   6.089   1.967   8.492 -1.3475 -0.9809  0.9811
  168SAPE  H14Y19035   6.174   1.826   8.423 -0.3158 -0.6933  1.8009
  168SAPE  C31519036   5.972   1.783   8.439  0.3887 -0.4354 -0.6529
  168SAPE  H15X19037   5.974   1.698   8.368  3.5676 -1.1312  0.2047
  168SAPE  H15Y19038   5.881   1.843   8.416  1.3583  0.3246 -2.6670
  168SAPE  C31619039   5.961   1.719   8.579 -0.3156  0.5648  0.0150
  168SAPE  H16X19040   5.956   1.789   8.666 -0.7549  1.5792 -0.8233
  168SAPE  H16Y19041   6.058   1.668   8.597 -0.2995 -0.3717 -2.5549
  168SAPE  C31719042   5.849   1.611   8.597  0.7729  0.4112  0.1102
  168SAPE  H17X19043   5.850   1.576   8.703  1.8366 -1.8030 -0.6026
  168SAPE  H17Y19044   5.882   1.528   8.532  2.6741  0.1305  1.3677
  168SAPE  C31819045   5.706   1.658   8.565 -0.1852  0.3921  0.4643
  168SAPE  H18X19046   5.692   1.652   8.455 -2.9021 -1.6805  0.8547
  168SAPE  H18Y19047   5.682   1.763   8.593  0.0984  1.5374 -3.3737
  168SAPE  H18Z19048   5.627   1.595   8.612  0.0664  0.3825  0.8747
  169SAPE     N19049   4.735   3.440   6.182 -0.1400 -0.5146 -0.0840
  169SAPE   HN119050   4.670   3.504   6.232 -0.4192 -1.1977  0.4387
  169SAPE   HN219051   4.803   3.408   6.255  1.4134  1.9704 -0.3645
  169SAPE   HN319052   4.794   3.502   6.122  1.1951 -1.3121  0.3852
  169SAPE   C1219053   4.666   3.335   6.102 -0.0477 -0.7117  0.0013
  169SAPE  H12A19054   4.744   3.263   6.070 -0.0687  0.2771 -2.3876
  169SAPE  H12B19055   4.639   3.382   6.005  1.9787 -0.9829 -0.7147
  169SAPE   C1119056   4.544   3.262   6.167 -0.3572 -0.4829  0.1535
  169SAPE  H11A19057   4.590   3.209   6.252  1.8760 -1.2081 -1.4630
  169SAPE  H11B19058   4.499   3.194   6.091  0.7340  1.3681 -2.2296
  169SAPE     P19059   4.302   3.327   6.238 -0.3207 -0.1268  0.0903
  169SAPE   O1319060   4.238   3.420   6.336  0.1417  0.8076  0.3201
  169SAPE   O1419061   4.234   3.311   6.103  0.0045 -0.0608 -0.6006
  169SAPE   O1219062   4.453   3.364   6.215  0.3850 -0.2013  0.2615
  169SAPE   O1119063   4.303   3.185   6.306  0.2412 -0.4876  0.2506
  169SAPE    C119064   4.190   3.125   6.381  0.8436 -0.4563 -0.7928
  169SAPE    HA19065   4.093   3.139   6.329 -0.3461  2.7584  2.0999
  169SAPE    HB19066   4.214   3.018   6.400 -1.0963 -0.6822  0.5369
  169SAPE    C219067   4.168   3.185   6.520  1.0223 -0.5120 -0.0220
  169SAPE    HS19068   4.109   3.279   6.516  3.6685  1.2699  1.1411
  169SAPE   O2119069   4.303   3.211   6.571  0.4422 -0.3267  0.2375
  169SAPE   C2119070   4.332   3.322   6.640  0.8256  0.3687  0.4368
  169SAPE   O2219071   4.264   3.420   6.657 -0.1197  0.1136  0.0368
  169SAPE   C2219072   4.469   3.310   6.695  0.3188  0.4222 -0.5880
  169SAPE   H2R19073   4.512   3.208   6.686 -2.0836 -0.7402  0.6327
  169SAPE   H2S19074   4.522   3.388   6.636  3.1012 -0.0552  1.1834
  169SAPE    C319075   4.090   3.086   6.618  0.2079  0.1289  0.3152
  169SAPE    HX19076   4.159   3.000   6.626 -0.4053 -0.5523 -1.4294
  169SAPE    HY19077   3.988   3.059   6.584  0.0178  0.4719  0.6069
  169SAPE   O3119078   4.072   3.137   6.751  0.9171  0.5627  0.0473
  169SAPE   C3119079   3.958   3.192   6.790  0.4391 -0.2198 -0.4091
  169SAPE   O3219080   3.850   3.173   6.742  0.1823 -0.0441 -0.1199
  169SAPE   C3219081   3.992   3.262   6.925 -0.6029  0.5758 -0.5881
  169SAPE   H2X19082   4.059   3.348   6.904 -1.1977  0.3510 -3.6601
  169SAPE   H2Y19083   4.048   3.179   6.974 -2.1743 -0.8301 -1.1261
  169SAPE   C2319084   4.458   3.328   6.851 -0.2846  0.8733 -0.2859
  169SAPE   H3R19085   4.412   3.424   6.882 -0.4444  1.2278 -1.5819
  169SAPE   H3S19086   4.560   3.319   6.894 -0.5949  0.9603  0.4833
  169SAPE   C2419087   4.384   3.207   6.922 -0.3037 -0.8356  0.3770
  169SAPE   H4R19088   4.286   3.199   6.870 -0.4858  1.2290  0.3817
  169SAPE   H4S19089   4.363   3.255   7.020  0.4436  0.7816 -0.2347
  169SAPE   C2519090   4.459   3.073   6.930 -0.0236  0.6441 -0.5127
  169SAPE   H5R19091   4.473   3.026   6.832  0.8861  3.8378 -1.9898
  169SAPE   C2619092   4.478   3.009   7.049 -1.1422  0.0568  0.2606
  169SAPE   H6R19093   4.525   2.910   7.038 -1.1526  0.0662  0.1234
  169SAPE   C2719094   4.440   3.055   7.181 -0.8606 -0.0453  0.3379
  169SAPE   H7R19095   4.442   2.962   7.241  0.3470  0.5251  1.1956
  169SAPE   H7S19096   4.339   3.101   7.186 -0.7966  0.4614 -2.3700
  169SAPE   C2819097   4.533   3.154   7.246  0.2737  0.5391 -0.0777
  169SAPE   H8R19098   4.624   3.182   7.189  1.3754 -0.5029  1.1318
  169SAPE   C2919099   4.520   3.202   7.370 -0.4587 -0.3216  0.7406
  169SAPE   H9R19100   4.596   3.271   7.409 -1.0729 -0.4409  2.1775
  169SAPE  C21019101   4.400   3.167   7.454 -0.5707  0.1103  0.0145
  169SAPE  H10R19102   4.324   3.099   7.410  1.0916 -1.0296 -1.1463
  169SAPE  H10S19103   4.344   3.260   7.478 -1.4840 -1.2043  3.1896
  169SAPE  C21119104   4.450   3.104   7.578 -0.5607 -0.3425  0.2905
  169SAPE  H11R19105   4.478   2.998   7.569  0.6147  0.1372 -2.3942
  169SAPE  C21219106   4.472   3.159   7.697  0.4227 -0.8498  0.3631
  169SAPE  H12R19107   4.493   3.107   7.791 -0.0589  1.1044  1.5985
  169SAPE  C21319108   4.434   3.306   7.728  0.8130  0.2438  0.1568
  169SAPE  H13R19109   4.448   3.363   7.634 -1.4216 -0.4936 -0.6541
  169SAPE  H13S19110   4.505   3.355   7.798 -0.6035 -1.1121  2.6051
  169SAPE  C21419111   4.290   3.317   7.764  0.0753 -0.2439 -0.1469
  169SAPE  H14R19112   4.218   3.281   7.689  1.2005 -0.4707 -1.1392
  169SAPE  C21519113   4.245   3.367   7.883  0.3088  0.0975 -0.0014
  169SAPE  H15R19114   4.140   3.345   7.907  0.3263  0.3996  0.3539
  169SAPE  C21619115   4.334   3.428   7.994 -0.4566  0.5831  0.3666
  169SAPE  H16R19116   4.308   3.536   7.996 -2.1926  0.1706  0.5775
  169SAPE  H16S19117   4.443   3.416   7.976 -0.5514 -0.3896  0.4194
  169SAPE  C21719118   4.308   3.373   8.137 -0.7410  0.1207 -0.1177
  169SAPE  H17R19119   4.198   3.373   8.150 -0.5895  3.6962  1.5411
  169SAPE  H17S19120   4.339   3.452   8.208 -1.1835 -1.2947  1.6995
  169SAPE  C21819121   4.363   3.235   8.163  0.7047  0.0183 -0.0755
  169SAPE  H18R19122   4.467   3.227   8.126  1.4972 -0.9924  2.3072
  169SAPE  H18S19123   4.306   3.159   8.105  0.8901  0.3775 -0.7346
  169SAPE  C21919124   4.368   3.196   8.312 -0.0271  0.2634 -0.1030
  169SAPE  H19R19125   4.267   3.211   8.356 -0.0922  0.6201 -0.3784
  169SAPE  H19S19126   4.432   3.264   8.372  3.2120 -1.9582 -0.9320
  169SAPE  C22019127   4.415   3.051   8.339  0.1740  0.6658  0.2092
  169SAPE  H20R19128   4.524   3.037   8.321 -0.2978  0.9022 -3.1249
  169SAPE  H20S19129   4.353   2.982   8.278 -0.5420  2.4910 -1.1922
  169SAPE  H20T19130   4.394   3.028   8.445  1.3194 -0.3662  0.2192
  169SAPE   C3319131   3.867   3.311   7.004  0.1122  0.8438  0.0452
  169SAPE   H3X19132   3.789   3.233   7.010  0.2366  0.7273  0.1641
  169SAPE   H3Y19133   3.821   3.385   6.936 -0.1985 -1.0529 -1.8629
  169SAPE   C3419134   3.890   3.371   7.143  0.3219 -0.4473  0.2354
  169SAPE   H4X19135   3.795   3.360   7.200 -0.4181 -0.1836 -0.9284
  169SAPE   H4Y19136   3.918   3.479   7.136 -0.7164 -0.3987 -4.8416
  169SAPE   C3519137   4.008   3.307   7.231 -0.5692 -0.1967  0.3045
  169SAPE   H5X19138   4.106   3.308   7.177 -0.0209  0.9146  1.3219
  169SAPE   H5Y19139   3.983   3.199   7.227  0.7010 -0.4522 -1.6076
  169SAPE   C3619140   4.022   3.367   7.367 -0.4601 -0.5377 -0.8429
  169SAPE   H6X19141   4.007   3.478   7.366  2.4713 -0.0855 -4.0239
  169SAPE   H6Y19142   4.121   3.353   7.414 -1.5452 -0.5086  1.5356
  169SAPE   C3719143   3.928   3.307   7.469  0.5311 -0.2315 -0.4192
  169SAPE   H7X19144   3.968   3.214   7.514 -0.3086 -0.1038  0.6140
  169SAPE   H7Y19145   3.831   3.277   7.423  0.1969 -1.1686  0.8768
  169SAPE   C3819146   3.897   3.395   7.589  0.1068 -0.1486  0.0443
  169SAPE   H8X19147   3.818   3.470   7.567  0.4756  0.4508  0.7703
  169SAPE   H8Y19148   3.985   3.452   7.626 -1.7561  2.6364  0.3228
  169SAPE   C3919149   3.851   3.312   7.712  0.1712 -0.1953 -0.1026
  169SAPE   H9X19150   3.942   3.264   7.753  0.1858 -1.2513 -1.3103
  169SAPE   H9Y19151   3.777   3.230   7.695  0.0425 -0.0897 -0.0492
  169SAPE  C31019152   3.806   3.409   7.824  1.0109 -0.0596  0.1750
  169SAPE  H10X19153   3.725   3.472   7.780 -0.8244 -2.4082  0.0724
  169SAPE  H10Y19154   3.892   3.472   7.855  1.8515 -1.0691 -0.1018
  169SAPE  C31119155   3.755   3.354   7.952  0.4199 -0.0373 -0.8680
  169SAPE  H11X19156   3.846   3.297   7.983  0.6739  0.7000 -0.2332
  169SAPE  H11Y19157   3.672   3.281   7.945  0.6890 -0.3816 -0.5423
  169SAPE  C31219158   3.714   3.473   8.049 -0.5218 -0.0813  0.3148
  169SAPE  H12X19159   3.613   3.513   8.023 -0.8515 -1.3788 -0.5116
  169SAPE  H12Y19160   3.794   3.549   8.045  1.2103 -1.7631  1.9631
  169SAPE  C31319161   3.706   3.431   8.197  0.1237  1.1088  0.2969
  169SAPE  H13X19162   3.640   3.342   8.210 -2.5830  2.4080 -3.5252
  169SAPE  H13Y19163   3.659   3.507   8.263 -0.0924  1.5201 -0.3311
  169SAPE  C31419164   3.838   3.395   8.253 -0.0758  0.5927  0.2088
  169SAPE  H14X19165   3.887   3.494   8.268  0.5753  0.5138 -1.3319
  169SAPE  H14Y19166   3.897   3.328   8.187  0.0967  2.0024 -1.0938
  169SAPE  C31519167   3.828   3.309   8.389 -0.2824 -0.4605 -0.1713
  169SAPE  H15X19168   3.790   3.208   8.364 -0.8922 -0.4426  0.6635
  169SAPE  H15Y19169   3.755   3.372   8.445 -0.0567 -1.9017  1.8150
  169SAPE  C31619170   3.969   3.288   8.454  0.4942 -0.1435  0.3117
  169SAPE  H16X19171   4.008   3.389   8.477  1.7474 -0.8633  1.3478
  169SAPE  H16Y19172   4.038   3.240   8.382  1.5871  1.4958  0.2481
  169SAPE  C31719173   3.972   3.200   8.580 -0.3131  0.0428  0.4747
  169SAPE  H17X19174   4.075   3.200   8.623  0.6226 -2.1678 -1.6777
  169SAPE  H17Y19175   3.944   3.098   8.545  3.2497  0.0889 -2.8312
  169SAPE  C31819176   3.877   3.258   8.693 -0.5047 -0.5903 -0.1996
  169SAPE  H18X19177   3.920   3.210   8.784  0.7832  0.5409 -0.2040
  169SAPE  H18Y19178   3.769   3.238   8.678 -1.0829  0.3786  2.3999
  169SAPE  H18Z19179   3.917   3.361   8.687  1.6447 -1.1949  2.3881
  170SAPE     N19180   5.861   0.153   6.105  0.1108  0.3763 -0.4419
  170SAPE   HN119181   5.959   0.188   6.106 -0.3401  1.7526 -1.8894
  170SAPE   HN219182   5.850   0.060   6.059 -0.3316 -0.7598  1.9241
  170SAPE   HN319183   5.810   0.232   6.061  0.3217  0.6957 -0.1140
  170SAPE   C1219184   5.818   0.152   6.255 -0.0088 -0.6107 -0.2218
  170SAPE  H12A19185   5.822   0.253   6.301  0.2929 -1.0564  0.7410
  170SAPE  H12B19186   5.883   0.085   6.316  0.0367 -0.9241 -0.6114
  170SAPE   C1119187   5.674   0.090   6.269 -0.4612 -0.6063  0.3162
  170SAPE  H11A19188   5.654   0.086   6.379 -3.3342 -0.8584 -0.1795
  170SAPE  H11B19189   5.669  -0.018   6.244 -0.7212 -0.7119  0.8114
  170SAPE     P19190   5.507   0.284   6.261 -0.3245 -0.1745 -0.0975
  170SAPE   O1319191   5.612   0.384   6.274  0.3903  0.3325  0.1548
  170SAPE   O1419192   5.389   0.331   6.184 -0.3697  0.4024  0.9169
  170SAPE   O1219193   5.572   0.163   6.197 -0.6271 -0.2162  0.1039
  170SAPE   O1119194   5.470   0.225   6.399 -0.2092  0.7655 -0.3594
  170SAPE    C119195   5.350   0.148   6.431 -0.2306 -0.0139  0.6031
  170SAPE    HA19196   5.338   0.068   6.356  1.8668  1.0621 -0.9274
  170SAPE    HB19197   5.355   0.104   6.533  0.0336 -1.6151 -0.0998
  170SAPE    C219198   5.219   0.233   6.435  0.4772  0.8870  0.2588
  170SAPE    HS19199   5.219   0.297   6.345 -2.7188  0.4530 -0.1108
  170SAPE   O2119200   5.236   0.314   6.556  0.7013  0.1855 -0.3603
  170SAPE   C2119201   5.189   0.436   6.552 -0.9586  0.1163  0.0094
  170SAPE   O2219202   5.118   0.482   6.460  0.3361 -0.3257 -0.2189
  170SAPE   C2219203   5.237   0.509   6.678  0.0250 -0.0800 -0.1467
  170SAPE   H2R19204   5.191   0.462   6.768 -1.6390  1.9038  0.0755
  170SAPE   H2S19205   5.346   0.526   6.688 -0.2755  1.2802  1.0673
  170SAPE    C319206   5.091   0.152   6.431  0.0027 -0.4884  0.3239
  170SAPE    HX19207   5.114   0.084   6.346 -2.1218 -0.4548 -0.3078
  170SAPE    HY19208   5.009   0.224   6.409  1.6608  1.3080 -0.0825
  170SAPE   O3119209   5.063   0.069   6.550 -0.3248 -0.4970 -0.4169
  170SAPE   C3119210   4.986   0.120   6.639  0.5429  0.2467  0.4540
  170SAPE   O3219211   4.921   0.224   6.628 -0.1207  0.2383  0.1833
  170SAPE   C3219212   5.003   0.020   6.757  0.4688 -0.1637 -0.3490
  170SAPE   H2X19213   5.111   0.003   6.777  0.1613  0.3638  1.9200
  170SAPE   H2Y19214   4.964  -0.078   6.722  0.1134 -0.0408 -0.2998
  170SAPE   C2319215   5.181   0.655   6.664 -0.1202  0.0675 -0.3998
  170SAPE   H3R19216   5.076   0.664   6.631 -0.0941 -0.3904 -0.6060
  170SAPE   H3S19217   5.235   0.704   6.580  0.0391 -1.1412 -1.0117
  170SAPE   C2419218   5.194   0.731   6.798 -0.0295 -0.1396  0.3273
  170SAPE   H4R19219   5.150   0.661   6.872 -0.3483  0.1462  0.4110
  170SAPE   H4S19220   5.149   0.833   6.800 -1.4840 -0.6339 -3.7373
  170SAPE   C2519221   5.339   0.744   6.826 -0.2826  0.0772 -0.0824
  170SAPE   H5R19222   5.410   0.774   6.748  1.0948  1.1362  1.5620
  170SAPE   C2619223   5.398   0.708   6.944 -0.1076  0.1028  0.2891
  170SAPE   H6R19224   5.508   0.711   6.944  0.0512 -3.5185 -0.0900
  170SAPE   C2719225   5.331   0.654   7.064  0.0048 -0.1699 -0.2387
  170SAPE   H7R19226   5.387   0.573   7.116 -2.8061 -0.0061  3.2967
  170SAPE   H7S19227   5.235   0.606   7.033  0.9994 -1.8154 -0.8121
  170SAPE   C2819228   5.303   0.753   7.168  0.7018 -0.0097 -0.4961
  170SAPE   H8R19229   5.197   0.776   7.183  1.1397  1.1073  1.0019
  170SAPE   C2919230   5.389   0.825   7.240  0.0838 -0.6576 -1.0678
  170SAPE   H9R19231   5.345   0.886   7.320 -3.6264 -2.0029 -2.0023
  170SAPE  C21019232   5.540   0.822   7.236 -0.9970  0.1718  0.6728
  170SAPE  H10R19233   5.569   0.876   7.143 -2.9376 -0.4595 -0.3208
  170SAPE  H10S19234   5.576   0.718   7.219  1.5904  0.8681  1.6956
  170SAPE  C21119235   5.599   0.878   7.364  0.2393 -0.0670 -0.2501
  170SAPE  H11R19236   5.599   0.988   7.374  3.1158  0.1468 -1.8253
  170SAPE  C21219237   5.629   0.813   7.479  0.2083 -0.3087  0.3941
  170SAPE  H12R19238   5.679   0.864   7.562  0.8302  0.9511 -0.7286
  170SAPE  C21319239   5.621   0.662   7.509 -0.0073 -0.3302  0.3261
  170SAPE  H13R19240   5.578   0.611   7.420 -0.6220  1.1688 -0.2523
  170SAPE  H13S19241   5.538   0.636   7.578  0.9779  0.9425  2.0334
  170SAPE  C21419242   5.761   0.610   7.550  0.5553 -0.4150 -0.2782
  170SAPE  H14R19243   5.799   0.622   7.652  0.8729  0.4226 -0.4925
  170SAPE  C21519244   5.854   0.557   7.459  0.7945  0.4548  0.3094
  170SAPE  H15R19245   5.948   0.509   7.488  0.1974 -1.6160 -1.0974
  170SAPE  C21619246   5.820   0.527   7.315  0.3624  0.5955  0.1434
  170SAPE  H16R19247   5.911   0.550   7.256 -0.1543 -0.2652 -1.0017
  170SAPE  H16S19248   5.744   0.600   7.282 -1.4433 -1.3593 -0.1101
  170SAPE  C21719249   5.770   0.383   7.297  0.4509  0.1654 -0.0187
  170SAPE  H17R19250   5.682   0.347   7.355 -1.3129 -0.9702 -3.2744
  170SAPE  H17S19251   5.858   0.322   7.325 -0.8875 -1.6066  0.3978
  170SAPE  C21819252   5.731   0.340   7.153 -0.1757  0.5318 -1.1094
  170SAPE  H18R19253   5.645   0.395   7.109 -1.4922  0.1982  0.9350
  170SAPE  H18S19254   5.710   0.231   7.159 -2.4222  1.0493  1.8412
  170SAPE  C21919255   5.846   0.345   7.056 -0.8767  1.0091  0.9181
  170SAPE  H19R19256   5.934   0.288   7.091 -0.4827  1.0119 -0.0448
  170SAPE  H19S19257   5.888   0.445   7.034  1.9585 -0.6633 -1.7147
  170SAPE  C22019258   5.816   0.256   6.932  0.1687 -0.4352  0.7033
  170SAPE  H20R19259   5.899   0.265   6.859 -0.6023 -0.0485 -0.1436
  170SAPE  H20S19260   5.726   0.291   6.877 -0.0448  3.2011  3.2443
  170SAPE  H20T19261   5.811   0.149   6.964  1.5731 -1.8095 -3.3665
  170SAPE   C3319262   4.945   0.062   6.892 -0.2075  0.3915  0.3139
  170SAPE   H3X19263   4.835   0.074   6.883 -0.5253 -2.3028  0.3201
  170SAPE   H3Y19264   5.000   0.149   6.934 -0.1797  0.9046 -0.7888
  170SAPE   C3419265   4.961  -0.053   6.995  0.2947  0.3787  0.3627
  170SAPE   H4X19266   5.066  -0.089   7.000  0.3684  0.5033 -0.3253
  170SAPE   H4Y19267   4.904  -0.142   6.959 -0.7212  0.6709  1.2233
  170SAPE   C3519268   4.908  -0.018   7.132 -0.3498  0.6280  0.1131
  170SAPE   H5X19269   4.797  -0.014   7.131 -0.3570  0.8256  1.3350
  170SAPE   H5Y19270   4.938   0.082   7.169 -2.0502  1.1749  0.0743
  170SAPE   C3619271   4.951  -0.117   7.241  0.5134  0.2071 -0.2788
  170SAPE   H6X19272   5.061  -0.110   7.252  0.5039 -1.8938  1.5778
  170SAPE   H6Y19273   4.920  -0.222   7.223  0.1886  0.7093 -2.8496
  170SAPE   C3719274   4.888  -0.065   7.370  0.5632 -0.5925  0.1244
  170SAPE   H7X19275   4.777  -0.064   7.373  0.5422  0.4985 -0.8293
  170SAPE   H7Y19276   4.919   0.041   7.375 -1.3271  0.0326 -0.7702
  170SAPE   C3819277   4.954  -0.129   7.486 -0.2634 -0.0912 -1.5172
  170SAPE   H8X19278   5.064  -0.115   7.476 -0.4155  2.2867 -0.3113
  170SAPE   H8Y19279   4.936  -0.238   7.485  2.9798 -0.7151 -0.4867
  170SAPE   C3919280   4.900  -0.055   7.609 -0.2385  0.1367 -0.2183
  170SAPE   H9X19281   4.792  -0.032   7.605 -0.5174 -1.3062 -1.6747
  170SAPE   H9Y19282   4.958   0.038   7.622 -1.2701  0.8494 -0.7112
  170SAPE  C31019283   4.928  -0.148   7.735 -0.2234 -0.5625  0.0547
  170SAPE  H10X19284   5.028  -0.194   7.720  0.4738  0.4895  1.4334
  170SAPE  H10Y19285   4.852  -0.228   7.746 -0.8716  0.4020  2.9583
  170SAPE  C31119286   4.929  -0.072   7.871  0.2856  0.2146  0.0286
  170SAPE  H11X19287   4.841  -0.005   7.879  0.8807  0.8199  2.1347
  170SAPE  H11Y19288   5.023  -0.012   7.867 -0.4952  1.4271 -0.4287
  170SAPE  C31219289   4.936  -0.173   7.984 -0.7409 -0.5261  0.0732
  170SAPE  H12X19290   5.023  -0.238   7.960  0.5106  1.2996 -0.4189
  170SAPE  H12Y19291   4.850  -0.243   7.993  0.8858 -2.8390 -1.8351
  170SAPE  C31319292   4.961  -0.107   8.118  0.8654  0.1511 -0.2871
  170SAPE  H13X19293   4.878  -0.036   8.141  1.0544  0.5265 -0.7567
  170SAPE  H13Y19294   5.054  -0.047   8.123 -0.0592  1.6253 -0.3696
  170SAPE  C31419295   4.960  -0.216   8.230  0.4904  0.3153  0.6133
  170SAPE  H14X19296   5.028  -0.300   8.204  1.8793  1.2546  1.1572
  170SAPE  H14Y19297   4.854  -0.249   8.232  0.7371 -0.5526 -0.5137
  170SAPE  C31519298   5.020  -0.145   8.359  0.2939 -0.6363  0.1072
  170SAPE  H15X19299   4.938  -0.081   8.398 -0.8776 -0.4102 -2.5571
  170SAPE  H15Y19300   5.100  -0.073   8.330  2.5758 -2.8518  0.7514
  170SAPE  C31619301   5.074  -0.240   8.471 -0.3400  0.5755 -0.1894
  170SAPE  H16X19302   5.148  -0.301   8.415  0.4876  2.4621 -1.1798
  170SAPE  H16Y19303   4.990  -0.305   8.504 -0.7002  1.3530  0.4551
  170SAPE  C31719304   5.151  -0.165   8.582  0.1169 -0.3333 -0.2876
  170SAPE  H17X19305   5.237  -0.124   8.526 -0.1215  3.2348  1.8157
  170SAPE  H17Y19306   5.188  -0.231   8.663 -2.2728 -2.9262 -1.2189
  170SAPE  C31819307   5.076  -0.043   8.631 -0.5794 -0.2367  0.3699
  170SAPE  H18X19308   4.981  -0.069   8.683 -0.0562 -2.9223  0.0498
  170SAPE  H18Y19309   5.044   0.029   8.553  1.3335  1.2964  0.9645
  170SAPE  H18Z19310   5.144   0.013   8.699  1.7289 -1.1178 -1.1647
  171SAPE     N19311   0.827   0.785   6.310 -0.3284 -0.2935  0.6289
  171SAPE   HN119312   0.760   0.820   6.239  0.3717  0.3759  0.2953
  171SAPE   HN219313   0.907   0.729   6.274 -0.6917 -0.0086 -0.6276
  171SAPE   HN319314   0.766   0.734   6.377 -1.6319 -0.3749 -0.6088
  171SAPE   C1219315   0.870   0.908   6.378  0.6913 -0.2009 -0.0360
  171SAPE  H12A19316   0.921   0.968   6.300  0.1788 -1.0900 -1.0766
  171SAPE  H12B19317   0.945   0.881   6.456  0.2544  1.3988  0.9471
  171SAPE   C1119318   0.751   0.982   6.441 -0.4025 -0.2166  0.3575
  171SAPE  H11A19319   0.782   1.062   6.511  0.1563  0.2838 -0.4593
  171SAPE  H11B19320   0.694   0.911   6.505  2.1267 -0.9374  1.8820
  171SAPE     P19321   0.582   1.159   6.345 -0.2348 -0.4540  0.0576
  171SAPE   O1319322   0.644   1.271   6.269  0.2508 -0.2487 -0.4509
  171SAPE   O1419323   0.453   1.112   6.304 -0.1193 -0.2766 -0.7295
  171SAPE   O1219324   0.666   1.026   6.339  0.3639 -0.4088 -0.2620
  171SAPE   O1119325   0.576   1.196   6.495 -0.8076 -0.5203  0.1078
  171SAPE    C119326   0.455   1.234   6.554 -0.1330  0.4029 -0.2251
  171SAPE    HA19327   0.422   1.337   6.528 -0.9853  0.2946  0.4318
  171SAPE    HB19328   0.366   1.177   6.522  0.4548 -0.8056  0.2807
  171SAPE    C219329   0.456   1.229   6.709  0.3040 -0.3009  0.6704
  171SAPE    HS19330   0.354   1.246   6.749 -0.0027 -1.4068  0.3701
  171SAPE   O2119331   0.543   1.335   6.746 -0.4875  0.4246 -0.1285
  171SAPE   C2119332   0.516   1.397   6.859 -0.1847 -0.7736  0.2074
  171SAPE   O2219333   0.402   1.402   6.911  0.2832  0.0136 -0.3404
  171SAPE   C2219334   0.643   1.454   6.920  0.2767 -0.1544  0.1205
  171SAPE   H2R19335   0.701   1.364   6.950  0.4286  0.4261  1.5952
  171SAPE   H2S19336   0.700   1.502   6.838  1.6838 -1.4060  0.3521
  171SAPE    C319337   0.509   1.093   6.765  0.3630 -0.3675 -0.0839
  171SAPE    HX19338   0.602   1.066   6.709  0.4925 -2.3765  1.0410
  171SAPE    HY19339   0.443   1.011   6.731  0.2953  0.7343 -2.6914
  171SAPE   O3119340   0.539   1.090   6.909 -0.2632 -0.1502 -0.1235
  171SAPE   C3119341   0.429   1.083   6.983  0.3950 -0.3988  0.4760
  171SAPE   O3219342   0.317   1.058   6.946 -0.1693 -0.4608  0.0972
  171SAPE   C3219343   0.462   1.102   7.128 -0.3479 -0.1284  0.1553
  171SAPE   H2X19344   0.466   1.210   7.154 -1.2557 -0.1183  0.2522
  171SAPE   H2Y19345   0.555   1.042   7.139 -0.7979 -0.7883  0.3429
  171SAPE   C2319346   0.631   1.543   7.045  0.1821  0.2289 -0.2711
  171SAPE   H3R19347   0.554   1.623   7.032  1.0465  1.5471  2.3156
  171SAPE   H3S19348   0.725   1.601   7.049 -0.4823  1.4118 -1.5550
  171SAPE   C2419349   0.611   1.460   7.173 -0.5153  1.1484  0.3889
  171SAPE   H4R19350   0.511   1.413   7.178  0.0389  0.0589  1.3111
  171SAPE   H4S19351   0.588   1.526   7.259 -3.1989  1.0131 -0.1726
  171SAPE   C2519352   0.725   1.364   7.208 -0.2432  0.3801  0.0694
  171SAPE   H5R19353   0.779   1.341   7.115  0.3647  0.8120  0.3104
  171SAPE   C2619354   0.776   1.329   7.332  0.4269  0.1144  0.7339
  171SAPE   H6R19355   0.864   1.263   7.329  1.1085  1.0525 -0.7125
  171SAPE   C2719356   0.730   1.359   7.475  0.0951 -0.2408  0.5235
  171SAPE   H7R19357   0.721   1.264   7.533 -1.3682  0.3025  1.2027
  171SAPE   H7S19358   0.628   1.402   7.476 -0.5319 -1.6244 -1.2014
  171SAPE   C2819359   0.836   1.450   7.532  0.6099  0.2235 -0.0516
  171SAPE   H8R19360   0.886   1.513   7.457 -0.8741  0.4774 -0.8665
  171SAPE   C2919361   0.854   1.468   7.665 -0.7253 -0.0618  0.5163
  171SAPE   H9R19362   0.940   1.530   7.695 -0.0445 -0.7669  0.0340
  171SAPE  C21019363   0.783   1.394   7.773  1.1970  0.6881 -0.0774
  171SAPE  H10R19364   0.683   1.360   7.738  0.9956 -0.7807  1.8359
  171SAPE  H10S19365   0.770   1.472   7.851 -0.9858  1.9343 -1.6431
  171SAPE  C21119366   0.866   1.275   7.811 -0.2219  0.0339  0.9724
  171SAPE  H11R19367   0.889   1.205   7.729  0.6639 -0.5682  1.7223
  171SAPE  C21219368   0.893   1.242   7.942 -0.1897  0.4364 -0.2476
  171SAPE  H12R19369   0.955   1.152   7.958  0.0220  0.1797 -2.3877
  171SAPE  C21319370   0.854   1.326   8.063 -0.5255 -0.0343  0.6153
  171SAPE  H13R19371   0.811   1.425   8.037  0.1016  0.4218  1.2798
  171SAPE  H13S19372   0.948   1.345   8.119  1.0276 -2.6338 -1.0252
  171SAPE  C21419373   0.755   1.249   8.146  0.0300  0.3067  0.3578
  171SAPE  H14R19374   0.795   1.162   8.201 -2.3037 -0.1434  1.3672
  171SAPE  C21519375   0.623   1.277   8.159  0.9346 -0.0753  0.9089
  171SAPE  H15R19376   0.566   1.199   8.211  0.9987 -0.0365  1.0364
  171SAPE  C21619377   0.543   1.391   8.100  0.0358 -0.1290  0.6009
  171SAPE  H16R19378   0.597   1.428   8.011  0.7000 -0.3949  0.8924
  171SAPE  H16S19379   0.550   1.478   8.168 -2.3806  1.4859 -1.1391
  171SAPE  C21719380   0.393   1.356   8.082  0.6042  0.7431 -0.1712
  171SAPE  H17R19381   0.358   1.425   8.001  2.0061  0.9496 -0.6021
  171SAPE  H17S19382   0.334   1.367   8.176  2.8235  1.2679  1.1784
  171SAPE  C21819383   0.365   1.218   8.019  0.2238  0.7123 -0.4023
  171SAPE  H18R19384   0.255   1.202   8.011  0.3593 -0.1007 -0.7109
  171SAPE  H18S19385   0.403   1.137   8.085  0.4015  0.1173 -1.2238
  171SAPE  C21919386   0.421   1.201   7.881 -0.3783  0.0807 -0.4588
  171SAPE  H19R19387   0.528   1.222   7.903 -0.6581  2.1105 -0.8966
  171SAPE  H19S19388   0.388   1.283   7.814  1.2914  2.5323  1.5935
  171SAPE  C22019389   0.410   1.065   7.816  0.2454 -0.3932  0.0938
  171SAPE  H20R19390   0.475   0.988   7.863  0.2508  1.0597  2.5640
  171SAPE  H20S19391   0.451   1.074   7.713 -1.0275  2.7128 -0.1839
  171SAPE  H20T19392   0.306   1.027   7.810  0.4085 -0.7757 -0.3440
  171SAPE   C3319393   0.352   1.057   7.220 -0.3833  1.1835 -0.0178
  171SAPE   H3X19394   0.340   0.947   7.205  0.6007  0.9384  0.9416
  171SAPE   H3Y19395   0.255   1.108   7.200  0.5365  2.7990 -0.4308
  171SAPE   C3419396   0.392   1.061   7.371 -0.0112  0.3751 -0.4198
  171SAPE   H4X19397   0.435   1.161   7.393  0.0808  0.0244  0.9941
  171SAPE   H4Y19398   0.465   0.982   7.397 -1.6209 -0.5537  1.4045
  171SAPE   C3519399   0.275   1.040   7.470 -0.3942  0.1054  0.2173
  171SAPE   H5X19400   0.302   1.037   7.578  1.2408  0.8686 -0.1513
  171SAPE   H5Y19401   0.242   0.935   7.459 -0.6079  0.2649 -0.6397
  171SAPE   C3619402   0.159   1.149   7.458 -0.1686 -0.2361  0.3911
  171SAPE   H6X19403   0.128   1.169   7.353 -0.6410 -1.7005  0.2291
  171SAPE   H6Y19404   0.196   1.246   7.496 -0.5917  1.0058 -2.2262
  171SAPE   C3719405   0.022   1.104   7.512  0.4656 -0.3483 -0.8261
  171SAPE   H7X19406  -0.035   1.200   7.514  0.3465 -0.4289 -0.2478
  171SAPE   H7Y19407   0.032   1.070   7.618  0.1201  0.6497 -0.4676
  171SAPE   C3819408  -0.050   1.002   7.420 -0.0782 -0.1695  0.2764
  171SAPE   H8X19409  -0.013   0.898   7.426  1.3163  0.3248  0.4157
  171SAPE   H8Y19410  -0.038   1.030   7.313 -0.9572 -0.4523  0.0977
  171SAPE   C3919411  -0.202   0.998   7.449  0.5269 -0.0887 -0.1131
  171SAPE   H9X19412  -0.250   0.937   7.369  0.0378 -0.9944  0.8574
  171SAPE   H9Y19413  -0.243   1.100   7.433 -0.4460 -0.8642 -2.7426
  171SAPE  C31019414  -0.235   0.923   7.575 -0.2969  0.6987  0.1167
  171SAPE  H10X19415  -0.172   0.955   7.662  0.7590  0.1845 -0.4495
  171SAPE  H10Y19416  -0.204   0.816   7.567  0.7222  1.1235 -1.7526
  171SAPE  C31119417  -0.381   0.946   7.609 -0.6209  0.3200  0.5209
  171SAPE  H11X19418  -0.446   0.898   7.533  0.8597  1.2436 -1.3520
  171SAPE  H11Y19419  -0.419   1.051   7.614  0.0944  0.5954  0.1337
  171SAPE  C31219420  -0.420   0.875   7.737 -0.1047 -0.1156 -0.2291
  171SAPE  H12X19421  -0.366   0.778   7.740  0.6895  0.3830  3.1873
  171SAPE  H12Y19422  -0.527   0.845   7.736  0.2728 -1.6734  1.8201
  171SAPE  C31319423  -0.394   0.954   7.872  0.1487 -0.2091  0.1167
  171SAPE  H13X19424  -0.449   1.050   7.870 -1.9917 -1.3961  0.3097
  171SAPE  H13Y19425  -0.287   0.981   7.877  0.7099 -2.3724  0.2618
  171SAPE  C31419426  -0.443   0.887   8.002 -0.3140 -0.5523  0.0054
  171SAPE  H14X19427  -0.553   0.879   8.011 -0.0211 -5.2381  0.6586
  171SAPE  H14Y19428  -0.416   0.958   8.083 -1.1896  0.3229 -0.4561
  171SAPE  C31519429  -0.381   0.746   8.026 -0.4488 -0.7534  0.0590
  171SAPE  H15X19430  -0.286   0.742   7.969 -0.3328 -0.3443  0.2173
  171SAPE  H15Y19431  -0.456   0.679   7.979 -0.8066 -0.0015 -0.4484
  171SAPE  C31619432  -0.339   0.728   8.174  0.7852 -0.7449  0.3050
  171SAPE  H16X19433  -0.307   0.830   8.203  0.6449 -0.8545  0.8472
  171SAPE  H16Y19434  -0.248   0.664   8.179  0.7567 -0.8672 -0.6315
  171SAPE  C31719435  -0.461   0.697   8.265 -0.2828  0.4449 -0.8859
  171SAPE  H17X19436  -0.550   0.762   8.251 -0.7995 -0.5433 -2.2206
  171SAPE  H17Y19437  -0.429   0.703   8.372 -0.9972 -0.8702 -0.5965
  171SAPE  C31819438  -0.528   0.557   8.250 -0.0655 -0.1579  0.1801
  171SAPE  H18X19439  -0.583   0.526   8.341 -1.0051 -0.7636 -0.5923
  171SAPE  H18Y19440  -0.453   0.475   8.246  0.1625 -0.0051  1.3705
  171SAPE  H18Z19441  -0.593   0.548   8.160  0.3995 -1.3753 -0.0487
  172SAPE     N19442   0.018   0.166   6.007  0.2076 -0.2340  0.4943
  172SAPE   HN119443   0.046   0.267   6.009 -0.1746 -0.0688 -1.3736
  172SAPE   HN219444   0.095   0.117   5.957 -0.0776  0.6206 -0.8170
  172SAPE   HN319445  -0.068   0.159   5.950  1.9198  0.4914 -2.3078
  172SAPE   C1219446  -0.010   0.093   6.131 -0.1863  0.5099 -1.1546
  172SAPE  H12A19447   0.070   0.106   6.207 -2.2296 -2.6977  1.6794
  172SAPE  H12B19448  -0.013  -0.012   6.098  2.3321  0.3788 -1.0577
  172SAPE   C1119449  -0.149   0.128   6.185  0.1303  0.1434  1.1534
  172SAPE  H11A19450  -0.161   0.234   6.218  0.6097  1.2429 -2.0212
  172SAPE  H11B19451  -0.162   0.073   6.281  0.8355  0.0110  1.1812
  172SAPE     P19452  -0.332  -0.036   6.103 -0.0423 -0.4328 -0.0963
  172SAPE   O1319453  -0.453  -0.029   6.017  0.2875 -0.0808  0.4216
  172SAPE   O1419454  -0.235  -0.145   6.080  0.7298 -0.2780 -0.1728
  172SAPE   O1219455  -0.248   0.094   6.090 -0.4806 -0.1957  0.5381
  172SAPE   O1119456  -0.385  -0.047   6.256  0.0802 -0.1670  0.7159
  172SAPE    C119457  -0.423   0.073   6.321 -0.2994  1.4128 -0.8835
  172SAPE    HA19458  -0.332   0.117   6.368  0.4505 -0.2733 -0.7351
  172SAPE    HB19459  -0.481   0.145   6.259 -1.3571 -0.8275 -2.5765
  172SAPE    C219460  -0.528   0.032   6.435  0.3068  0.4195 -0.0573
  172SAPE    HS19461  -0.580   0.114   6.489 -2.3672 -0.8968 -0.5641
  172SAPE   O2119462  -0.469  -0.042   6.538 -0.3631 -0.4081  0.4553
  172SAPE   C2119463  -0.419   0.032   6.634  0.3501  0.2909  0.2047
  172SAPE   O2219464  -0.419   0.153   6.638  0.6650  0.2344 -0.3251
  172SAPE   C2219465  -0.351  -0.056   6.744 -0.3323  0.0179  0.6810
  172SAPE   H2R19466  -0.431  -0.069   6.820 -1.7207  0.2732 -0.7137
  172SAPE   H2S19467  -0.346  -0.157   6.696 -1.6773 -0.2614  1.1060
  172SAPE    C319468  -0.656  -0.037   6.375 -0.6447  0.7123 -0.6107
  172SAPE    HX19469  -0.626  -0.128   6.319  1.6614  2.1646 -1.7727
  172SAPE    HY19470  -0.702   0.035   6.305 -1.9929  0.1941 -0.2705
  172SAPE   O3119471  -0.744  -0.073   6.487 -0.4891 -0.4885 -0.2774
  172SAPE   C3119472  -0.729  -0.186   6.551  0.4532  0.0254  0.0586
  172SAPE   O3219473  -0.649  -0.273   6.529  0.1243  0.1905 -0.0461
  172SAPE   C3219474  -0.832  -0.182   6.668 -0.3700 -0.0544 -0.3623
  172SAPE   H2X19475  -0.872  -0.283   6.691  0.0868 -0.0236  0.5819
  172SAPE   H2Y19476  -0.921  -0.123   6.636  0.8920  0.8901 -2.2168
  172SAPE   C2319477  -0.214  -0.010   6.788  0.7324 -0.4675 -0.3808
  172SAPE   H3R19478  -0.222   0.098   6.816  2.4825 -0.4914  0.2993
  172SAPE   H3S19479  -0.150  -0.006   6.698  0.8466  0.5330 -0.2702
  172SAPE   C2419480  -0.159  -0.090   6.899 -0.0462  0.0695  0.6084
  172SAPE   H4R19481  -0.061  -0.043   6.921  0.9780 -1.4945 -0.5008
  172SAPE   H4S19482  -0.143  -0.190   6.853  1.1479  0.4308  0.2061
  172SAPE   C2519483  -0.226  -0.106   7.040  0.1484  0.2477  0.3085
  172SAPE   H5R19484  -0.229  -0.020   7.108  2.2114  1.6242 -1.2849
  172SAPE   C2619485  -0.299  -0.211   7.082  0.9971  0.6323  0.7245
  172SAPE   H6R19486  -0.346  -0.207   7.182  1.0593 -0.3189  0.8034
  172SAPE   C2719487  -0.330  -0.330   6.998  0.6750  0.2761 -0.0509
  172SAPE   H7R19488  -0.251  -0.402   7.027 -0.0092 -0.1318  0.8535
  172SAPE   H7S19489  -0.322  -0.314   6.888 -0.0765 -1.1345 -0.3277
  172SAPE   C2819490  -0.466  -0.386   7.040  0.3283 -0.0056  0.2148
  172SAPE   H8R19491  -0.552  -0.367   6.975  0.2140  0.4279  0.4925
  172SAPE   C2919492  -0.495  -0.464   7.148 -0.7152  0.1006  0.5744
  172SAPE   H9R19493  -0.594  -0.504   7.175 -0.2901  0.3160  2.5587
  172SAPE  C21019494  -0.395  -0.510   7.247  0.3942  0.9022 -0.9536
  172SAPE  H10R19495  -0.314  -0.434   7.257  1.6364 -0.3221 -1.4557
  172SAPE  H10S19496  -0.338  -0.599   7.211 -2.1708 -1.0432 -0.3380
  172SAPE  C21119497  -0.456  -0.530   7.379  0.3098  0.5561  0.8002
  172SAPE  H11R19498  -0.524  -0.617   7.388  0.1538  0.4573 -1.1531
  172SAPE  C21219499  -0.439  -0.454   7.486  0.4375  0.4089 -1.2969
  172SAPE  H12R19500  -0.501  -0.484   7.572  1.4997  0.6009 -0.4599
  172SAPE  C21319501  -0.348  -0.333   7.482 -0.4615  0.5192  0.5356
  172SAPE  H13R19502  -0.390  -0.281   7.394 -2.2427 -1.5952  0.0799
  172SAPE  H13S19503  -0.245  -0.373   7.475 -0.7414 -0.7489  2.8966
  172SAPE  C21419504  -0.350  -0.249   7.609 -0.0209 -0.4725  0.1489
  172SAPE  H14R19505  -0.387  -0.146   7.594 -0.9934 -0.7961  0.2848
  172SAPE  C21519506  -0.292  -0.285   7.726  0.0704  0.5281  0.2638
  172SAPE  H15R19507  -0.303  -0.226   7.818  1.8462 -1.8669  2.0599
  172SAPE  C21619508  -0.230  -0.420   7.753  0.1956  0.3699 -0.0445
  172SAPE  H16R19509  -0.131  -0.402   7.798  0.6756 -3.1962  0.4772
  172SAPE  H16S19510  -0.213  -0.483   7.663  0.0747 -0.1212  0.2709
  172SAPE  C21719511  -0.287  -0.516   7.869 -0.1538  1.1432 -0.9259
  172SAPE  H17R19512  -0.248  -0.619   7.852 -0.1490  0.7210  1.4615
  172SAPE  H17S19513  -0.397  -0.528   7.857 -0.3994  1.5127  0.8672
  172SAPE  C21819514  -0.249  -0.460   8.006 -0.5392  0.1968  0.0402
  172SAPE  H18R19515  -0.285  -0.355   8.003  0.0568  0.4671  1.9642
  172SAPE  H18S19516  -0.138  -0.460   8.003 -0.4824 -2.7324  0.6366
  172SAPE  C21919517  -0.307  -0.522   8.132  0.4730 -0.4268 -0.1650
  172SAPE  H19R19518  -0.414  -0.496   8.135  0.6390  0.1028  1.3979
  172SAPE  H19S19519  -0.244  -0.476   8.211 -2.5643  2.0332  0.9037
  172SAPE  C22019520  -0.294  -0.668   8.150 -0.2204  0.7833  0.7476
  172SAPE  H20R19521  -0.385  -0.705   8.099 -0.7106 -0.3289  2.3868
  172SAPE  H20S19522  -0.305  -0.705   8.254  3.9284 -1.0452  0.6631
  172SAPE  H20T19523  -0.201  -0.714   8.110 -1.5162 -1.9672  0.7399
  172SAPE   C3319524  -0.753  -0.120   6.782 -0.2534  0.2728 -0.4094
  172SAPE   H3X19525  -0.739  -0.012   6.764  0.0712  0.0911 -1.2570
  172SAPE   H3Y19526  -0.653  -0.166   6.800  0.4731  1.3432 -1.6737
  172SAPE   C3419527  -0.823  -0.129   6.915  0.4537  0.1152  0.0501
  172SAPE   H4X19528  -0.888  -0.219   6.924  0.8820 -0.6464 -3.9037
  172SAPE   H4Y19529  -0.886  -0.038   6.927 -1.2066 -1.0931  0.7076
  172SAPE   C3519530  -0.733  -0.132   7.037  0.2096 -0.6030  0.4947
  172SAPE   H5X19531  -0.647  -0.068   7.005  0.9220 -1.6841  0.2288
  172SAPE   H5Y19532  -0.698  -0.235   7.055  3.6201  0.4997  0.5609
  172SAPE   C3619533  -0.802  -0.082   7.162  0.0378 -0.0276 -0.3242
  172SAPE   H6X19534  -0.897  -0.140   7.170  0.5074 -0.9175 -1.1383
  172SAPE   H6Y19535  -0.821   0.025   7.141 -0.9788 -0.3919 -1.3449
  172SAPE   C3719536  -0.718  -0.118   7.286 -0.3684 -0.3527 -0.0123
  172SAPE   H7X19537  -0.620  -0.066   7.296 -0.8004  0.4562  0.0587
  172SAPE   H7Y19538  -0.692  -0.225   7.276 -1.8401 -0.9198  1.8324
  172SAPE   C3819539  -0.799  -0.109   7.415 -0.0367  0.1720  0.5928
  172SAPE   H8X19540  -0.891  -0.167   7.393  0.8882 -1.5433  1.2111
  172SAPE   H8Y19541  -0.831  -0.003   7.431  2.2516  1.1165 -0.8359
  172SAPE   C3919542  -0.733  -0.175   7.539  0.9023 -0.4158 -0.1802
  172SAPE   H9X19543  -0.635  -0.123   7.541  0.0233  1.2704  0.0365
  172SAPE   H9Y19544  -0.715  -0.283   7.518 -0.3795 -0.5905 -0.4677
  172SAPE  C31019545  -0.824  -0.157   7.663 -0.1975 -0.3877  0.1108
  172SAPE  H10X19546  -0.910  -0.225   7.648 -0.5823  0.2903 -0.8207
  172SAPE  H10Y19547  -0.866  -0.054   7.656  0.9538  0.0094 -1.2249
  172SAPE  C31119548  -0.754  -0.188   7.790  0.4188 -0.0071 -0.7917
  172SAPE  H11X19549  -0.669  -0.119   7.810  1.9195 -2.3057  1.0711
  172SAPE  H11Y19550  -0.713  -0.288   7.763 -0.8112 -1.1379  1.4201
  172SAPE  C31219551  -0.859  -0.190   7.898 -0.4866  0.0577 -0.3918
  172SAPE  H12X19552  -0.936  -0.268   7.879 -0.9208 -0.5674  3.4753
  172SAPE  H12Y19553  -0.896  -0.086   7.893  1.4241  0.7329 -0.8971
  172SAPE  C31319554  -0.797  -0.195   8.040  1.1566 -0.1589  0.6070
  172SAPE  H13X19555  -0.721  -0.114   8.051  0.8765  0.3211 -0.8508
  172SAPE  H13Y19556  -0.725  -0.279   8.048  0.6745 -0.6027  0.2785
  172SAPE  C31419557  -0.897  -0.200   8.156  0.6008 -0.5853 -0.1631
  172SAPE  H14X19558  -0.948  -0.298   8.164 -1.4929  0.5385  0.5595
  172SAPE  H14Y19559  -0.975  -0.127   8.125 -0.5504 -0.8641  1.9911
  172SAPE  C31519560  -0.829  -0.166   8.296 -0.2223  0.0358 -0.1413
  172SAPE  H15X19561  -0.901  -0.205   8.371  1.2428  1.1432  1.9111
  172SAPE  H15Y19562  -0.812  -0.057   8.306 -1.9569  0.2852  0.2592
  172SAPE  C31619563  -0.702  -0.240   8.324  0.4769  0.5253  0.4855
  172SAPE  H16X19564  -0.660  -0.197   8.417  0.5424 -1.3042  1.3168
  172SAPE  H16Y19565  -0.632  -0.209   8.243 -0.7508  1.2875 -0.3079
  172SAPE  C31719566  -0.706  -0.393   8.325  0.5736 -0.4855  0.0375
  172SAPE  H17X19567  -0.739  -0.418   8.223 -0.9205  3.0569 -0.4303
  172SAPE  H17Y19568  -0.785  -0.420   8.398  1.7866  0.4963  1.7676
  172SAPE  C31819569  -0.576  -0.459   8.369  0.9582 -0.1772 -0.6010
  172SAPE  H18X19570  -0.574  -0.570   8.384 -2.4078 -0.0881  0.9311
  172SAPE  H18Y19571  -0.545  -0.417   8.467 -2.1977  1.8140 -0.4069
  172SAPE  H18Z19572  -0.493  -0.430   8.302 -0.3004  1.4740 -1.4742
  173SOPE     N19573   0.582   4.188  11.210  0.4868  0.7241 -0.1386
  173SOPE   HN119574   0.655   4.209  11.281 -1.9151  1.0494  2.3183
  173SOPE   HN219575   0.574   4.084  11.219  0.3283  0.8653  1.7031
  173SOPE   HN319576   0.616   4.206  11.114  1.0773  1.0352  0.1258
  173SOPE   C1219577   0.450   4.254  11.250 -0.1329  0.6148  0.5188
  173SOPE  H12A19578   0.457   4.269  11.360 -0.0417  0.6910  0.5012
  173SOPE  H12B19579   0.367   4.190  11.212  0.6131  0.5405 -1.0530
  173SOPE   C1119580   0.457   4.392  11.183  0.3110 -0.1980 -0.3435
  173SOPE  H11A19581   0.554   4.444  11.196  0.7338 -1.3188  1.0600
  173SOPE  H11B19582   0.382   4.454  11.238  0.4972 -0.5735  0.3333
  173SOPE     P19583   0.276   4.375  10.987 -0.0679 -0.1274 -0.0873
  173SOPE   O1319584   0.217   4.509  10.960 -0.4463  0.2923 -0.2814
  173SOPE   O1419585   0.195   4.287  11.070  0.1609  0.3557 -0.0830
  173SOPE   O1219586   0.420   4.385  11.046 -0.0068  0.2925  0.1325
  173SOPE   O1119587   0.283   4.298  10.847 -0.1404 -0.1644  0.1429
  173SOPE    C119588   0.414   4.249  10.803  0.2404 -0.3284 -0.0198
  173SOPE    HA19589   0.446   4.165  10.869  1.4047  0.1166 -0.0130
  173SOPE    HB19590   0.491   4.328  10.810 -0.6885  0.2840  4.2612
  173SOPE    C219591   0.415   4.194  10.660 -0.6613  0.1160  0.1264
  173SOPE    HS19592   0.522   4.176  10.636 -0.2172  2.0784  0.5366
  173SOPE   O2119593   0.360   4.287  10.572  0.5887 -0.2419 -0.2719
  173SOPE   C2119594   0.418   4.402  10.555 -0.1593  0.4184 -0.4446
  173SOPE   O2219595   0.531   4.432  10.587  0.2074 -0.0521  0.1632
  173SOPE   C2219596   0.324   4.490  10.472  0.4675  0.3353  1.1062
  173SOPE   H2R19597   0.248   4.535  10.539 -1.6031 -0.8990 -0.3625
  173SOPE   H2S19598   0.274   4.412  10.410 -2.0617  0.4761  2.8845
  173SOPE    C319599   0.342   4.059  10.645 -0.3708 -0.0822  0.6173
  173SOPE    HX19600   0.240   4.063  10.690 -0.7926 -0.2893 -0.2924
  173SOPE    HY19601   0.402   3.987  10.703 -0.2560 -2.0209 -1.8425
  173SOPE   O3119602   0.327   4.004  10.513 -0.4365 -0.9769 -0.0129
  173SOPE   C3119603   0.256   4.072  10.424  0.3607  0.1991  0.0659
  173SOPE   O3219604   0.176   4.161  10.445 -0.3888 -0.2330 -1.0333
  173SOPE   C3219605   0.291   4.007  10.291  0.0700 -0.2256  0.1193
  173SOPE   H2X19606   0.323   3.903  10.313  1.0250 -0.6280 -2.9787
  173SOPE   H2Y19607   0.367   4.060  10.230 -0.1390  0.0867  0.1320
  173SOPE   C2319608   0.393   4.608  10.389  0.7175  0.3182 -0.5845
  173SOPE   H3R19609   0.486   4.571  10.341  0.2812 -1.6347  0.0404
  173SOPE   H3S19610   0.413   4.690  10.461 -0.6290 -0.3854  0.6209
  173SOPE   C2419611   0.292   4.649  10.280  0.3304  0.0081  0.2712
  173SOPE   H4R19612   0.298   4.572  10.201  0.3638 -0.3712  0.6447
  173SOPE   H4S19613   0.195   4.638  10.333 -1.1876 -3.2600 -3.0028
  173SOPE   C2519614   0.307   4.795  10.226 -0.0075 -0.3898 -0.7363
  173SOPE   H5R19615   0.223   4.824  10.160 -0.2197 -3.6655 -1.9916
  173SOPE   H5S19616   0.298   4.868  10.310  0.3832 -0.9367 -0.2188
  173SOPE   C2619617   0.437   4.815  10.151  0.8448  0.4090  0.7812
  173SOPE   H6R19618   0.436   4.924  10.129  0.1516 -0.1350 -2.1478
  173SOPE   H6S19619   0.520   4.794  10.222  0.3040 -0.8537  1.0570
  173SOPE   C2719620   0.453   4.749  10.012  0.4449 -0.6835  0.0811
  173SOPE   H7R19621   0.433   4.644  10.043 -0.0317 -0.3017  1.0537
  173SOPE   H7S19622   0.382   4.780   9.932  3.1271  3.7552 -0.7675
  173SOPE   C2819623   0.603   4.758   9.962  0.4415 -0.2000  0.8153
  173SOPE   H8R19624   0.622   4.862   9.931  0.8165 -0.9930 -1.7303
  173SOPE   H8S19625   0.664   4.737  10.052  0.4122 -1.8307  0.4815
  173SOPE   C2919626   0.628   4.656   9.858  0.9073 -0.3126 -0.1399
  173SOPE   H9119627   0.703   4.581   9.888 -0.6689 -1.0805  2.0039
  173SOPE  C21019628   0.577   4.637   9.734  0.3153 -0.7270  0.2493
  173SOPE  H10119629   0.612   4.545   9.686 -0.6250 -0.8236 -0.2610
  173SOPE  C21119630   0.489   4.729   9.660 -0.2360  0.4544  0.6464
  173SOPE  H11R19631   0.473   4.830   9.703 -1.4600 -0.1487  1.6214
  173SOPE  H11S19632   0.388   4.684   9.653 -0.4470  0.9605  0.4735
  173SOPE  C21219633   0.529   4.744   9.518 -0.2960  0.2621  0.1096
  173SOPE  H12R19634   0.450   4.816   9.488  2.1211  2.3479 -1.3870
  173SOPE  H12S19635   0.517   4.650   9.459  0.0954  0.0600  0.3525
  173SOPE  C21319636   0.675   4.794   9.504  0.0825 -0.0387  0.6079
  173SOPE  H13R19637   0.747   4.712   9.525  1.1734  0.6473 -0.4057
  173SOPE  H13S19638   0.690   4.882   9.569 -0.4398  2.8873 -3.0945
  173SOPE  C21419639   0.686   4.860   9.358  0.5198 -0.0444 -0.2762
  173SOPE  H14R19640   0.783   4.914   9.347  1.0995 -0.7966  1.0202
  173SOPE  H14S19641   0.599   4.929   9.348 -0.0125 -0.6023  0.4473
  173SOPE  C21519642   0.669   4.765   9.244 -0.5511 -1.0254  0.0140
  173SOPE  H15R19643   0.686   4.658   9.265  0.8522 -0.6464  0.8300
  173SOPE  H15S19644   0.734   4.793   9.158  2.3243 -0.4489  2.2843
  173SOPE  C21619645   0.521   4.777   9.182  0.3416 -0.1949 -0.4555
  173SOPE  H16R19646   0.438   4.761   9.254 -0.5602 -1.3488 -1.7371
  173SOPE  H16S19647   0.514   4.684   9.122 -2.7718 -1.2697  1.4708
  173SOPE  C21719648   0.506   4.905   9.109 -0.4352  0.0356  0.0001
  173SOPE  H17R19649   0.520   4.994   9.173 -2.2007  0.6414 -0.4144
  173SOPE  H17S19650   0.400   4.902   9.073 -0.2830 -1.3048 -0.3852
  173SOPE  C21819651   0.583   4.912   8.974  0.7214  0.6086  0.0890
  173SOPE  H18R19652   0.693   4.921   8.990  0.6070  0.6315  0.8889
  173SOPE  H18S19653   0.563   5.008   8.922  0.8832  0.4816 -0.2132
  173SOPE  H18T19654   0.547   4.828   8.910 -2.5892  1.2335  1.0753
  173SOPE   C3319655   0.160   4.010  10.200 -0.4344 -0.5035 -0.1572
  173SOPE   H3X19656   0.139   4.116  10.172 -1.7220 -0.7077  0.0171
  173SOPE   H3Y19657   0.066   3.986  10.254 -1.2091 -0.2744 -1.3723
  173SOPE   C3419658   0.172   3.935  10.067 -0.2247  0.6424  0.7296
  173SOPE   H4X19659   0.164   3.827  10.089 -0.4735  0.2985 -1.0288
  173SOPE   H4Y19660   0.266   3.962  10.013 -2.4690  4.8147 -1.3457
  173SOPE   C3519661   0.047   3.947   9.974 -0.0590  0.6647 -0.4947
  173SOPE   H5X19662  -0.020   4.028  10.008  1.9287  2.3821 -0.5587
  173SOPE   H5Y19663  -0.014   3.855   9.986  1.1610 -0.1217 -0.1393
  173SOPE   C3619664   0.085   3.973   9.824 -0.3958  0.3454 -0.0866
  173SOPE   H6X19665   0.168   3.906   9.793 -1.2073  0.3960 -2.4824
  173SOPE   H6Y19666   0.119   4.079   9.815  0.7720  0.1713  1.9925
  173SOPE   C3719667  -0.030   3.943   9.723  0.0504 -0.2993  0.1911
  173SOPE   H7X19668  -0.111   4.015   9.747 -1.3459 -1.1780 -1.7404
  173SOPE   H7Y19669  -0.069   3.839   9.735 -0.4894  0.0390  1.4932
  173SOPE   C3819670   0.016   3.984   9.585 -0.2095 -0.0742  0.6382
  173SOPE   H8X19671   0.082   3.906   9.542  0.6916  0.2548  1.4042
  173SOPE   H8Y19672   0.077   4.076   9.595  2.4743 -1.6476 -0.5018
  173SOPE   C3919673  -0.093   4.022   9.488 -0.0326  0.2407  0.3659
  173SOPE   H9X19674  -0.149   4.107   9.532  0.5943  0.8985 -0.1071
  173SOPE   H9Y19675  -0.159   3.932   9.486  0.5206 -0.2026  1.3659
  173SOPE  C31019676  -0.030   4.051   9.352  0.4462  0.3536  0.5412
  173SOPE  H10X19677   0.041   3.966   9.345  0.6441  0.5947 -0.4941
  173SOPE  H10Y19678   0.040   4.137   9.345 -0.5669  0.9599 -3.8894
  173SOPE  C31119679  -0.129   4.048   9.235  0.6357  0.0655  0.6063
  173SOPE  H11X19680  -0.209   4.121   9.257 -1.4204 -1.5525 -1.3823
  173SOPE  H11Y19681  -0.180   3.950   9.241  0.2256  0.2714  0.4767
  173SOPE  C31219682  -0.064   4.060   9.099  0.1643  0.1591  0.5466
  173SOPE  H12X19683   0.008   3.978   9.081 -0.6423 -0.6610  1.0371
  173SOPE  H12Y19684  -0.005   4.154   9.093  0.5323 -0.1510 -1.0952
  173SOPE  C31319685  -0.168   4.056   8.989  0.0793 -0.0532 -0.2501
  173SOPE  H13X19686  -0.237   4.138   9.017 -0.2767 -0.2407 -0.5804
  173SOPE  H13Y19687  -0.233   3.966   8.987 -1.0925  0.7471  1.0744
  173SOPE  C31419688  -0.100   4.085   8.859 -0.6765  0.0300  0.2458
  173SOPE  H14X19689  -0.026   4.003   8.845 -2.6283 -1.4751 -1.5735
  173SOPE  H14Y19690  -0.030   4.172   8.866  1.3319 -1.5586  0.4536
  173SOPE  C31519691  -0.191   4.102   8.739 -0.4385  0.0393  0.0748
  173SOPE  H15X19692  -0.265   4.019   8.740 -1.1754  0.6919  0.9949
  173SOPE  H15Y19693  -0.131   4.086   8.647 -1.9249  0.8348 -1.0603
  173SOPE  C31619694  -0.281   4.228   8.757  0.0895 -0.4521  0.6277
  173SOPE  H16X19695  -0.218   4.318   8.743 -1.7569  0.7511 -0.2111
  173SOPE  H16Y19696  -0.339   4.228   8.852 -1.4927  0.6471 -0.3024
  173SOPE  C31719697  -0.390   4.251   8.650 -0.1249  0.2957  0.4340
  173SOPE  H17X19698  -0.479   4.187   8.665  0.8129 -1.3842 -0.9457
  173SOPE  H17Y19699  -0.358   4.236   8.544 -1.6149  1.2313 -0.1737
  173SOPE  C31819700  -0.464   4.383   8.661 -0.5144 -0.3097 -0.2581
  173SOPE  H18X19701  -0.557   4.397   8.603 -0.9550 -0.7140  0.3543
  173SOPE  H18Y19702  -0.397   4.467   8.632  0.0593 -0.6321  0.1308
  173SOPE  H18Z19703  -0.492   4.404   8.766 -2.7516 -3.5709 -0.1527
  174SOPE     N19704   6.362   3.466  10.771 -0.0349  0.0547 -0.1265
  174SOPE   HN119705   6.450   3.517  10.794 -0.1202  0.2559 -0.2547
  174SOPE   HN219706   6.286   3.485  10.839  0.2799 -0.3552  0.3439
  174SOPE   HN319707   6.380   3.363  10.778 -1.9470 -0.2487  0.3838
  174SOPE   C1219708   6.327   3.500  10.635  0.8963 -0.7011 -0.2552
  174SOPE  H12A19709   6.219   3.477  10.623  0.5514  1.7974 -2.2472
  174SOPE  H12B19710   6.385   3.435  10.565 -0.0720  0.3081 -2.0098
  174SOPE   C1119711   6.381   3.643  10.604  0.6296  0.1166 -0.0623
  174SOPE  H11A19712   6.331   3.680  10.512 -0.6334 -0.6355  0.3108
  174SOPE  H11B19713   6.487   3.628  10.576  0.9088  0.1037  0.9696
  174SOPE     P19714   6.440   3.870  10.719  0.1017 -0.3060  0.1126
  174SOPE   O1319715   6.535   3.852  10.827  0.1507  0.1387  0.2110
  174SOPE   O1419716   6.341   3.977  10.740  0.1401  0.4782 -0.0952
  174SOPE   O1219717   6.359   3.735  10.705 -0.2184  0.0692  0.3532
  174SOPE   O1119718   6.515   3.876  10.581 -0.0533 -0.1724  0.2081
  174SOPE    C119719   6.500   3.981  10.483  0.2457 -0.3351  0.1264
  174SOPE    HA19720   6.586   4.049  10.468  0.5826 -1.2080 -2.0321
  174SOPE    HB19721   6.418   4.042  10.527  0.9923  0.4684  0.3926
  174SOPE    C219722   6.450   3.941  10.343  0.9036 -0.2357  0.2815
  174SOPE    HS19723   6.450   4.033  10.281  0.3223 -0.5915 -0.2528
  174SOPE   O2119724   6.314   3.887  10.348  0.2676  0.0315 -0.0397
  174SOPE   C2119725   6.217   3.971  10.353 -0.6850 -0.2722  1.0755
  174SOPE   O2219726   6.227   4.098  10.354 -0.0997  0.3675  0.2276
  174SOPE   C2219727   6.084   3.896  10.337  0.0274  0.1743 -0.1770
  174SOPE   H2R19728   6.069   3.838  10.430 -0.2461  1.8123  0.8129
  174SOPE   H2S19729   6.095   3.830  10.248  1.0803  0.1909 -0.0648
  174SOPE    C319730   6.551   3.835  10.283  0.4927 -0.2741 -0.1976
  174SOPE    HX19731   6.520   3.735  10.321 -2.3102  1.0568  1.1593
  174SOPE    HY19732   6.652   3.857  10.322  0.5752 -0.5739 -0.2352
  174SOPE   O3119733   6.559   3.852  10.143  0.1623 -0.1222  0.7364
  174SOPE   C3119734   6.472   3.781  10.074  0.2252  0.0584 -0.2050
  174SOPE   O3219735   6.390   3.697  10.111 -0.3594  0.5141  0.0405
  174SOPE   C3219736   6.487   3.833   9.928  1.0400  0.2114 -0.1772
  174SOPE   H2X19737   6.585   3.795   9.892  1.6754  0.9239  0.7540
  174SOPE   H2Y19738   6.500   3.944   9.922  0.2082  0.2648 -1.0655
  174SOPE   C2319739   5.964   3.987  10.316  0.0697  0.1281  0.6342
  174SOPE   H3R19740   5.981   4.056  10.230  1.6560  1.4830  2.0003
  174SOPE   H3S19741   5.959   4.058  10.402  0.2188 -0.5707  1.2210
  174SOPE   C2419742   5.824   3.917  10.305 -0.3414  0.2061 -0.3254
  174SOPE   H4R19743   5.825   3.851  10.216  0.4514  1.1422 -1.0137
  174SOPE   H4S19744   5.806   3.856  10.397 -0.3380 -0.4610 -0.7684
  174SOPE   C2519745   5.703   4.009  10.287  0.2310 -0.6598 -0.1502
  174SOPE   H5R19746   5.706   4.063  10.384  0.6135  1.8907 -1.5324
  174SOPE   H5S19747   5.723   4.093  10.217  0.6669 -0.2662  0.4509
  174SOPE   C2619748   5.576   3.940  10.256  0.3898 -0.2124  0.5851
  174SOPE   H6R19749   5.553   3.865  10.335  0.0250 -0.3669  0.3342
  174SOPE   H6S19750   5.494   4.015  10.257  0.8986  0.3543  2.5305
  174SOPE   C2719751   5.572   3.888  10.112 -0.2830 -0.4140 -0.4199
  174SOPE   H7R19752   5.606   3.971  10.046  0.6785  0.0750  0.6807
  174SOPE   H7S19753   5.644   3.804  10.109  0.2865 -0.0090  1.3595
  174SOPE   C2819754   5.436   3.831  10.068  0.0539  0.6458  0.1439
  174SOPE   H8R19755   5.353   3.897  10.100  0.5242  1.5916 -0.5929
  174SOPE   H8S19756   5.439   3.813   9.959 -1.2236  1.3683 -0.0137
  174SOPE   C2919757   5.409   3.699  10.138  0.1559  0.1504 -0.0738
  174SOPE   H9119758   5.368   3.704  10.239  3.2205 -0.8543  1.3011
  174SOPE  C21019759   5.438   3.579  10.089  0.4045 -0.1849 -0.1885
  174SOPE  H10119760   5.418   3.488  10.148 -1.5040  0.7462  0.6128
  174SOPE  C21119761   5.493   3.548   9.954 -0.3411  0.2104  0.2358
  174SOPE  H11R19762   5.554   3.455   9.952  0.9898  1.0587  0.6084
  174SOPE  H11S19763   5.568   3.623   9.920  2.2813 -2.5604 -0.2595
  174SOPE  C21219764   5.381   3.542   9.854  0.6951 -0.0020  1.5544
  174SOPE  H12R19765   5.361   3.647   9.821  0.5717 -0.4396  0.2159
  174SOPE  H12S19766   5.286   3.494   9.887  0.0568 -0.1314 -0.4038
  174SOPE  C21319767   5.432   3.467   9.724 -0.9154  0.0664 -0.3631
  174SOPE  H13R19768   5.460   3.362   9.748  0.6926 -0.1104 -2.8791
  174SOPE  H13S19769   5.517   3.526   9.685 -0.5445 -2.2256 -3.2260
  174SOPE  C21419770   5.315   3.454   9.629  0.3044  0.4479  0.3789
  174SOPE  H14R19771   5.269   3.551   9.601  1.1356  1.2845  1.8611
  174SOPE  H14S19772   5.229   3.389   9.654  0.2333  0.1916 -0.5133
  174SOPE  C21519773   5.353   3.397   9.489 -0.5660 -0.0714 -0.1094
  174SOPE  H15R19774   5.405   3.299   9.495 -0.1105  0.2048  0.5680
  174SOPE  H15S19775   5.427   3.469   9.447  0.3285 -1.6527 -1.3002
  174SOPE  C21619776   5.238   3.370   9.388  0.1222 -0.5225  0.1838
  174SOPE  H16R19777   5.281   3.338   9.291  1.7198 -0.5974  0.8993
  174SOPE  H16S19778   5.167   3.455   9.380  1.0630  0.3019  0.5033
  174SOPE  C21719779   5.158   3.247   9.432  0.4763 -0.4596 -0.6659
  174SOPE  H17R19780   5.095   3.250   9.523  1.6495 -3.4805  0.3213
  174SOPE  H17S19781   5.238   3.174   9.459  1.8880  0.1205 -3.0892
  174SOPE  C21819782   5.084   3.186   9.309 -0.1072 -0.4629  0.5310
  174SOPE  H18R19783   4.994   3.251   9.297 -1.3591 -2.2589  0.0610
  174SOPE  H18S19784   5.048   3.082   9.326  0.6808 -0.4500  2.3912
  174SOPE  H18T19785   5.147   3.193   9.218 -0.4138  0.1373  0.3589
  174SOPE   C3319786   6.368   3.799   9.831  1.0528 -1.1657  0.5797
  174SOPE   H3X19787   6.280   3.857   9.867  1.7012  0.2914 -0.1488
  174SOPE   H3Y19788   6.347   3.690   9.823 -0.5244 -0.8715  0.5021
  174SOPE   C3419789   6.405   3.836   9.685  0.7863 -0.4546  0.0406
  174SOPE   H4X19790   6.502   3.785   9.669  1.0973  0.4357 -0.9443
  174SOPE   H4Y19791   6.407   3.946   9.669 -0.0018 -0.4343  0.0299
  174SOPE   C3519792   6.308   3.777   9.575  0.1726 -1.0726  0.0500
  174SOPE   H5X19793   6.205   3.808   9.600  0.8791  0.4882  1.0980
  174SOPE   H5Y19794   6.313   3.667   9.591 -2.4513 -0.8998  2.3008
  174SOPE   C3619795   6.343   3.822   9.431  0.6757 -0.5327 -0.0744
  174SOPE   H6X19796   6.448   3.792   9.407  0.7708  1.9452 -3.1463
  174SOPE   H6Y19797   6.337   3.933   9.428  3.0416 -0.3538  0.6768
  174SOPE   C3719798   6.251   3.766   9.319  0.0294 -0.5922  0.3040
  174SOPE   H7X19799   6.146   3.757   9.353 -0.2893 -0.6857 -0.7084
  174SOPE   H7Y19800   6.283   3.670   9.272 -0.1892 -1.4331  1.8280
  174SOPE   C3819801   6.254   3.873   9.205  0.0257 -0.4457  0.0832
  174SOPE   H8X19802   6.357   3.877   9.163  0.0640  1.0134  0.2754
  174SOPE   H8Y19803   6.221   3.966   9.257  0.1333 -0.9708  1.1101
  174SOPE   C3919804   6.138   3.843   9.103  0.2655 -0.2172  0.0305
  174SOPE   H9X19805   6.040   3.842   9.155 -0.0038  0.0224 -0.4701
  174SOPE   H9Y19806   6.153   3.741   9.064 -0.6032 -1.1181  1.9854
  174SOPE  C31019807   6.131   3.947   8.987 -0.7581 -0.5411 -0.9322
  174SOPE  H10X19808   6.064   3.916   8.904 -1.8530 -0.6287 -0.0343
  174SOPE  H10Y19809   6.234   3.969   8.953 -1.5511  1.6636 -1.9920
  174SOPE  C31119810   6.070   4.076   9.045  0.2998  0.0361  0.6202
  174SOPE  H11X19811   6.144   4.109   9.121  0.9323  0.5623 -0.2125
  174SOPE  H11Y19812   5.976   4.045   9.096  0.2802 -0.1595  0.4635
  174SOPE  C31219813   6.031   4.188   8.948 -0.5076 -0.0393  0.5919
  174SOPE  H12X19814   5.949   4.152   8.882 -0.1250  0.1973 -0.0161
  174SOPE  H12Y19815   6.112   4.212   8.876 -2.0231  0.1490 -1.0827
  174SOPE  C31319816   5.996   4.320   9.025 -0.0029  0.2206 -0.1754
  174SOPE  H13X19817   6.096   4.351   9.062  0.7867 -2.5986  0.1543
  174SOPE  H13Y19818   5.929   4.305   9.112  0.0859  0.4632 -0.0651
  174SOPE  C31419819   5.942   4.430   8.924  0.1849 -0.7738  0.2354
  174SOPE  H14X19820   5.919   4.522   8.983  0.2943  0.0265 -0.9588
  174SOPE  H14Y19821   5.850   4.387   8.879 -0.8078  1.1694  0.3319
  174SOPE  C31519822   6.035   4.480   8.809 -0.3865 -0.3218  0.5283
  174SOPE  H15X19823   6.054   4.397   8.738  0.9771 -0.1538  0.6693
  174SOPE  H15Y19824   6.129   4.505   8.863 -0.3624  1.0773 -0.1327
  174SOPE  C31619825   5.975   4.587   8.722 -0.2473  0.4919  0.5002
  174SOPE  H16X19826   6.047   4.616   8.642  0.2144  1.2063  1.1618
  174SOPE  H16Y19827   5.968   4.691   8.759  0.4093  1.7284 -2.6858
  174SOPE  C31719828   5.837   4.550   8.668  0.4789  0.2676  0.5942
  174SOPE  H17X19829   5.791   4.628   8.603 -0.4650  0.2264  1.1960
  174SOPE  H17Y19830   5.770   4.543   8.756 -1.2235  0.1989 -0.6586
  174SOPE  C31819831   5.828   4.421   8.577 -0.4050 -0.0100 -0.9489
  174SOPE  H18X19832   5.728   4.422   8.530 -2.1590 -1.8806  2.5427
  174SOPE  H18Y19833   5.840   4.329   8.639  1.8731  1.0749  0.2826
  174SOPE  H18Z19834   5.910   4.420   8.502  1.2199  0.6590  0.7783
  175SOPE     N19835   1.807   5.112  10.737 -0.0738 -0.7464 -0.5654
  175SOPE   HN119836   1.721   5.157  10.773 -0.4628 -1.1597 -0.9701
  175SOPE   HN219837   1.841   5.060  10.821 -1.4141 -1.3174 -0.3700
  175SOPE   HN319838   1.874   5.181  10.697 -0.6158 -0.1555 -0.4525
  175SOPE   C1219839   1.766   5.024  10.619  0.1832  0.3227 -0.7053
  175SOPE  H12A19840   1.689   5.079  10.562  0.3133  1.0549 -0.1765
  175SOPE  H12B19841   1.729   4.926  10.656 -0.7963  0.9134 -0.1012
  175SOPE   C1119842   1.882   4.987  10.530  0.0115  0.2566  0.7731
  175SOPE  H11A19843   1.928   5.076  10.482  0.8398 -0.1242  0.8439
  175SOPE  H11B19844   1.837   4.929  10.447 -3.1202  2.3354  0.9291
  175SOPE     P19845   2.018   4.784  10.626 -0.3125  0.7216 -0.0670
  175SOPE   O1319846   1.908   4.744  10.720 -0.4532 -0.3285  0.1510
  175SOPE   O1419847   2.154   4.751  10.672 -0.3581  0.4577  0.0196
  175SOPE   O1219848   1.998   4.930  10.592  0.2078 -0.2625 -0.3414
  175SOPE   O1119849   1.995   4.719  10.477  0.6352  0.3389  0.5011
  175SOPE    C119850   2.080   4.754  10.367 -1.2487  0.4186 -0.1950
  175SOPE    HA19851   2.108   4.662  10.311 -0.2481  0.3082  0.4714
  175SOPE    HB19852   2.177   4.802  10.395 -2.4651  2.1942  1.0658
  175SOPE    C219853   2.022   4.851  10.252  0.6574  0.3933 -0.0825
  175SOPE    HS19854   2.007   4.953  10.295 -0.4723  0.8288 -1.4763
  175SOPE   O2119855   1.904   4.789  10.195 -0.1933  0.2948  0.2356
  175SOPE   C2119856   1.813   4.883  10.158  0.2095  0.0942  1.0740
  175SOPE   O2219857   1.830   5.005  10.167  0.1507 -0.0871 -0.5212
  175SOPE   C2219858   1.680   4.807  10.122  0.6367  0.7628  0.0238
  175SOPE   H2R19859   1.623   4.782  10.214  2.1072  1.6884  1.2038
  175SOPE   H2S19860   1.715   4.708  10.084  1.5281  0.5414  1.3906
  175SOPE    C319861   2.137   4.865  10.151  0.3174 -0.4161 -0.1635
  175SOPE    HX19862   2.160   4.767  10.105 -1.1469 -0.8465 -0.0152
  175SOPE    HY19863   2.235   4.900  10.190  0.2997  1.9123 -2.1478
  175SOPE   O3119864   2.102   4.946  10.040 -0.1350  0.1310 -0.8704
  175SOPE   C3119865   2.113   5.079  10.064 -0.0584 -0.5170  0.9024
  175SOPE   O3219866   2.132   5.131  10.168 -0.1989 -0.0408 -0.1811
  175SOPE   C3219867   2.094   5.150   9.933 -0.1905  1.0425 -0.1887
  175SOPE   H2X19868   2.176   5.128   9.862 -0.0685 -1.1129  0.5855
  175SOPE   H2Y19869   2.087   5.257   9.963 -0.1781  0.6767  1.1447
  175SOPE   C2319870   1.579   4.870  10.019 -0.3816 -0.3047 -0.3077
  175SOPE   H3R19871   1.552   4.972  10.054 -0.4991  0.1803 -1.7463
  175SOPE   H3S19872   1.491   4.806   9.999 -0.5697 -0.0440 -0.3299
  175SOPE   C2419873   1.647   4.875   9.876  0.2408  0.2878 -1.3783
  175SOPE   H4R19874   1.755   4.887   9.896  0.1645 -2.4573  1.1606
  175SOPE   H4S19875   1.649   4.774   9.830  0.6442 -0.9158  1.1547
  175SOPE   C2519876   1.590   4.981   9.785  0.3611  0.4679 -0.0220
  175SOPE   H5R19877   1.479   4.983   9.796  0.1610 -1.5434 -1.3583
  175SOPE   H5S19878   1.635   5.074   9.823 -0.4349  2.0722 -2.8204
  175SOPE   C2619879   1.608   4.977   9.640  0.3413 -0.3822 -0.2074
  175SOPE   H6R19880   1.547   5.058   9.595  0.2550  0.1643  0.8817
  175SOPE   H6S19881   1.714   4.998   9.615  0.4983 -0.0752  0.7122
  175SOPE   C2719882   1.559   4.850   9.570 -0.1304  0.2040 -0.2020
  175SOPE   H7R19883   1.629   4.766   9.586 -1.0125 -0.7605 -1.3134
  175SOPE   H7S19884   1.462   4.813   9.609  0.3475 -0.7053  0.1317
  175SOPE   C2819885   1.538   4.867   9.418  1.1815  0.1197 -0.5070
  175SOPE   H8R19886   1.483   4.779   9.377 -1.9044  0.2100  3.1093
  175SOPE   H8S19887   1.460   4.946   9.421 -0.6930 -1.7083  1.5558
  175SOPE   C2919888   1.675   4.893   9.357 -0.0975  0.3534 -0.3769
  175SOPE   H9119889   1.756   4.862   9.424 -0.8220  0.6935  0.6579
  175SOPE  C21019890   1.704   4.934   9.228  0.2774 -0.0082 -0.5635
  175SOPE  H10119891   1.807   4.951   9.196  0.5279 -1.9652 -0.8366
  175SOPE  C21119892   1.602   4.973   9.123 -0.4908 -0.0255  0.4051
  175SOPE  H11R19893   1.501   4.956   9.166 -0.7127 -0.0905 -0.1490
  175SOPE  H11S19894   1.603   4.902   9.038 -0.6604  0.1656  0.2435
  175SOPE  C21219895   1.607   5.119   9.068  0.6648 -0.5405  0.2144
  175SOPE  H12R19896   1.714   5.149   9.059 -0.4055  3.2025 -0.7063
  175SOPE  H12S19897   1.556   5.192   9.134 -0.4970  1.0755 -2.4012
  175SOPE  C21319898   1.529   5.137   8.942 -0.0394  0.1045 -0.8227
  175SOPE  H13R19899   1.428   5.112   8.981  0.2391 -2.8702 -1.8703
  175SOPE  H13S19900   1.548   5.068   8.857 -1.4455  0.1490 -1.1816
  175SOPE  C21419901   1.542   5.283   8.885  0.2461 -1.0949 -0.1125
  175SOPE  H14R19902   1.544   5.356   8.969 -0.7773 -1.4892  0.2762
  175SOPE  H14S19903   1.455   5.301   8.818  0.3898  1.8318  0.4442
  175SOPE  C21519904   1.669   5.318   8.797 -0.0258  0.4764 -0.3600
  175SOPE  H15R19905   1.687   5.252   8.710 -0.7853  0.7439 -0.7202
  175SOPE  H15S19906   1.752   5.308   8.870 -0.8724 -0.6027  0.4853
  175SOPE  C21619907   1.654   5.460   8.746  0.1112  0.0872  0.0319
  175SOPE  H16R19908   1.555   5.474   8.696  0.7464  0.9977 -0.9967
  175SOPE  H16S19909   1.735   5.471   8.671  2.4807  2.0567  2.7589
  175SOPE  C21719910   1.678   5.575   8.847  0.3830 -0.2859 -0.1618
  175SOPE  H17R19911   1.777   5.558   8.895 -0.2703 -0.0293  1.3201
  175SOPE  H17S19912   1.600   5.579   8.926 -0.0145 -2.1438 -0.4381
  175SOPE  C21819913   1.675   5.715   8.780 -0.4865  0.1678  0.1925
  175SOPE  H18R19914   1.734   5.744   8.690 -0.8726  2.1469  0.5428
  175SOPE  H18S19915   1.704   5.792   8.856  0.2314 -0.6439  0.7540
  175SOPE  H18T19916   1.571   5.735   8.749 -0.0420 -0.9316 -2.1185
  175SOPE   C3319917   1.956   5.105   9.868 -0.0881  0.4151 -0.3554
  175SOPE   H3X19918   1.868   5.117   9.934  1.4753 -0.0801  1.8635
  175SOPE   H3Y19919   1.965   4.998   9.840 -1.7456 -0.3314  1.8391
  175SOPE   C3419920   1.926   5.184   9.737  0.1720  0.1073 -0.7813
  175SOPE   H4X19921   1.926   5.293   9.755  1.9670 -0.3233  2.3449
  175SOPE   H4Y19922   1.820   5.165   9.709  0.4592 -0.2842 -1.6202
  175SOPE   C3519923   2.012   5.149   9.616 -0.0155 -0.2121 -0.7777
  175SOPE   H5X19924   2.007   5.038   9.608  2.8871 -0.5880  1.5079
  175SOPE   H5Y19925   2.121   5.168   9.620  0.2654 -1.7794 -0.5220
  175SOPE   C3619926   1.971   5.215   9.484  0.5387 -0.0984  0.0268
  175SOPE   H6X19927   1.987   5.325   9.488  0.0429 -0.0605  1.3252
  175SOPE   H6Y19928   1.866   5.185   9.466 -0.0535  1.6779  0.3666
  175SOPE   C3719929   2.061   5.165   9.372 -0.7719  0.2019  0.1081
  175SOPE   H7X19930   2.047   5.055   9.383  0.1817 -0.1226 -1.8259
  175SOPE   H7Y19931   2.166   5.181   9.405  0.0078  0.2375 -2.2809
  175SOPE   C3819932   2.017   5.213   9.237  0.1847  0.5194  0.0319
  175SOPE   H8X19933   2.010   5.323   9.248 -1.7765  0.2688  1.4570
  175SOPE   H8Y19934   1.915   5.175   9.219 -0.0981  0.7641  1.1119
  175SOPE   C3919935   2.104   5.171   9.123 -0.3577  0.0865 -0.4574
  175SOPE   H9X19936   2.079   5.063   9.115  1.8886 -0.6145  1.4721
  175SOPE   H9Y19937   2.211   5.193   9.142 -0.7486  0.3731  1.4749
  175SOPE  C31019938   2.067   5.246   8.992 -0.2295  0.3134 -0.1733
  175SOPE  H10X19939   2.096   5.354   8.994 -1.3062  0.6055  0.1720
  175SOPE  H10Y19940   1.957   5.246   9.009 -0.3506 -0.4190 -0.9342
  175SOPE  C31119941   2.097   5.167   8.869 -0.3750  0.4872  0.4522
  175SOPE  H11X19942   2.044   5.215   8.784  0.0774  1.0169  0.4674
  175SOPE  H11Y19943   2.068   5.063   8.896 -1.0449  0.4701 -0.3330
  175SOPE  C31219944   2.245   5.168   8.832  0.5142  0.0268 -0.6567
  175SOPE  H12X19945   2.309   5.129   8.914  0.2624 -0.0597 -0.5000
  175SOPE  H12Y19946   2.275   5.273   8.812  1.2042  0.2739  1.5288
  175SOPE  C31319947   2.278   5.094   8.700  0.0947 -0.4902 -0.2902
  175SOPE  H13X19948   2.219   5.134   8.614 -0.3401 -2.2544 -0.8244
  175SOPE  H13Y19949   2.254   4.987   8.716  0.2548 -0.7851 -1.9773
  175SOPE  C31419950   2.425   5.109   8.673  0.3259 -0.0961  0.3516
  175SOPE  H14X19951   2.451   5.216   8.677  0.2956 -0.0274 -0.9053
  175SOPE  H14Y19952   2.454   5.078   8.570 -0.7972  1.0562 -0.3298
  175SOPE  C31519953   2.516   5.041   8.784 -0.5550 -0.2913  0.2526
  175SOPE  H15X19954   2.499   5.089   8.882 -2.8883 -1.5958  0.5135
  175SOPE  H15Y19955   2.624   5.052   8.758  0.0492 -0.2607  2.6918
  175SOPE  C31619956   2.491   4.890   8.807  0.2146 -0.0560  0.4449
  175SOPE  H16X19957   2.470   4.850   8.706  1.7417  0.7292 -0.1996
  175SOPE  H16Y19958   2.403   4.864   8.870 -0.0699  1.3051  0.6336
  175SOPE  C31719959   2.609   4.810   8.859  0.1502  0.0210 -0.0468
  175SOPE  H17X19960   2.617   4.820   8.970 -0.1290 -0.3976  0.0106
  175SOPE  H17Y19961   2.705   4.858   8.828 -0.3573  0.8938 -0.3012
  175SOPE  C31819962   2.608   4.664   8.813 -0.4060  0.4557  0.8376
  175SOPE  H18X19963   2.712   4.626   8.821 -1.0492 -1.8547 -1.1636
  175SOPE  H18Y19964   2.566   4.642   8.713 -1.5001 -0.3564  1.4679
  175SOPE  H18Z19965   2.558   4.608   8.895 -0.2156 -0.5993  0.2369
  176SOPE     N19966   1.051   4.758  11.190 -0.3108  0.8667 -0.0844
  176SOPE   HN119967   0.976   4.803  11.246  1.3996  0.1874  2.8408
  176SOPE   HN219968   1.073   4.667  11.235 -0.1398  0.3317 -1.2200
  176SOPE   HN319969   1.138   4.816  11.194  0.4280 -0.2735  0.5555
  176SOPE   C1219970   1.004   4.743  11.047 -0.2203  1.0189 -0.0211
  176SOPE  H12A19971   0.907   4.691  11.058 -0.5190  2.4924  5.8249
  176SOPE  H12B19972   1.066   4.670  10.990 -0.1561  0.3636  0.8921
  176SOPE   C1119973   0.977   4.876  10.980  0.6986  0.6378 -0.2821
  176SOPE  H11A19974   0.901   4.936  11.034 -0.9511  0.8402 -2.7778
  176SOPE  H11B19975   0.931   4.849  10.883 -1.3548  1.5360  0.4253
  176SOPE     P19976   1.231   4.901  10.891  0.1968 -0.3152  0.1522
  176SOPE   O1319977   1.299   4.820  10.992  0.5348 -0.5087 -0.0459
  176SOPE   O1419978   1.300   5.014  10.828  0.0756  0.3778 -0.3865
  176SOPE   O1219979   1.099   4.954  10.962 -0.0171 -0.2819 -0.0230
  176SOPE   O1119980   1.174   4.795  10.786  0.3620 -0.3735  0.2455
  176SOPE    C119981   1.234   4.801  10.655  0.8429  0.4731 -0.4777
  176SOPE    HA19982   1.344   4.791  10.664  0.6260 -1.8037 -0.0718
  176SOPE    HB19983   1.214   4.900  10.610 -0.4118  0.7274  0.6042
  176SOPE    C219984   1.171   4.705  10.552 -0.0930 -0.3024  0.2336
  176SOPE    HS19985   1.230   4.612  10.554  1.5785  0.7014 -1.3928
  176SOPE   O2119986   1.174   4.765  10.425  0.0416 -0.0794 -0.0177
  176SOPE   C2119987   1.268   4.747  10.346 -0.4683  0.1189 -0.3003
  176SOPE   O2219988   1.374   4.684  10.364  0.0531 -0.4582 -0.2350
  176SOPE   C2219989   1.239   4.817  10.209 -0.5069  0.6698 -0.5773
  176SOPE   H2R19990   1.335   4.815  10.152 -0.3105  1.8471 -0.2902
  176SOPE   H2S19991   1.217   4.924  10.227 -0.4685  0.5956 -0.0966
  176SOPE    C319992   1.018   4.672  10.568 -0.5218  0.1689  0.4087
  176SOPE    HX19993   0.975   4.772  10.593 -1.4995 -0.4459  1.2319
  176SOPE    HY19994   0.996   4.616  10.662 -0.3015  0.7994  0.8399
  176SOPE   O3119995   0.955   4.619  10.450 -0.3804 -0.1063  0.3762
  176SOPE   C3119996   1.002   4.502  10.415 -0.2287  0.7208  0.1547
  176SOPE   O3219997   1.083   4.439  10.475 -0.1048 -0.1422 -0.1383
  176SOPE   C3219998   0.923   4.448  10.300  0.0280 -0.2082  0.6391
  176SOPE   H2X19999   0.989   4.374  10.250 -0.0316 -0.4936  0.9747
  176SOPE   H2Y20000   0.911   4.521  10.217 -0.6825 -1.3324 -0.2730
  176SOPE   C2320001   1.138   4.748  10.117  0.0626 -0.4640 -0.2937
  176SOPE   H3R20002   1.120   4.815  10.031  1.2916 -0.2436 -0.3882
  176SOPE   H3S20003   1.040   4.728  10.167 -0.4584  1.1489 -0.6156
  176SOPE   C2420004   1.192   4.621  10.055 -0.0014  0.6877  0.3453
  176SOPE   H4R20005   1.294   4.635  10.013 -0.4325 -2.7009 -1.9715
  176SOPE   H4S20006   1.206   4.551  10.140 -0.9693 -0.7868 -0.6994
  176SOPE   C2520007   1.102   4.559   9.946 -0.5447 -1.0170  0.6736
  176SOPE   H5R20008   1.137   4.453   9.950  0.0024 -0.8830 -0.3727
  176SOPE   H5S20009   0.997   4.556   9.983 -0.6834  2.3299  0.6758
  176SOPE   C2620010   1.113   4.627   9.807  0.3141 -0.2546 -0.8673
  176SOPE   H6R20011   1.078   4.731   9.824  1.3738 -0.0012 -0.1958
  176SOPE   H6S20012   1.221   4.608   9.789  0.5458 -1.8729  1.9024
  176SOPE   C2720013   1.023   4.568   9.701  0.6429 -0.1326  0.2973
  176SOPE   H7R20014   1.050   4.462   9.678  1.4840  0.5563 -1.9823
  176SOPE   H7S20015   0.919   4.567   9.742 -0.3154  2.3754 -1.9737
  176SOPE   C2820016   1.034   4.646   9.565 -0.7448  0.1503 -0.2170
  176SOPE   H8R20017   0.959   4.625   9.486 -0.7281  2.9616 -1.0119
  176SOPE   H8S20018   1.010   4.749   9.600 -0.3587 -0.3432  1.5752
  176SOPE   C2920019   1.173   4.660   9.506  0.2478 -0.3960  0.4148
  176SOPE   H9120020   1.236   4.717   9.576 -0.8727  0.8927  0.3968
  176SOPE  C21020021   1.224   4.628   9.387 -0.0181 -0.1950  0.4615
  176SOPE  H10120022   1.330   4.647   9.363  0.6142 -0.5814  2.8369
  176SOPE  C21120023   1.144   4.570   9.272 -0.0117 -0.0780  0.5080
  176SOPE  H11R20024   1.075   4.494   9.315 -1.9629  0.1828 -2.0323
  176SOPE  H11S20025   1.198   4.515   9.192  1.6884  1.5036  0.5274
  176SOPE  C21220026   1.057   4.674   9.190  0.0565 -0.0973 -0.5170
  176SOPE  H12R20027   0.999   4.733   9.265  0.1153 -0.4119 -0.2268
  176SOPE  H12S20028   0.984   4.613   9.134  1.6989 -3.9204  1.3494
  176SOPE  C21320029   1.140   4.758   9.093 -0.3605 -0.2572 -0.1840
  176SOPE  H13R20030   1.238   4.714   9.064 -0.8989 -1.8146  0.2750
  176SOPE  H13S20031   1.157   4.847   9.157  1.5163 -0.6093 -0.1713
  176SOPE  C21420032   1.056   4.796   8.971  0.0311  0.2002 -0.6762
  176SOPE  H14R20033   0.955   4.812   9.013  0.0496 -0.4637 -0.3751
  176SOPE  H14S20034   1.063   4.707   8.905 -0.9152 -0.7867  0.5188
  176SOPE  C21520035   1.116   4.918   8.901  0.1012  0.0885 -0.1971
  176SOPE  H15R20036   1.205   4.894   8.839  0.1296 -2.3359  0.7303
  176SOPE  H15S20037   1.144   4.996   8.976 -1.7184  0.7736 -0.2096
  176SOPE  C21620038   1.006   4.972   8.810 -0.2234 -0.1085  0.0383
  176SOPE  H16R20039   0.910   4.965   8.867 -0.1252  3.1530  0.7216
  176SOPE  H16S20040   0.987   4.909   8.721 -0.9602 -2.6074  1.8884
  176SOPE  C21720041   1.020   5.120   8.772 -0.3079 -1.2522  0.3673
  176SOPE  H17R20042   0.980   5.186   8.852 -0.7548 -0.6883 -0.3110
  176SOPE  H17S20043   0.941   5.128   8.693  0.3636  2.1603 -0.0455
  176SOPE  C21820044   1.159   5.163   8.732  0.1069  0.6872 -0.1969
  176SOPE  H18R20045   1.206   5.096   8.656  1.1671  2.4656 -1.1638
  176SOPE  H18S20046   1.222   5.148   8.822 -0.8542 -0.1042  0.3447
  176SOPE  H18T20047   1.170   5.269   8.698 -2.0719  1.0557  0.2153
  176SOPE   C3320048   0.782   4.406  10.336 -0.0059  0.2079  0.8352
  176SOPE   H3X20049   0.733   4.470  10.413 -0.8764 -0.5933  0.9561
  176SOPE   H3Y20050   0.798   4.309  10.388 -0.3769  0.1804  0.9004
  176SOPE   C3420051   0.698   4.403  10.211 -0.2103 -0.1647  0.2137
  176SOPE   H4X20052   0.754   4.398  10.115  0.9161 -0.3753  0.8789
  176SOPE   H4Y20053   0.635   4.494  10.206  0.1856  0.1128  0.2796
  176SOPE   C3520054   0.601   4.285  10.216  0.4762 -0.1598 -0.1582
  176SOPE   H5X20055   0.596   4.255  10.323  0.3572 -0.7102 -0.3147
  176SOPE   H5Y20056   0.642   4.193  10.169  2.2297  0.6198 -0.1846
  176SOPE   C3620057   0.463   4.329  10.157  0.5329 -0.0808  0.3369
  176SOPE   H6X20058   0.447   4.436  10.182  2.2055  0.6561 -1.6260
  176SOPE   H6Y20059   0.386   4.265  10.205  0.6706 -2.0928 -2.0464
  176SOPE   C3720060   0.449   4.314  10.008 -0.4059 -0.0617  0.3052
  176SOPE   H7X20061   0.461   4.209   9.975  3.5757  0.9372 -1.6776
  176SOPE   H7Y20062   0.515   4.379   9.947 -0.8493 -0.7767 -0.9503
  176SOPE   C3820063   0.304   4.354   9.967 -0.5513 -0.4915 -0.3699
  176SOPE   H8X20064   0.304   4.464   9.984 -1.4856 -0.7223  1.2056
  176SOPE   H8Y20065   0.233   4.314  10.042  1.2953  0.7843  2.1289
  176SOPE   C3920066   0.274   4.302   9.826 -0.0296 -0.0216 -0.2067
  176SOPE   H9X20067   0.165   4.301   9.808 -0.1444  1.6786  0.2770
  176SOPE   H9Y20068   0.301   4.195   9.826  1.4898  0.3456 -0.8883
  176SOPE  C31020069   0.359   4.366   9.710  0.1469 -0.1751  0.8106
  176SOPE  H10X20070   0.468   4.367   9.729  0.7609 -0.5988 -2.3826
  176SOPE  H10Y20071   0.333   4.473   9.718 -0.0306 -0.2585  1.3607
  176SOPE  C31120072   0.305   4.324   9.574  0.2775  0.1023  0.5436
  176SOPE  H11X20073   0.198   4.352   9.560  0.3663  0.0664 -0.2535
  176SOPE  H11Y20074   0.311   4.213   9.563  1.0878  0.3133 -1.3382
  176SOPE  C31220075   0.384   4.387   9.460 -0.3911  0.3862  0.4296
  176SOPE  H12X20076   0.493   4.371   9.457  0.0687  3.1919  0.4459
  176SOPE  H12Y20077   0.382   4.496   9.483  0.5204  0.7685 -1.2304
  176SOPE  C31320078   0.311   4.360   9.329 -0.0387 -0.3329 -0.2960
  176SOPE  H13X20079   0.213   4.412   9.332  0.1198 -0.0374 -0.2395
  176SOPE  H13Y20080   0.284   4.253   9.316 -2.4645  0.1225  0.6334
  176SOPE  C31420081   0.390   4.406   9.214  0.3764 -0.0514  0.0330
  176SOPE  H14X20082   0.474   4.334   9.206  0.4993  0.0463  0.4596
  176SOPE  H14Y20083   0.422   4.510   9.236  1.5724 -0.7371  1.6405
  176SOPE  C31520084   0.299   4.400   9.085  0.0452 -0.1309 -0.9092
  176SOPE  H15X20085   0.213   4.470   9.094  0.9034  0.8480 -0.1962
  176SOPE  H15Y20086   0.249   4.301   9.086 -0.8406  0.2903  1.7706
  176SOPE  C31620087   0.378   4.427   8.958  0.7442 -0.0098 -0.1760
  176SOPE  H16X20088   0.447   4.340   8.966  3.5919  2.1835 -0.1591
  176SOPE  H16Y20089   0.446   4.515   8.965  0.1192  0.3522  1.7268
  176SOPE  C31720090   0.284   4.426   8.842 -0.3714  0.2295  0.2676
  176SOPE  H17X20091   0.240   4.528   8.836 -0.6779  0.1865  1.5101
  176SOPE  H17Y20092   0.194   4.367   8.870 -1.1710  1.0862 -0.4680
  176SOPE  C31820093   0.348   4.384   8.712 -0.0900  0.0370  0.0677
  176SOPE  H18X20094   0.268   4.398   8.636 -0.1069 -0.5755 -0.0298
  176SOPE  H18Y20095   0.397   4.285   8.707  1.7299  0.9816 -1.4426
  176SOPE  H18Z20096   0.422   4.464   8.691 -0.5202  1.3787  3.2556
  177SOPE     N20097   0.169   2.358  10.975  0.2600  0.3514 -0.0058
  177SOPE   HN120098   0.122   2.313  10.894  1.3581 -0.6657 -0.0917
  177SOPE   HN220099   0.258   2.400  10.938 -0.1523  0.1468 -1.2455
  177SOPE   HN320100   0.184   2.289  11.051 -3.4198 -0.2876  0.2210
  177SOPE   C1220101   0.076   2.470  10.998 -0.0247 -0.8789 -0.4730
  177SOPE  H12A20102   0.123   2.537  11.074 -0.7773  0.4268 -1.1496
  177SOPE  H12B20103  -0.018   2.420  11.030  0.5953 -2.1319 -0.6040
  177SOPE   C1120104   0.042   2.546  10.877  0.2364 -0.8414  0.1731
  177SOPE  H11A20105  -0.046   2.613  10.891 -1.3026 -1.8842 -3.8827
  177SOPE  H11B20106   0.012   2.463  10.810 -0.2376  0.5160 -1.3092
  177SOPE     P20107   0.210   2.745  10.876  0.2362  0.3666  0.5084
  177SOPE   O1320108   0.268   2.715  10.999 -0.2990  0.8608  0.2812
  177SOPE   O1420109   0.102   2.843  10.878  0.1876  0.7423 -0.1365
  177SOPE   O1220110   0.160   2.602  10.819  0.1072  0.1472 -0.9620
  177SOPE   O1120111   0.327   2.790  10.778  0.3099  0.1284 -0.1957
  177SOPE    C120112   0.419   2.700  10.725 -0.4985  0.1661  0.5714
  177SOPE    HA20113   0.429   2.605  10.781  0.5668 -0.3230 -0.4272
  177SOPE    HB20114   0.520   2.739  10.750  0.6384 -1.2703 -1.6126
  177SOPE    C220115   0.418   2.686  10.577  0.3593  0.3302  0.6745
  177SOPE    HS20116   0.502   2.619  10.549  0.6429  1.1347 -0.4147
  177SOPE   O2120117   0.423   2.815  10.520 -0.4062 -0.1944  0.3400
  177SOPE   C2120118   0.468   2.813  10.391 -0.1327  0.5648  0.2135
  177SOPE   O2220119   0.535   2.729  10.337 -0.2119  0.0419 -0.2543
  177SOPE   C2220120   0.426   2.949  10.334  0.3685 -0.2539 -0.1460
  177SOPE   H2R20121   0.508   3.022  10.351  0.7879 -1.4260  3.4776
  177SOPE   H2S20122   0.335   2.988  10.384  1.2070 -0.4924  1.6255
  177SOPE    C320123   0.284   2.606  10.544 -0.9267  0.1942  0.4844
  177SOPE    HX20124   0.191   2.664  10.561 -0.2576  1.8667 -1.3680
  177SOPE    HY20125   0.270   2.513  10.604  0.0682 -0.3708 -0.1479
  177SOPE   O3120126   0.291   2.564  10.406 -0.6110 -0.1040  0.0027
  177SOPE   C3120127   0.366   2.448  10.377 -0.2883  0.8659 -0.2794
  177SOPE   O3220128   0.421   2.381  10.461  0.3305 -0.0559 -0.3430
  177SOPE   C3220129   0.389   2.435  10.230 -0.2375  0.0702 -0.0821
  177SOPE   H2X20130   0.449   2.343  10.210  2.6580  1.7110  0.7323
  177SOPE   H2Y20131   0.460   2.516  10.203 -2.8285  2.7202  0.8507
  177SOPE   C2320132   0.398   2.931  10.181  0.4802  0.7065  0.4709
  177SOPE   H3R20133   0.305   2.873  10.166  1.1512  0.2630 -2.2652
  177SOPE   H3S20134   0.479   2.874  10.132  1.0722  0.5695  1.5945
  177SOPE   C2420135   0.419   3.071  10.113  0.3965  1.1834 -0.0507
  177SOPE   H4R20136   0.337   3.138  10.146 -1.6294 -1.5170  0.5789
  177SOPE   H4S20137   0.518   3.107  10.149  0.4319 -1.1423  2.3137
  177SOPE   C2520138   0.439   3.061   9.964  0.1755  0.0666  0.6384
  177SOPE   H5R20139   0.538   3.031   9.925  1.1171  1.0404  2.2513
  177SOPE   H5S20140   0.357   2.997   9.924 -0.9306  0.4823  2.1975
  177SOPE   C2620141   0.422   3.203   9.899  0.6671  0.4686 -0.0333
  177SOPE   H6R20142   0.444   3.192   9.790 -0.7746  0.6068 -0.3439
  177SOPE   H6S20143   0.322   3.245   9.923 -0.0405 -2.5303  2.5938
  177SOPE   C2720144   0.538   3.299   9.939 -0.7387  0.5701  0.1407
  177SOPE   H7R20145   0.520   3.324  10.046 -1.7242  0.6090 -0.0298
  177SOPE   H7S20146   0.636   3.249   9.924 -0.1912  1.4165  0.8225
  177SOPE   C2820147   0.553   3.424   9.858  0.1170 -0.3456 -0.1789
  177SOPE   H8R20148   0.459   3.481   9.849  0.2630  0.2395  1.7578
  177SOPE   H8S20149   0.620   3.500   9.904  1.3383 -1.1220 -0.6309
  177SOPE   C2920150   0.625   3.392   9.726 -0.6005 -0.7335 -0.3013
  177SOPE   H9120151   0.730   3.361   9.738 -0.7444 -1.0991  0.0059
  177SOPE  C21020152   0.577   3.407   9.601  0.4581 -0.2101 -0.0709
  177SOPE  H10120153   0.653   3.396   9.522  0.8603 -1.5239  0.4883
  177SOPE  C21120154   0.441   3.464   9.565 -0.4329 -0.0163 -0.0342
  177SOPE  H11R20155   0.384   3.491   9.656  0.1047  0.1007  0.2715
  177SOPE  H11S20156   0.386   3.376   9.525 -0.1748  0.5075 -1.5697
  177SOPE  C21220157   0.452   3.582   9.465 -0.5010 -0.3196  0.1291
  177SOPE  H12R20158   0.482   3.674   9.521 -2.5434  0.5136 -0.0841
  177SOPE  H12S20159   0.351   3.604   9.425  0.0115 -1.0748 -1.5996
  177SOPE  C21320160   0.542   3.562   9.340 -0.2880 -1.1224 -0.5805
  177SOPE  H13R20161   0.647   3.566   9.374 -0.9198 -0.4870  1.4023
  177SOPE  H13S20162   0.530   3.654   9.279  0.3378  1.4356  3.0078
  177SOPE  C21420163   0.505   3.438   9.260 -0.5072 -0.0825  0.4055
  177SOPE  H14R20164   0.402   3.456   9.222 -0.1083 -1.1053 -1.1973
  177SOPE  H14S20165   0.512   3.346   9.322  1.0999  1.7084  2.9800
  177SOPE  C21520166   0.602   3.407   9.139  0.3340 -0.9337  0.2119
  177SOPE  H15R20167   0.707   3.409   9.175  0.8662  2.0643 -1.3117
  177SOPE  H15S20168   0.592   3.485   9.060 -0.8652 -2.9345 -1.6437
  177SOPE  C21620169   0.577   3.266   9.076  0.1576 -1.0600  0.7596
  177SOPE  H16R20170   0.561   3.189   9.155  2.9113 -1.6295  0.8138
  177SOPE  H16S20171   0.664   3.225   9.020  0.1586 -0.7426  0.5257
  177SOPE  C21720172   0.464   3.272   8.976 -0.2444 -0.0617 -0.5676
  177SOPE  H17R20173   0.484   3.354   8.904 -0.7739 -1.2763 -2.1241
  177SOPE  H17S20174   0.368   3.286   9.029 -0.3620  0.5642 -0.9409
  177SOPE  C21820175   0.449   3.144   8.905 -0.2250  0.1026  0.5611
  177SOPE  H18R20176   0.545   3.113   8.860  0.1110  0.9872  0.6757
  177SOPE  H18S20177   0.383   3.155   8.816  0.4466 -2.4734 -0.2880
  177SOPE  H18T20178   0.414   3.065   8.976  1.5125 -1.6392 -0.4636
  177SOPE   C3320179   0.258   2.455  10.150  0.2972 -0.4548  1.0859
  177SOPE   H3X20180   0.191   2.536  10.186  0.6912  1.6104 -2.5307
  177SOPE   H3Y20181   0.211   2.355  10.143  1.6689 -0.9430 -2.4999
  177SOPE   C3420182   0.277   2.499   9.997 -0.1927  0.2347  0.1057
  177SOPE   H4X20183   0.177   2.508   9.949  0.4111 -0.7923 -1.4000
  177SOPE   H4Y20184   0.323   2.422   9.931  1.0491  2.0350 -1.1786
  177SOPE   C3520185   0.347   2.636   9.978  0.2013  0.3375 -0.6299
  177SOPE   H5X20186   0.438   2.633  10.042  0.0803 -1.3144 -0.5010
  177SOPE   H5Y20187   0.284   2.716  10.022  0.3031 -0.2289  0.5750
  177SOPE   C3620188   0.387   2.675   9.832  0.0335  0.4231  0.4577
  177SOPE   H6X20189   0.463   2.602   9.796 -0.9137 -0.1817 -0.3578
  177SOPE   H6Y20190   0.437   2.772   9.848 -1.3743  1.4394 -1.2161
  177SOPE   C3720191   0.265   2.661   9.732 -0.1146  0.4855 -1.2755
  177SOPE   H7X20192   0.174   2.707   9.777  0.1886  0.1758 -0.3277
  177SOPE   H7Y20193   0.233   2.555   9.732 -0.4579  0.5889 -1.6238
  177SOPE   C3820194   0.296   2.689   9.589  0.7727 -0.5908  0.4884
  177SOPE   H8X20195   0.393   2.636   9.573  1.3559  1.0529 -1.6380
  177SOPE   H8Y20196   0.322   2.795   9.571 -2.3215  0.0632 -0.2766
  177SOPE   C3920197   0.192   2.646   9.488 -1.2554 -0.0633  0.0995
  177SOPE   H9X20198   0.100   2.705   9.510 -1.1566  0.1535 -0.0593
  177SOPE   H9Y20199   0.161   2.540   9.501 -2.7549  0.0065 -2.5433
  177SOPE  C31020200   0.235   2.659   9.341  0.3580  0.3572 -0.1772
  177SOPE  H10X20201   0.158   2.606   9.281  1.0051 -0.6383 -0.1480
  177SOPE  H10Y20202   0.329   2.603   9.321 -0.3047 -0.0746 -2.1806
  177SOPE  C31120203   0.267   2.802   9.296  0.4252  0.4229  0.2203
  177SOPE  H11X20204   0.323   2.862   9.371  0.4775  0.7250 -0.0591
  177SOPE  H11Y20205   0.171   2.857   9.287 -0.1599 -0.6589 -0.2096
  177SOPE  C31220206   0.340   2.814   9.161  0.1603 -0.1302 -0.5307
  177SOPE  H12X20207   0.449   2.792   9.167  0.1627  0.5537  3.7995
  177SOPE  H12Y20208   0.319   2.907   9.105 -0.2548 -1.4395 -2.6228
  177SOPE  C31320209   0.295   2.704   9.053  0.9394  0.0465  0.0468
  177SOPE  H13X20210   0.188   2.730   9.042  0.8234 -0.1557  0.6507
  177SOPE  H13Y20211   0.311   2.602   9.094 -2.0873  0.4081  2.2817
  177SOPE  C31420212   0.372   2.727   8.918  0.6253  0.5612 -0.3345
  177SOPE  H14X20213   0.475   2.745   8.957 -0.0208 -0.9839  2.2557
  177SOPE  H14Y20214   0.340   2.816   8.861 -0.0010  1.1665  0.9372
  177SOPE  C31520215   0.351   2.598   8.830  0.8193 -0.1848 -0.2232
  177SOPE  H15X20216   0.244   2.592   8.802  0.0982  2.0646  1.9092
  177SOPE  H15Y20217   0.366   2.512   8.900 -2.6933 -0.7402 -0.0767
  177SOPE  C31620218   0.444   2.588   8.708 -0.0224 -0.5081  0.1822
  177SOPE  H16X20219   0.543   2.576   8.756 -1.0527 -1.0796  2.1980
  177SOPE  H16Y20220   0.442   2.683   8.650  0.8276 -0.6412 -0.0737
  177SOPE  C31720221   0.402   2.486   8.602  0.0981 -0.2965  0.0735
  177SOPE  H17X20222   0.300   2.507   8.562  0.3421  0.3012 -0.2435
  177SOPE  H17Y20223   0.404   2.383   8.643 -0.1387 -0.8084 -1.1797
  177SOPE  C31820224   0.496   2.484   8.481 -0.0234 -0.0225 -0.2690
  177SOPE  H18X20225   0.604   2.485   8.507 -0.4803  0.2047  1.7276
  177SOPE  H18Y20226   0.468   2.573   8.422  0.9306  0.1569 -0.4470
  177SOPE  H18Z20227   0.472   2.391   8.424  1.0409 -0.4974  0.0524
  178SOPE     N20228   4.753   1.276  10.576 -0.3805 -0.4424 -0.2524
  178SOPE   HN120229   4.734   1.371  10.613  0.9995 -0.1753 -0.1701
  178SOPE   HN220230   4.744   1.282  10.473  1.4668 -0.8690 -0.4585
  178SOPE   HN320231   4.680   1.208  10.606 -0.0033 -1.0801 -0.7489
  178SOPE   C1220232   4.896   1.218  10.621  0.5744  0.4574 -0.0488
  178SOPE  H12A20233   4.893   1.184  10.727  0.8956  0.9344  0.1149
  178SOPE  H12B20234   4.970   1.300  10.610  1.1338  0.2032  1.6874
  178SOPE   C1120235   4.935   1.095  10.539  0.4914 -0.7272  0.2610
  178SOPE  H11A20236   5.036   1.058  10.567  0.8198  0.5452  0.8032
  178SOPE  H11B20237   4.941   1.134  10.435  0.2141 -1.1522  0.0839
  178SOPE     P20238   4.861   0.849  10.593 -0.1219 -0.2406  0.6852
  178SOPE   O1320239   4.758   0.763  10.545  0.2917  0.3051 -0.4313
  178SOPE   O1420240   4.889   0.854  10.739  0.1162  0.3315  0.5069
  178SOPE   O1220241   4.833   0.996  10.541  0.3289 -0.6049  0.0142
  178SOPE   O1120242   4.993   0.807  10.517 -0.1504  0.3393  0.0936
  178SOPE    C120243   5.014   0.823  10.377 -0.6510  0.0273 -0.8995
  178SOPE    HA20244   5.049   0.926  10.356 -0.6351  0.6970  2.0998
  178SOPE    HB20245   4.928   0.791  10.314 -0.9107 -1.1183  0.0027
  178SOPE    C220246   5.141   0.737  10.338  0.1241 -0.2373  0.1363
  178SOPE    HS20247   5.209   0.763  10.421  0.1070 -0.6712  0.2860
  178SOPE   O2120248   5.191   0.770  10.209  0.0938  0.1096 -0.3211
  178SOPE   C2120249   5.316   0.733  10.193 -0.1428  0.5595 -0.0637
  178SOPE   O2220250   5.394   0.708  10.285  0.1515  0.2791  0.0442
  178SOPE   C2220251   5.356   0.753  10.042  0.5017  0.0789 -0.3244
  178SOPE   H2R20252   5.318   0.851  10.009  1.3415  0.9215  1.1544
  178SOPE   H2S20253   5.304   0.669   9.990  0.1099  0.4984 -0.6146
  178SOPE    C320254   5.106   0.581  10.346 -0.0939  0.2155  0.1237
  178SOPE    HX20255   5.063   0.576  10.449 -1.5768 -0.5771 -0.5221
  178SOPE    HY20256   5.196   0.516  10.347 -1.6137 -1.9259  1.0671
  178SOPE   O3120257   5.001   0.555  10.254 -0.1805  0.3565  0.0406
  178SOPE   C3120258   5.040   0.493  10.136 -0.3815  0.2764  0.1886
  178SOPE   O3220259   5.155   0.467  10.103 -0.4446  0.8053 -0.4248
  178SOPE   C3220260   4.928   0.460  10.049  0.3233 -0.5141  0.5373
  178SOPE   H2X20261   4.848   0.415  10.112 -1.1703  2.1246  0.6139
  178SOPE   H2Y20262   4.952   0.396   9.962  1.4379  1.3511 -0.5535
  178SOPE   C2320263   5.503   0.747  10.005 -0.2815  0.0271  0.8586
  178SOPE   H3R20264   5.561   0.828  10.054 -2.1196  1.7131  0.3044
  178SOPE   H3S20265   5.502   0.778   9.898  2.9742  2.5013  1.4651
  178SOPE   C2420266   5.577   0.616  10.014  0.1589 -0.1570 -0.6354
  178SOPE   H4R20267   5.583   0.578  10.118 -0.5615 -0.7974 -0.8208
  178SOPE   H4S20268   5.529   0.532   9.958 -4.2107  0.4080  2.0200
  178SOPE   C2520269   5.723   0.630   9.981 -0.5178  0.5878 -0.1079
  178SOPE   H5R20270   5.758   0.725  10.027  0.8079 -0.3691  0.8910
  178SOPE   H5S20271   5.792   0.555  10.025 -1.1248  1.3215  2.1964
  178SOPE   C2620272   5.749   0.642   9.828  0.1555  0.3522  0.5796
  178SOPE   H6R20273   5.671   0.716   9.800 -0.6646 -1.0021 -0.7539
  178SOPE   H6S20274   5.849   0.684   9.804  1.1188 -1.8340  0.7031
  178SOPE   C2720275   5.731   0.511   9.749  0.3054 -0.0205 -0.1950
  178SOPE   H7R20276   5.822   0.454   9.776  0.7776  1.0566  0.5290
  178SOPE   H7S20277   5.650   0.444   9.783  0.5323 -0.0687  0.2494
  178SOPE   C2820278   5.734   0.539   9.598  0.3336 -0.0944 -0.4307
  178SOPE   H8R20279   5.647   0.605   9.577  1.5340  2.2935  1.7825
  178SOPE   H8S20280   5.834   0.584   9.582 -0.3915  1.3029 -1.1972
  178SOPE   C2920281   5.732   0.411   9.510  0.3441  0.4247 -0.3808
  178SOPE   H9120282   5.705   0.315   9.556 -2.2859  0.9073 -0.8195
  178SOPE  C21020283   5.785   0.404   9.382 -0.4161 -0.2919 -0.0316
  178SOPE  H10120284   5.788   0.309   9.327  2.4638 -0.0041 -0.4336
  178SOPE  C21120285   5.827   0.523   9.301  0.6109 -0.5849 -0.2849
  178SOPE  H11R20286   5.936   0.530   9.278  0.5088 -0.3326 -0.6972
  178SOPE  H11S20287   5.818   0.616   9.361 -1.1591  0.4411 -2.0893
  178SOPE  C21220288   5.737   0.549   9.174  0.2394  0.5624  0.5907
  178SOPE  H12R20289   5.746   0.648   9.125 -2.3287 -0.0823 -1.2806
  178SOPE  H12S20290   5.628   0.548   9.197  0.2078 -3.9224  0.6276
  178SOPE  C21320291   5.760   0.447   9.060  0.0060  0.0742  1.3228
  178SOPE  H13R20292   5.678   0.374   9.073  1.5798 -1.8495  0.6744
  178SOPE  H13S20293   5.858   0.399   9.084  0.3890  0.5336  0.6897
  178SOPE  C21420294   5.749   0.503   8.915  0.5372  0.6401  0.3322
  178SOPE  H14R20295   5.811   0.594   8.903 -1.5267  1.7673 -2.2162
  178SOPE  H14S20296   5.642   0.522   8.893  0.0589 -0.1104  1.8723
  178SOPE  C21520297   5.797   0.395   8.829 -1.1835  0.4788 -0.3286
  178SOPE  H15R20298   5.737   0.303   8.849 -1.3449  1.1490  2.4227
  178SOPE  H15S20299   5.906   0.387   8.850 -1.0682  2.1849 -0.2359
  178SOPE  C21620300   5.813   0.423   8.680  0.3061 -0.1400  0.5310
  178SOPE  H16R20301   5.853   0.524   8.656 -2.5992  0.8457 -0.3470
  178SOPE  H16S20302   5.712   0.422   8.634  0.3585 -0.7782  0.4206
  178SOPE  C21720303   5.889   0.316   8.608 -0.3730 -0.3437  0.4845
  178SOPE  H17R20304   5.983   0.297   8.664 -0.0350 -1.4439 -0.4520
  178SOPE  H17S20305   5.912   0.345   8.503 -1.6006 -2.3201 -0.3601
  178SOPE  C21820306   5.824   0.176   8.597  0.4757 -0.5361  0.2007
  178SOPE  H18R20307   5.733   0.184   8.534  1.2312  0.6027 -0.7684
  178SOPE  H18S20308   5.795   0.147   8.701  0.8204 -1.6138 -0.0047
  178SOPE  H18T20309   5.896   0.103   8.557  2.1819  0.8074  0.7533
  178SOPE   C3320310   4.869   0.585   9.990 -0.2624 -0.4954 -1.4309
  178SOPE   H3X20311   4.959   0.645   9.964 -0.6943  0.6572 -0.3639
  178SOPE   H3Y20312   4.814   0.645  10.066 -1.0922 -1.5267 -1.2065
  178SOPE   C3420313   4.793   0.567   9.859  0.3427  0.2739 -0.5169
  178SOPE   H4X20314   4.843   0.489   9.798 -0.9413  0.4583 -1.8190
  178SOPE   H4Y20315   4.797   0.662   9.800 -1.0476  0.8768  0.3488
  178SOPE   C3520316   4.651   0.520   9.884 -0.3017 -0.0140  0.0002
  178SOPE   H5X20317   4.598   0.600   9.938  2.2091  1.2463  0.6991
  178SOPE   H5Y20318   4.642   0.426   9.943 -2.3007 -0.7078 -1.3576
  178SOPE   C3620319   4.580   0.492   9.753 -0.0677 -0.0458  0.5463
  178SOPE   H6X20320   4.655   0.437   9.692 -0.0977 -0.9958  1.3388
  178SOPE   H6Y20321   4.550   0.589   9.709 -2.7025 -1.1171 -0.1144
  178SOPE   C3720322   4.463   0.388   9.770  0.0997 -0.5953  0.0381
  178SOPE   H7X20323   4.399   0.429   9.851  1.8481  0.7575  0.7565
  178SOPE   H7Y20324   4.505   0.299   9.822 -0.2830  0.0139  1.4148
  178SOPE   C3820325   4.396   0.334   9.644  0.1751  0.3149  0.3201
  178SOPE   H8X20326   4.364   0.420   9.580 -0.7346 -0.2576 -0.0070
  178SOPE   H8Y20327   4.304   0.281   9.678 -0.8441  0.7394 -1.6495
  178SOPE   C3920328   4.486   0.246   9.564 -0.6297 -1.4412 -0.4629
  178SOPE   H9X20329   4.484   0.147   9.613 -0.9194 -0.3526  1.8108
  178SOPE   H9Y20330   4.596   0.265   9.564 -0.8926  0.2144 -0.1192
  178SOPE  C31020331   4.431   0.234   9.425  0.0017 -0.7041 -0.3046
  178SOPE  H10X20332   4.423   0.328   9.367  2.6425 -1.5552 -2.1221
  178SOPE  H10Y20333   4.330   0.188   9.437  0.0146 -0.4817  0.6913
  178SOPE  C31120334   4.507   0.141   9.331  0.2959 -1.0060 -0.5602
  178SOPE  H11X20335   4.519   0.040   9.376  1.9261 -0.1237  1.0785
  178SOPE  H11Y20336   4.613   0.173   9.317  0.2307 -1.0119 -1.0579
  178SOPE  C31220337   4.432   0.141   9.191 -0.0528  0.5567 -0.5151
  178SOPE  H12X20338   4.429   0.239   9.139  0.8147  1.1427  0.4918
  178SOPE  H12Y20339   4.327   0.107   9.201 -0.1389  0.7230 -0.8561
  178SOPE  C31320340   4.517   0.054   9.091  0.4365  0.5226 -0.4216
  178SOPE  H13X20341   4.452   0.026   9.005  0.4231 -2.4945  0.5288
  178SOPE  H13Y20342   4.553  -0.037   9.145 -1.2375  0.3742  0.4589
  178SOPE  C31420343   4.636   0.136   9.029 -0.4367  0.7192  0.2242
  178SOPE  H14X20344   4.712   0.126   9.110 -0.4969 -1.3913  0.0582
  178SOPE  H14Y20345   4.618   0.243   9.005 -1.5205 -0.1117 -2.9821
  178SOPE  C31520346   4.698   0.062   8.898  0.7819  0.0352  0.0809
  178SOPE  H15X20347   4.717  -0.046   8.914  0.7295 -0.2723 -1.8236
  178SOPE  H15Y20348   4.798   0.106   8.881  1.2466 -1.1747 -0.3139
  178SOPE  C31620349   4.605   0.087   8.775  0.2259  0.2887  0.7008
  178SOPE  H16X20350   4.611   0.195   8.751 -1.9661 -0.2016 -2.4360
  178SOPE  H16Y20351   4.504   0.069   8.818  0.1189 -0.1894  0.2497
  178SOPE  C31720352   4.641   0.006   8.652 -0.3880  0.0551 -0.5819
  178SOPE  H17X20353   4.637  -0.104   8.660 -1.6695  0.1697  0.4072
  178SOPE  H17Y20354   4.743   0.042   8.626 -0.5688  1.5616  0.7127
  178SOPE  C31820355   4.560   0.043   8.526  0.9283  0.0382 -0.1545
  178SOPE  H18X20356   4.552   0.152   8.504 -2.1973  0.2708  1.8072
  178SOPE  H18Y20357   4.453   0.015   8.533  0.8505  0.6248  1.1700
  178SOPE  H18Z20358   4.593  -0.014   8.437 -0.7202  1.4754 -1.7472
  179SOPE     N20359   3.794   1.944   6.413  0.2994  0.2752  0.2366
  179SOPE   HN120360   3.829   1.853   6.376  2.2741  0.8354  0.6652
  179SOPE   HN220361   3.851   2.023   6.376  0.9817  0.8576  2.4641
  179SOPE   HN320362   3.796   1.950   6.516  1.5318 -2.0841  0.3691
  179SOPE   C1220363   3.663   1.973   6.355 -0.1842  0.4631  0.1527
  179SOPE  H12A20364   3.605   1.878   6.354  0.8969 -0.2338  1.3464
  179SOPE  H12B20365   3.673   2.009   6.251  0.3189  1.2277  0.4570
  179SOPE   C1120366   3.586   2.086   6.419 -0.8227 -0.4783 -0.0941
  179SOPE  H11A20367   3.489   2.090   6.367 -1.9065  1.8566  2.0162
  179SOPE  H11B20368   3.644   2.180   6.412  0.0817 -1.1545 -2.1456
  179SOPE     P20369   3.652   2.093   6.689 -0.0165 -0.1900  0.1212
  179SOPE   O1320370   3.770   2.001   6.669  0.8905 -0.3367 -0.2254
  179SOPE   O1420371   3.574   2.093   6.818 -0.6683  0.8463  0.4560
  179SOPE   O1220372   3.553   2.072   6.560  0.3065  0.1391 -0.1908
  179SOPE   O1120373   3.706   2.235   6.669 -0.1399 -0.3282  0.3334
  179SOPE    C120374   3.619   2.340   6.623 -0.2137  0.1559 -0.0844
  179SOPE    HA20375   3.511   2.319   6.605 -0.1604 -1.9583  1.7901
  179SOPE    HB20376   3.652   2.366   6.520  1.2204 -0.8483  0.1103
  179SOPE    C220377   3.643   2.470   6.699  0.2339 -0.5551 -0.4421
  179SOPE    HS20378   3.747   2.501   6.676 -0.7749  0.8865 -3.2637
  179SOPE   O2120379   3.613   2.451   6.835  0.1340 -0.6616 -0.7203
  179SOPE   C2120380   3.723   2.423   6.911  0.1951 -0.3428 -0.2353
  179SOPE   O2220381   3.841   2.436   6.886  0.1933  0.5906  0.0681
  179SOPE   C2220382   3.676   2.381   7.053 -0.1604 -0.6074 -0.0461
  179SOPE   H2R20383   3.699   2.274   7.076  2.7847  0.0023  0.0567
  179SOPE   H2S20384   3.568   2.401   7.063 -0.5019 -1.0490 -2.5444
  179SOPE    C320385   3.539   2.577   6.654  0.5397  0.2984  0.1544
  179SOPE    HX20386   3.443   2.525   6.676 -0.0140  1.4468  0.4875
  179SOPE    HY20387   3.541   2.585   6.543 -2.4534 -1.8467 -0.1181
  179SOPE   O3120388   3.553   2.704   6.724  0.3804  0.0877 -0.1202
  179SOPE   C3120389   3.653   2.782   6.685  0.3461  0.7846  0.2592
  179SOPE   O3220390   3.741   2.751   6.607  0.9833  0.0109 -0.2706
  179SOPE   C3220391   3.653   2.914   6.767  0.5932 -0.9692  0.8914
  179SOPE   H2X20392   3.565   2.973   6.734  2.0633  0.2110 -1.0276
  179SOPE   H2Y20393   3.739   2.964   6.716 -0.9053 -0.8573 -1.5786
  179SOPE   C2320394   3.754   2.451   7.168 -0.1446 -0.3204  0.1982
  179SOPE   H3R20395   3.784   2.558   7.162  3.1164 -1.2100 -0.3375
  179SOPE   H3S20396   3.851   2.399   7.187  0.1233 -0.2101 -0.8488
  179SOPE   C2420397   3.668   2.432   7.298  0.1035 -0.7934 -0.2196
  179SOPE   H4R20398   3.573   2.480   7.266  0.6265  0.2061 -0.3143
  179SOPE   H4S20399   3.658   2.325   7.326  0.0079 -0.6103  0.4461
  179SOPE   C2520400   3.744   2.494   7.419 -0.1309 -0.5216 -0.0854
  179SOPE   H5R20401   3.829   2.426   7.438 -1.7218 -3.4216 -3.0459
  179SOPE   H5S20402   3.796   2.586   7.382  0.0517 -0.0266  1.3570
  179SOPE   C2620403   3.660   2.514   7.546 -0.4514  0.4411  0.1802
  179SOPE   H6R20404   3.588   2.597   7.530  1.8261  2.4315 -0.0658
  179SOPE   H6S20405   3.607   2.417   7.561 -1.0074  0.0993 -3.6926
  179SOPE   C2720406   3.749   2.521   7.675  0.2438  0.5616 -0.1278
  179SOPE   H7R20407   3.818   2.434   7.670 -2.9602 -2.1550  0.7197
  179SOPE   H7S20408   3.801   2.619   7.677  0.3928  0.4943 -0.6617
  179SOPE   C2820409   3.659   2.506   7.803 -0.3720  0.0809  0.3723
  179SOPE   H8R20410   3.583   2.586   7.799  2.1438  2.5359  0.3924
  179SOPE   H8S20411   3.598   2.416   7.779 -0.8069  0.7460 -1.0555
  179SOPE   C2920412   3.722   2.513   7.944 -1.0322  0.7291 -0.1181
  179SOPE   H9120413   3.823   2.556   7.946 -2.1771  3.4571  0.3115
  179SOPE  C21020414   3.683   2.455   8.055  0.3455 -0.7262  0.3135
  179SOPE  H10120415   3.732   2.479   8.150 -0.4891  0.1270  0.5303
  179SOPE  C21120416   3.561   2.373   8.065 -0.4546  0.0135  0.3463
  179SOPE  H11R20417   3.493   2.393   7.979 -0.5515 -0.0045  0.4185
  179SOPE  H11S20418   3.508   2.395   8.160 -2.4498  2.6818 -1.2936
  179SOPE  C21220419   3.595   2.223   8.071 -0.3501  0.1289  0.4176
  179SOPE  H12R20420   3.649   2.191   7.980 -0.3385  1.0170  0.1177
  179SOPE  H12S20421   3.514   2.148   8.085  2.0010 -3.1862 -2.6204
  179SOPE  C21320422   3.681   2.187   8.192 -0.0835  0.7322 -0.5048
  179SOPE  H13R20423   3.623   2.223   8.280  0.2716  0.4777 -0.1635
  179SOPE  H13S20424   3.768   2.255   8.199 -0.1824  0.7338  0.8343
  179SOPE  C21420425   3.736   2.047   8.210 -0.4251 -0.5238  0.5496
  179SOPE  H14R20426   3.784   2.032   8.310 -0.5799  1.0771  0.8786
  179SOPE  H14S20427   3.806   2.028   8.126  0.4303  1.0666  0.8847
  179SOPE  C21520428   3.627   1.946   8.208 -0.7330 -0.6482  0.2054
  179SOPE  H15R20429   3.596   1.936   8.102  1.6184  0.8397 -0.6578
  179SOPE  H15S20430   3.548   1.983   8.278 -0.7937 -0.7283  0.1804
  179SOPE  C21620431   3.679   1.813   8.255 -0.4891 -0.3985  0.4411
  179SOPE  H16R20432   3.710   1.811   8.362  1.4543  0.7460 -0.0700
  179SOPE  H16S20433   3.776   1.797   8.203  0.4065 -1.9832  2.5362
  179SOPE  C21720434   3.585   1.700   8.238  0.9673  0.2475  0.1892
  179SOPE  H17R20435   3.506   1.718   8.314  0.5308  0.9046 -0.4091
  179SOPE  H17S20436   3.632   1.603   8.266 -1.6784 -1.3040 -0.4649
  179SOPE  C21820437   3.514   1.686   8.101 -0.1976  0.6928  0.0080
  179SOPE  H18R20438   3.586   1.684   8.017  0.5315 -1.7944  0.6511
  179SOPE  H18S20439   3.442   1.768   8.083 -0.6756 -0.5377 -4.1900
  179SOPE  H18T20440   3.460   1.589   8.098  1.4796 -0.2341 -0.6079
  179SOPE   C3320441   3.650   2.906   6.926 -0.7694 -0.2294  0.5657
  179SOPE   H3X20442   3.748   2.936   6.969  0.3869 -0.8693 -1.5610
  179SOPE   H3Y20443   3.640   2.797   6.948 -1.3718  0.0729  1.8586
  179SOPE   C3420444   3.532   2.975   7.000  0.3381 -0.4742 -0.3713
  179SOPE   H4X20445   3.435   2.950   6.952  0.3286  0.4091 -0.8295
  179SOPE   H4Y20446   3.538   3.086   7.005  5.1362 -0.6475  0.4537
  179SOPE   C3520447   3.528   2.920   7.147 -0.2717 -0.8781 -0.1815
  179SOPE   H5X20448   3.561   2.814   7.144 -0.8361 -1.0560 -0.0574
  179SOPE   H5Y20449   3.419   2.913   7.165  0.0062 -0.7602  1.6193
  179SOPE   C3620450   3.607   2.995   7.251  0.2727 -0.4310 -0.0456
  179SOPE   H6X20451   3.571   3.098   7.269 -0.3281 -0.0297 -3.4092
  179SOPE   H6Y20452   3.709   3.018   7.214  0.2544  0.3183  0.3650
  179SOPE   C3720453   3.626   2.918   7.382  0.3312 -0.0045  0.2479
  179SOPE   H7X20454   3.710   2.969   7.435 -0.0619  1.8836 -0.9006
  179SOPE   H7Y20455   3.644   2.813   7.351 -2.2950  0.0247 -1.5217
  179SOPE   C3820456   3.496   2.935   7.465  0.2604 -0.4175  0.5523
  179SOPE   H8X20457   3.403   2.911   7.410  1.0670  3.1449 -2.5655
  179SOPE   H8Y20458   3.491   3.045   7.478 -0.2362 -0.2319 -1.0809
  179SOPE   C3920459   3.499   2.862   7.599  0.0140  0.7944 -0.6478
  179SOPE   H9X20460   3.593   2.805   7.611 -0.8195 -0.4482  0.0021
  179SOPE   H9Y20461   3.411   2.795   7.611 -0.8875  2.0109 -0.3130
  179SOPE  C31020462   3.491   2.963   7.715  0.1950  0.1567  0.4614
  179SOPE  H10X20463   3.400   3.022   7.693 -0.0669 -1.2656 -2.4780
  179SOPE  H10Y20464   3.569   3.042   7.706  2.4059 -1.8113  1.6709
  179SOPE  C31120465   3.488   2.905   7.863  0.4233  0.0855  0.3440
  179SOPE  H11X20466   3.582   2.847   7.874  2.2435  2.6873 -0.9185
  179SOPE  H11Y20467   3.401   2.837   7.856 -1.1413  2.0508  0.1718
  179SOPE  C31220468   3.465   3.009   7.966  0.1185  0.4925  0.0867
  179SOPE  H12X20469   3.378   3.072   7.935  0.1213 -0.2754 -1.5199
  179SOPE  H12Y20470   3.553   3.072   7.989 -0.4688  2.1478 -2.0124
  179SOPE  C31320471   3.426   2.942   8.099  0.1072  0.4498 -0.4262
  179SOPE  H13X20472   3.489   2.852   8.117 -1.0494 -0.4692 -0.8937
  179SOPE  H13Y20473   3.321   2.913   8.078  0.2713  0.0229 -0.6576
  179SOPE  C31420474   3.428   3.035   8.226  0.1020  0.0611  0.5401
  179SOPE  H14X20475   3.336   3.098   8.221  0.4032  0.4414 -0.2720
  179SOPE  H14Y20476   3.527   3.081   8.244  0.7819 -1.4874  0.8706
  179SOPE  C31520477   3.428   2.956   8.359  0.1498  0.5993 -0.1758
  179SOPE  H15X20478   3.509   2.880   8.367 -1.3161 -0.7535  2.2919
  179SOPE  H15Y20479   3.333   2.898   8.360  0.9770 -0.7659  0.7959
  179SOPE  C31620480   3.434   3.037   8.486  0.5168  0.0545  0.0829
  179SOPE  H16X20481   3.340   3.096   8.501  1.4717  1.5038  0.4707
  179SOPE  H16Y20482   3.505   3.116   8.453 -1.0301  1.5646  0.2805
  179SOPE  C31720483   3.481   2.964   8.608  0.5550  0.0703 -0.5806
  179SOPE  H17X20484   3.572   2.905   8.585  0.7938  0.3564 -0.3762
  179SOPE  H17Y20485   3.403   2.902   8.658  0.0782  0.6111 -0.6538
  179SOPE  C31820486   3.518   3.055   8.729  0.3978  0.2646  0.0371
  179SOPE  H18X20487   3.437   3.127   8.754 -0.1284  0.0942 -1.1541
  179SOPE  H18Y20488   3.609   3.108   8.692  0.3521  0.6647  0.4913
  179SOPE  H18Z20489   3.542   2.987   8.813  0.7390 -1.8875 -1.7819
  180SOPE     N20490   2.506   1.901   6.177  0.1129  0.1585  0.1234
  180SOPE   HN120491   2.589   1.919   6.118  1.2853 -1.7557  1.1097
  180SOPE   HN220492   2.466   1.808   6.151 -3.6375  1.4995  0.8033
  180SOPE   HN320493   2.427   1.966   6.157  0.2149 -0.0160 -0.8477
  180SOPE   C1220494   2.538   1.902   6.325  0.6383 -0.0649  0.1080
  180SOPE  H12A20495   2.627   1.836   6.335  0.9663  0.3921  0.1952
  180SOPE  H12B20496   2.449   1.867   6.383 -0.7690  0.2984 -1.7690
  180SOPE   C1120497   2.592   2.041   6.374  0.4448  0.0801  0.8621
  180SOPE  H11A20498   2.630   2.042   6.479 -0.2700 -0.7601  1.1292
  180SOPE  H11B20499   2.503   2.107   6.368  0.8252  0.5007 -0.2132
  180SOPE     P20500   2.842   2.077   6.316  0.1420  0.1347 -0.2265
  180SOPE   O1320501   2.910   2.202   6.266 -0.0567  0.0422 -0.6534
  180SOPE   O1420502   2.884   1.944   6.268 -0.0901  0.7156 -0.2931
  180SOPE   O1220503   2.689   2.090   6.292 -0.0209 -0.1396  0.3873
  180SOPE   O1120504   2.858   2.072   6.476  0.1048  0.1378 -0.0030
  180SOPE    C120505   2.850   2.186   6.556  0.9609 -0.0902 -0.6497
  180SOPE    HA20506   2.749   2.227   6.532  0.5484 -2.3295 -2.9535
  180SOPE    HB20507   2.931   2.259   6.534  1.0379  0.1147  0.3144
  180SOPE    C220508   2.857   2.159   6.706  0.8148  0.3067 -0.1292
  180SOPE    HS20509   2.965   2.153   6.733  0.5968 -1.2514  0.4862
  180SOPE   O2120510   2.781   2.037   6.731  1.0582 -0.0644  0.3094
  180SOPE   C2120511   2.858   1.923   6.734 -0.1172 -0.2220  0.2072
  180SOPE   O2220512   2.980   1.914   6.724  0.1112 -0.1611  0.3903
  180SOPE   C2220513   2.761   1.807   6.758 -0.6410  0.6903 -0.6442
  180SOPE   H2R20514   2.736   1.768   6.656  2.4333  2.5720 -2.1771
  180SOPE   H2S20515   2.668   1.844   6.807  2.1111  3.2412  2.8652
  180SOPE    C320516   2.800   2.285   6.784 -0.5458  0.6008  0.4463
  180SOPE    HX20517   2.693   2.308   6.764 -0.1510  0.6002 -1.8267
  180SOPE    HY20518   2.843   2.374   6.734  0.6698  0.3250  0.9816
  180SOPE   O3120519   2.832   2.279   6.927  0.0697  0.1963  0.0308
  180SOPE   C3120520   2.809   2.386   6.995 -0.2279 -0.2616 -0.1352
  180SOPE   O3220521   2.758   2.486   6.943 -0.2087  0.3378 -0.5640
  180SOPE   C3220522   2.840   2.354   7.144  0.4218  0.0682  0.2466
  180SOPE   H2X20523   2.949   2.360   7.163  0.6244  1.7600 -1.3518
  180SOPE   H2Y20524   2.816   2.248   7.163 -3.7180  0.8656 -0.0420
  180SOPE   C2320525   2.821   1.699   6.852 -0.0169 -0.0141  0.6640
  180SOPE   H3R20526   2.914   1.666   6.800 -0.2852 -0.4677  0.4655
  180SOPE   H3S20527   2.754   1.610   6.849  0.7600 -0.6781  2.1069
  180SOPE   C2420528   2.846   1.733   6.998 -0.3468 -0.6050  0.1951
  180SOPE   H4R20529   2.954   1.758   6.999 -0.2636 -0.8406 -1.4129
  180SOPE   H4S20530   2.773   1.803   7.045  0.9142  0.1542  1.0285
  180SOPE   C2520531   2.828   1.614   7.092 -0.3151  0.3747  0.6148
  180SOPE   H5R20532   2.718   1.597   7.094 -0.0571 -1.5374 -0.8014
  180SOPE   H5S20533   2.877   1.523   7.053 -1.0610 -0.3899  1.4215
  180SOPE   C2620534   2.869   1.649   7.238 -0.4916 -0.2050 -0.0548
  180SOPE   H6R20535   2.970   1.695   7.232  0.6337 -2.5010  0.8649
  180SOPE   H6S20536   2.802   1.729   7.275  0.0645  0.2456 -0.0154
  180SOPE   C2720537   2.860   1.526   7.329 -0.0418 -0.8492  0.1891
  180SOPE   H7R20538   2.766   1.468   7.318 -1.2045  1.4637 -2.4799
  180SOPE   H7S20539   2.938   1.453   7.299 -0.8764 -1.4448 -0.5582
  180SOPE   C2820540   2.871   1.550   7.484  0.3350  0.2972 -0.1891
  180SOPE   H8R20541   2.970   1.586   7.518  0.3631 -1.9714  2.3015
  180SOPE   H8S20542   2.801   1.630   7.516 -0.5531 -0.9026  0.9471
  180SOPE   C2920543   2.854   1.421   7.558 -0.5451 -0.1539  0.2129
  180SOPE   H9120544   2.946   1.360   7.554  0.0448  0.6884  0.7786
  180SOPE  C21020545   2.745   1.373   7.624 -0.1631 -0.1976  0.3893
  180SOPE  H10120546   2.748   1.277   7.677  1.5721  0.8965  2.3714
  180SOPE  C21120547   2.614   1.442   7.637  0.3951 -0.1818  0.1742
  180SOPE  H11R20548   2.540   1.362   7.615  1.0091 -1.0079  1.0971
  180SOPE  H11S20549   2.597   1.517   7.556  0.3234  0.0689  0.4203
  180SOPE  C21220550   2.591   1.519   7.776 -0.3502  0.6819 -0.0664
  180SOPE  H12R20551   2.614   1.440   7.850  2.8759  0.5604 -1.1382
  180SOPE  H12S20552   2.483   1.541   7.793 -0.4054 -1.0927  2.1400
  180SOPE  C21320553   2.678   1.638   7.798  0.2256  0.3632 -0.3609
  180SOPE  H13R20554   2.631   1.732   7.763  0.4045  0.5124 -0.2020
  180SOPE  H13S20555   2.778   1.616   7.756  0.3469  0.5560 -0.1752
  180SOPE  C21420556   2.735   1.652   7.950  0.2091 -0.1682  0.3441
  180SOPE  H14R20557   2.808   1.736   7.943 -1.9690  1.5758 -2.3290
  180SOPE  H14S20558   2.780   1.556   7.981  2.6144  0.7312 -0.2038
  180SOPE  C21520559   2.626   1.679   8.056 -0.0942 -0.0629  0.3586
  180SOPE  H15R20560   2.547   1.605   8.080  1.2734 -0.6399  3.4229
  180SOPE  H15S20561   2.572   1.767   8.017 -0.7021 -0.1946  0.8971
  180SOPE  C21620562   2.697   1.705   8.182  0.1039 -0.3480  0.5591
  180SOPE  H16R20563   2.758   1.796   8.166 -0.4595 -0.3410 -1.7579
  180SOPE  H16S20564   2.774   1.628   8.201 -1.3600 -1.5474  1.8405
  180SOPE  C21720565   2.605   1.731   8.299 -0.4126  0.8573  0.3096
  180SOPE  H17R20566   2.525   1.806   8.281 -0.7918  0.7600  1.5177
  180SOPE  H17S20567   2.659   1.780   8.383 -0.2538 -0.0760  0.7620
  180SOPE  C21820568   2.533   1.602   8.343 -0.1688  0.2328  0.4262
  180SOPE  H18R20569   2.608   1.530   8.381 -2.0234 -0.1287  3.5369
  180SOPE  H18S20570   2.471   1.561   8.261  0.1107 -2.2359  1.4058
  180SOPE  H18T20571   2.472   1.628   8.433 -0.9257  1.6727 -0.4722
  180SOPE   C3320572   2.757   2.448   7.234  0.1493  0.1527  0.8132
  180SOPE   H3X20573   2.654   2.463   7.196  1.2044 -0.4263 -2.4229
  180SOPE   H3Y20574   2.814   2.544   7.239  2.6515 -1.2659  0.6038
  180SOPE   C3420575   2.768   2.392   7.380 -0.1887  0.0747 -0.6077
  180SOPE   H4X20576   2.875   2.378   7.408 -0.3481 -1.0938 -0.5528
  180SOPE   H4Y20577   2.720   2.292   7.382 -1.5168  0.7216  1.7775
  180SOPE   C3520578   2.717   2.480   7.493  0.0524  0.2839  0.2618
  180SOPE   H5X20579   2.607   2.480   7.479  0.1025  0.3365 -0.1251
  180SOPE   H5Y20580   2.755   2.585   7.494  0.3720  0.1628  1.2347
  180SOPE   C3620581   2.749   2.419   7.632 -0.1660  0.0879  0.0488
  180SOPE   H6X20582   2.859   2.410   7.639 -0.2774 -0.8204  0.6991
  180SOPE   H6Y20583   2.707   2.316   7.630  0.6543 -0.2336 -1.6221
  180SOPE   C3720584   2.700   2.512   7.736  0.3467 -0.9111  0.3034
  180SOPE   H7X20585   2.594   2.538   7.720  0.0332 -2.2182  0.2618
  180SOPE   H7Y20586   2.755   2.609   7.733  2.1917 -1.9361 -0.0479
  180SOPE   C3820587   2.725   2.473   7.885 -0.1548  0.5345 -0.1852
  180SOPE   H8X20588   2.708   2.557   7.956 -4.2311 -1.1033  0.9391
  180SOPE   H8Y20589   2.830   2.439   7.894 -0.0601  1.0319  0.7252
  180SOPE   C3920590   2.633   2.361   7.929  0.1841  0.1179 -0.4735
  180SOPE   H9X20591   2.641   2.282   7.852  1.2528  1.0983 -1.3795
  180SOPE   H9Y20592   2.527   2.393   7.939  0.6809  1.1981  1.8732
  180SOPE  C31020593   2.681   2.298   8.063 -0.0343  0.1796  0.8042
  180SOPE  H10X20594   2.693   2.387   8.128  0.8529  0.8736 -0.2807
  180SOPE  H10Y20595   2.777   2.249   8.034 -0.8455 -0.8509 -0.1767
  180SOPE  C31120596   2.586   2.200   8.127  0.1872  0.5476  0.3440
  180SOPE  H11X20597   2.587   2.117   8.053 -1.7060  1.8926 -1.2514
  180SOPE  H11Y20598   2.485   2.247   8.133 -0.2237 -0.3117  0.2237
  180SOPE  C31220599   2.602   2.161   8.275  0.2549 -0.0446  0.0348
  180SOPE  H12X20600   2.645   2.254   8.317  0.0168  1.5229 -3.0261
  180SOPE  H12Y20601   2.676   2.078   8.272 -1.7369 -1.8401 -1.5905
  180SOPE  C31320602   2.473   2.106   8.333 -0.1873 -0.5611  0.3344
  180SOPE  H13X20603   2.429   2.026   8.271 -3.4705  1.3642  0.0677
  180SOPE  H13Y20604   2.400   2.190   8.327 -0.1877 -0.5582  0.3823
  180SOPE  C31420605   2.484   2.068   8.483 -0.1616  0.0949  0.0033
  180SOPE  H14X20606   2.521   2.154   8.543 -0.5253 -1.0213  1.8697
  180SOPE  H14Y20607   2.552   1.979   8.490  0.5649  0.6628  0.2426
  180SOPE  C31520608   2.350   2.025   8.550  0.3136  0.8463 -0.3880
  180SOPE  H15X20609   2.273   2.095   8.511 -1.8720 -0.6990  1.0401
  180SOPE  H15Y20610   2.360   2.033   8.660 -2.1718 -0.4479 -0.0303
  180SOPE  C31620611   2.309   1.878   8.523  0.0237  0.6441  0.2588
  180SOPE  H16X20612   2.396   1.813   8.545 -0.5544 -0.9346 -1.9309
  180SOPE  H16Y20613   2.291   1.855   8.415 -0.4994 -0.4991  0.5796
  180SOPE  C31720614   2.187   1.830   8.601  0.3322 -0.1024 -0.5461
  180SOPE  H17X20615   2.217   1.796   8.702  2.2645  0.4388 -0.9110
  180SOPE  H17Y20616   2.146   1.740   8.550  1.2966 -0.3177 -0.9475
  180SOPE  C31820617   2.069   1.920   8.603  0.3969  0.2726  0.3059
  180SOPE  H18X20618   2.103   2.025   8.615 -0.0725  0.5170 -0.5331
  180SOPE  H18Y20619   2.003   1.904   8.691 -0.0543 -2.8757 -0.5329
  180SOPE  H18Z20620   2.013   1.920   8.507  0.8032 -1.4367  0.0590
  181SOPE     N20621   2.799   6.532   6.233 -0.4958 -0.0486  0.2794
  181SOPE   HN120622   2.826   6.443   6.280 -0.2590  0.4227  1.0432
  181SOPE   HN220623   2.711   6.519   6.179  0.3632 -0.0861 -1.1504
  181SOPE   HN320624   2.871   6.561   6.163 -1.2218  1.2374  0.0577
  181SOPE   C1220625   2.770   6.657   6.320 -0.2395 -0.1249  0.2402
  181SOPE  H12A20626   2.790   6.742   6.252  0.3289 -1.0613 -0.7552
  181SOPE  H12B20627   2.848   6.665   6.399 -0.4015  0.1505  0.3709
  181SOPE   C1120628   2.631   6.643   6.390 -0.3530  0.7107  0.1177
  181SOPE  H11A20629   2.644   6.720   6.469 -0.6744 -0.1708  1.0300
  181SOPE  H11B20630   2.616   6.547   6.443  0.2620  0.2240 -0.5920
  181SOPE     P20631   2.451   6.581   6.212  0.0056 -0.0440  0.3112
  181SOPE   O1320632   2.552   6.530   6.120  0.4804 -0.0059  0.0354
  181SOPE   O1420633   2.324   6.640   6.155 -0.0016 -0.7805 -0.2982
  181SOPE   O1220634   2.523   6.683   6.304  0.1163 -0.4412 -0.4111
  181SOPE   O1120635   2.429   6.453   6.313  0.4815  0.5305 -0.6548
  181SOPE    C120636   2.302   6.393   6.333 -0.1968  0.3436 -0.2624
  181SOPE    HA20637   2.303   6.290   6.291 -2.6993  0.0044  0.4073
  181SOPE    HB20638   2.217   6.440   6.279 -0.7724  1.3737  1.4761
  181SOPE    C220639   2.252   6.385   6.481 -0.1840 -0.0370  0.7124
  181SOPE    HS20640   2.176   6.304   6.480 -0.4270  0.1983  0.0453
  181SOPE   O2120641   2.202   6.511   6.525 -0.0492  0.3371  0.0075
  181SOPE   C2120642   2.069   6.535   6.506 -1.1162 -0.1527  0.6113
  181SOPE   O2220643   1.992   6.466   6.447 -0.1534  0.1817  0.2618
  181SOPE   C2220644   2.036   6.674   6.561  0.0651  0.2334  0.1036
  181SOPE   H2R20645   1.968   6.724   6.489  0.6590  2.5316  1.0749
  181SOPE   H2S20646   2.134   6.727   6.558  0.9396 -1.2748  1.7005
  181SOPE    C320647   2.360   6.340   6.573 -0.9437  0.3516  0.4758
  181SOPE    HX20648   2.453   6.397   6.556 -0.1824 -0.4435  1.9046
  181SOPE    HY20649   2.370   6.232   6.553  3.1104  0.6493  0.5997
  181SOPE   O3120650   2.312   6.366   6.709 -0.5689 -0.0455 -0.4205
  181SOPE   C3120651   2.386   6.297   6.799  0.0706 -0.3966 -0.1150
  181SOPE   O3220652   2.483   6.229   6.768 -0.1014 -0.3533 -0.0149
  181SOPE   C3220653   2.339   6.322   6.943  0.0026  0.2942 -0.9624
  181SOPE   H2X20654   2.235   6.287   6.961 -0.1504  1.4886  0.5106
  181SOPE   H2Y20655   2.355   6.429   6.965  0.4753  0.1256 -0.4761
  181SOPE   C2320656   1.974   6.669   6.702  0.0574 -0.0678  0.5102
  181SOPE   H3R20657   1.907   6.580   6.698  0.1620 -0.1623  0.7966
  181SOPE   H3S20658   1.909   6.759   6.708  2.3698  1.8397 -1.9395
  181SOPE   C2420659   2.067   6.659   6.828 -0.4227  0.7468  0.1650
  181SOPE   H4R20660   2.150   6.586   6.817  0.5692  1.9241 -0.2745
  181SOPE   H4S20661   2.107   6.761   6.847  1.2845 -0.1296  1.4366
  181SOPE   C2520662   1.978   6.632   6.948  0.7905 -0.6120 -0.6364
  181SOPE   H5R20663   1.898   6.709   6.958 -2.6398 -4.4755  3.6044
  181SOPE   H5S20664   1.923   6.537   6.933  0.4028 -0.6353  0.8678
  181SOPE   C2620665   2.072   6.616   7.065 -0.2835 -0.2784 -0.1680
  181SOPE   H6R20666   2.141   6.529   7.056  0.2534  0.3316 -2.2929
  181SOPE   H6S20667   2.133   6.708   7.083 -0.3208 -0.2117 -0.3846
  181SOPE   C2720668   1.999   6.600   7.197 -0.1800  0.1853  0.3525
  181SOPE   H7R20669   1.910   6.667   7.201 -0.8179 -0.4814 -1.7840
  181SOPE   H7S20670   1.966   6.495   7.209  1.2935 -0.4098 -0.5658
  181SOPE   C2820671   2.096   6.629   7.310 -0.4054 -0.1871 -0.0476
  181SOPE   H8R20672   2.179   6.558   7.290  0.2390  0.7162 -0.5619
  181SOPE   H8S20673   2.140   6.731   7.307  0.9168 -0.7300  0.5888
  181SOPE   C2920674   2.030   6.612   7.447 -0.2297 -0.2007  0.3220
  181SOPE   H9120675   1.959   6.529   7.459  1.5010 -1.6748  0.5654
  181SOPE  C21020676   2.050   6.687   7.555 -0.8677 -0.0104  0.3649
  181SOPE  H10120677   1.993   6.666   7.647 -0.7657 -1.3364  0.1423
  181SOPE  C21120678   2.145   6.812   7.560  0.3024  0.3201 -0.0316
  181SOPE  H11R20679   2.205   6.835   7.469 -0.1572  2.6310  0.2105
  181SOPE  H11S20680   2.231   6.791   7.627  1.8961 -0.2128 -2.1566
  181SOPE  C21220681   2.061   6.925   7.606 -1.1811  0.0962  0.3592
  181SOPE  H12R20682   1.976   6.941   7.536 -1.2212  2.7105  0.9648
  181SOPE  H12S20683   2.115   7.021   7.591 -1.1673 -0.0094 -0.2797
  181SOPE  C21320684   2.003   6.916   7.747  0.2497 -0.5951 -0.0677
  181SOPE  H13R20685   2.067   6.851   7.812  1.1291 -0.8946 -1.2295
  181SOPE  H13S20686   1.905   6.864   7.755  0.3930 -0.9905 -0.8252
  181SOPE  C21420687   2.006   7.060   7.810  0.0663  0.1046  0.7189
  181SOPE  H14R20688   1.918   7.063   7.878 -1.0742 -2.7898 -0.5492
  181SOPE  H14S20689   1.993   7.137   7.731 -1.3401 -0.2524  0.5809
  181SOPE  C21520690   2.135   7.099   7.886 -0.0341  0.4962 -0.2154
  181SOPE  H15R20691   2.216   7.089   7.812 -0.0633  0.8956 -0.3020
  181SOPE  H15S20692   2.143   7.035   7.977 -0.8238  0.5556 -0.0949
  181SOPE  C21620693   2.135   7.242   7.929  0.8305  0.3440  0.4262
  181SOPE  H16R20694   2.053   7.243   8.004 -0.6206  1.0710 -1.1307
  181SOPE  H16S20695   2.096   7.309   7.849 -0.6503 -2.9881 -1.7694
  181SOPE  C21720696   2.270   7.287   7.981 -0.1863  0.3719 -0.2947
  181SOPE  H17R20697   2.358   7.291   7.914 -0.9570  1.6597 -1.2370
  181SOPE  H17S20698   2.303   7.207   8.051 -0.1269 -1.7057 -2.6299
  181SOPE  C21820699   2.268   7.417   8.065 -0.2823 -0.1181 -0.2636
  181SOPE  H18R20700   2.175   7.422   8.126  1.7683  2.4094  2.8408
  181SOPE  H18S20701   2.255   7.512   8.009 -1.5484  0.5626  1.1276
  181SOPE  H18T20702   2.357   7.426   8.131 -1.8611 -0.1454  1.9539
  181SOPE   C3320703   2.432   6.251   7.054  0.6717 -0.2680 -0.1506
  181SOPE   H3X20704   2.531   6.301   7.067 -0.5001  1.6538  1.9371
  181SOPE   H3Y20705   2.445   6.142   7.040 -0.7502 -0.8369  2.5643
  181SOPE   C3420706   2.374   6.269   7.194 -0.3361  0.4178  0.4843
  181SOPE   H4X20707   2.277   6.216   7.206 -0.3914 -0.2835 -2.5970
  181SOPE   H4Y20708   2.332   6.371   7.206 -1.0523  0.1418  0.3507
  181SOPE   C3520709   2.469   6.232   7.309  0.5280  0.1542  0.0983
  181SOPE   H5X20710   2.558   6.299   7.308  0.2846  0.4794  0.1760
  181SOPE   H5Y20711   2.504   6.127   7.294  1.8251  0.5570  0.2791
  181SOPE   C3620712   2.400   6.213   7.448 -0.6042 -0.1377 -0.8228
  181SOPE   H6X20713   2.463   6.146   7.511 -2.3628 -0.5280  0.5530
  181SOPE   H6Y20714   2.306   6.156   7.432 -2.0578  1.5252  1.6321
  181SOPE   C3720715   2.374   6.341   7.530  0.1597  0.0399 -0.6943
  181SOPE   H7X20716   2.316   6.419   7.477 -0.0285 -0.3270 -1.0243
  181SOPE   H7Y20717   2.471   6.390   7.553 -2.1730  4.4572  0.2115
  181SOPE   C3820718   2.296   6.315   7.658 -0.5505 -0.4408  0.0611
  181SOPE   H8X20719   2.339   6.238   7.726 -0.0172 -1.2465 -1.1600
  181SOPE   H8Y20720   2.192   6.280   7.639  0.4291 -1.1167 -4.7412
  181SOPE   C3920721   2.268   6.445   7.735  0.1244  0.7775  0.2114
  181SOPE   H9X20722   2.227   6.518   7.662  1.3814 -0.5565 -1.8774
  181SOPE   H9Y20723   2.351   6.497   7.788 -0.0183  0.1831  1.0161
  181SOPE  C31020724   2.152   6.426   7.843  0.3014 -0.1021  0.5246
  181SOPE  H10X20725   2.185   6.342   7.908  0.7634 -0.7854 -0.5867
  181SOPE  H10Y20726   2.058   6.396   7.792  1.0813  0.4471 -1.2965
  181SOPE  C31120727   2.133   6.552   7.926  0.1762  1.1454 -0.7445
  181SOPE  H11X20728   2.140   6.634   7.851 -1.5837  0.6545 -1.4653
  181SOPE  H11Y20729   2.211   6.573   8.003  0.0884  0.9068 -0.5914
  181SOPE  C31220730   1.996   6.564   8.001 -0.3469 -0.2630  0.2219
  181SOPE  H12X20731   1.990   6.473   8.064  1.2306 -0.5848 -0.0745
  181SOPE  H12Y20732   1.908   6.567   7.934 -0.1764 -0.3869 -0.0060
  181SOPE  C31320733   2.004   6.687   8.099 -0.4836  0.2771 -0.1735
  181SOPE  H13X20734   2.031   6.781   8.046 -0.2273  0.4213  0.2164
  181SOPE  H13Y20735   2.081   6.676   8.178 -0.5276 -1.6398 -0.3814
  181SOPE  C31420736   1.868   6.710   8.158  0.5607  0.0948  0.4450
  181SOPE  H14X20737   1.810   6.618   8.183  1.1206 -0.1568  0.8271
  181SOPE  H14Y20738   1.804   6.761   8.083  0.1725 -1.8590 -0.6025
  181SOPE  C31520739   1.871   6.782   8.297  0.2451  0.1619 -0.1587
  181SOPE  H15X20740   1.915   6.884   8.285 -2.5826  1.5307  0.5978
  181SOPE  H15Y20741   1.936   6.733   8.373 -0.3431  0.8185  0.7800
  181SOPE  C31620742   1.735   6.798   8.361 -0.2984  0.3667 -0.2255
  181SOPE  H16X20743   1.691   6.696   8.370 -0.7101  0.5953  0.3836
  181SOPE  H16Y20744   1.679   6.844   8.278 -0.5904 -0.6605 -0.6051
  181SOPE  C31720745   1.733   6.886   8.481 -0.2907  0.2025 -0.2192
  181SOPE  H17X20746   1.628   6.921   8.493 -0.0958  0.7781 -0.1518
  181SOPE  H17Y20747   1.783   6.984   8.462 -1.5629  0.9894  0.3925
  181SOPE  C31820748   1.779   6.825   8.611  0.0860  0.8892  0.3483
  181SOPE  H18X20749   1.717   6.736   8.636  2.6557 -0.9015  0.5240
  181SOPE  H18Y20750   1.760   6.897   8.694 -1.8799  2.9629 -1.8410
  181SOPE  H18Z20751   1.887   6.801   8.610  0.2975  1.7249  1.9907
  182SOPE     N20752   3.243   1.851   6.653  0.5701  0.2664  0.0745
  182SOPE   HN120753   3.250   1.930   6.721 -0.9369 -0.1830  0.7776
  182SOPE   HN220754   3.145   1.820   6.639  0.4936  0.6534 -0.2636
  182SOPE   HN320755   3.303   1.770   6.678 -0.1596 -0.5134 -0.6504
  182SOPE   C1220756   3.291   1.922   6.536  0.0177  0.4237  0.5741
  182SOPE  H12A20757   3.395   1.889   6.516 -0.0249  0.2235  0.6821
  182SOPE  H12B20758   3.292   2.033   6.549 -1.4921  0.5567 -0.3788
  182SOPE   C1120759   3.210   1.892   6.412 -0.3329  0.1821  0.3557
  182SOPE  H11A20760   3.243   1.948   6.321 -1.2383 -0.5259 -0.4164
  182SOPE  H11B20761   3.108   1.932   6.429 -0.4796 -0.5340  1.2177
  182SOPE     P20762   3.306   1.681   6.276  0.0267  0.1775  0.1144
  182SOPE   O1320763   3.445   1.695   6.326  0.2293  0.1234 -0.2506
  182SOPE   O1420764   3.282   1.744   6.141  0.3786 -0.3567 -0.1497
  182SOPE   O1220765   3.211   1.750   6.386 -0.3754 -0.5051 -0.2730
  182SOPE   O1120766   3.270   1.530   6.283  0.6768  0.2996  0.0542
  182SOPE    C120767   3.298   1.444   6.395  0.4603  0.0565  0.1104
  182SOPE    HA20768   3.370   1.495   6.463 -1.3579  2.1106  0.5287
  182SOPE    HB20769   3.341   1.347   6.361 -1.9601 -0.2229 -2.2483
  182SOPE    C220770   3.168   1.415   6.469 -0.5995  0.4979 -0.3304
  182SOPE    HS20771   3.116   1.513   6.476 -0.0574  0.7180  0.7568
  182SOPE   O2120772   3.203   1.367   6.600  0.2579 -0.2934 -0.8018
  182SOPE   C2120773   3.214   1.448   6.697  1.0009 -0.1898  0.0914
  182SOPE   O2220774   3.201   1.566   6.688 -0.4456 -0.4404 -0.9546
  182SOPE   C2220775   3.246   1.375   6.822 -0.0636  0.4984  0.3340
  182SOPE   H2R20776   3.354   1.350   6.819 -0.2130 -0.0253 -0.8158
  182SOPE   H2S20777   3.206   1.271   6.818 -1.2619  0.9005  1.5390
  182SOPE    C320778   3.080   1.301   6.409  0.1959 -0.2211  0.5900
  182SOPE    HX20779   3.133   1.204   6.413 -2.5879 -1.7985  0.1651
  182SOPE    HY20780   3.064   1.317   6.300 -0.7241 -2.0299  0.4483
  182SOPE   O3120781   2.950   1.306   6.483 -0.5445  0.2396 -0.0863
  182SOPE   C3120782   2.905   1.189   6.528 -0.0488 -0.9825  0.1556
  182SOPE   O3220783   2.953   1.078   6.516  0.5680  0.0492  0.3103
  182SOPE   C3220784   2.776   1.215   6.602 -0.0607  0.4804  0.2204
  182SOPE   H2X20785   2.724   1.117   6.602 -1.5644  1.2501 -1.0661
  182SOPE   H2Y20786   2.713   1.291   6.550 -0.7225  1.0951  1.8930
  182SOPE   C2320787   3.206   1.461   6.944 -0.6203  0.1327  0.7899
  182SOPE   H3R20788   3.097   1.462   6.962 -0.7508  1.8994 -0.0078
  182SOPE   H3S20789   3.245   1.565   6.935  1.1139 -0.5854 -0.2395
  182SOPE   C2420790   3.270   1.409   7.073 -0.5676 -0.5491  0.4507
  182SOPE   H4R20791   3.210   1.320   7.104  2.4133 -2.6923  0.2094
  182SOPE   H4S20792   3.372   1.381   7.039 -1.3720  0.0081 -2.5730
  182SOPE   C2520793   3.257   1.520   7.174 -0.0795  0.4767  0.3407
  182SOPE   H5R20794   3.302   1.613   7.132 -0.8544  0.1236 -1.2759
  182SOPE   H5S20795   3.149   1.542   7.190  0.4711  1.8157  2.5408
  182SOPE   C2620796   3.326   1.483   7.308  0.1305 -0.2430 -1.0463
  182SOPE   H6R20797   3.293   1.382   7.337  0.6655  0.2574  1.4233
  182SOPE   H6S20798   3.435   1.483   7.285  0.3869 -1.5263  0.1128
  182SOPE   C2720799   3.305   1.597   7.406  0.0801  0.3335  0.1089
  182SOPE   H7R20800   3.359   1.687   7.370 -3.1082  1.9080 -0.9065
  182SOPE   H7S20801   3.196   1.617   7.394  0.0365 -0.5602 -1.2233
  182SOPE   C2820802   3.330   1.565   7.556  0.3852 -0.3751  0.0952
  182SOPE   H8R20803   3.438   1.542   7.565  0.3306 -0.3139  1.0388
  182SOPE   H8S20804   3.311   1.655   7.619 -0.9297 -2.7264  3.1954
  182SOPE   C2920805   3.255   1.454   7.623  0.7624 -0.3344  0.4331
  182SOPE   H9120806   3.208   1.384   7.552 -0.2066  0.7536 -0.0205
  182SOPE  C21020807   3.238   1.441   7.751  0.6475 -0.0610 -0.3196
  182SOPE  H10120808   3.180   1.357   7.792  0.6969 -0.8964 -1.9281
  182SOPE  C21120809   3.292   1.539   7.857 -0.1235  0.1036  0.1522
  182SOPE  H11R20810   3.354   1.622   7.818  0.8994 -0.6728  0.0890
  182SOPE  H11S20811   3.341   1.490   7.944 -0.4536 -3.1397 -1.4240
  182SOPE  C21220812   3.170   1.613   7.918  0.2459 -0.7033 -0.0766
  182SOPE  H12R20813   3.113   1.669   7.841 -0.0234  1.1555  1.4542
  182SOPE  H12S20814   3.195   1.692   7.992 -1.6846 -0.4036  0.2814
  182SOPE  C21320815   3.071   1.532   8.004  0.0897 -0.6528  0.3374
  182SOPE  H13R20816   3.012   1.471   7.933 -0.4108  0.1269  0.0785
  182SOPE  H13S20817   3.004   1.597   8.065 -0.8475  0.5292 -1.9091
  182SOPE  C21420818   3.146   1.430   8.099 -0.0972 -0.5295  0.7226
  182SOPE  H14R20819   3.233   1.491   8.131 -0.2032  0.5589 -1.0189
  182SOPE  H14S20820   3.189   1.338   8.053  0.7180 -0.3814  1.1735
  182SOPE  C21520821   3.067   1.403   8.224  0.2188 -0.0265  0.7650
  182SOPE  H15R20822   2.973   1.346   8.208  0.3668  0.3714 -1.7766
  182SOPE  H15S20823   3.040   1.505   8.258 -1.7321  0.2564 -1.4653
  182SOPE  C21620824   3.146   1.327   8.327  0.0841  0.7696 -0.4766
  182SOPE  H16R20825   3.078   1.337   8.415 -0.3025 -0.3486 -0.6430
  182SOPE  H16S20826   3.240   1.386   8.334 -0.1032  0.7990  2.4806
  182SOPE  C21720827   3.161   1.179   8.296 -0.1582 -0.5237  0.2829
  182SOPE  H17R20828   3.199   1.168   8.192  0.2294 -0.2922  0.3962
  182SOPE  H17S20829   3.064   1.125   8.298 -0.1329 -0.5469  0.9633
  182SOPE  C21820830   3.266   1.128   8.392 -0.0133 -0.5825  0.0989
  182SOPE  H18R20831   3.278   1.022   8.358  0.6940 -0.6850  0.6736
  182SOPE  H18S20832   3.238   1.132   8.499 -1.0780 -0.2499 -0.1885
  182SOPE  H18T20833   3.363   1.176   8.367 -0.8807  1.2396  0.1345
  182SOPE   C3320834   2.803   1.271   6.741  0.5990 -0.0800 -0.0945
  182SOPE   H3X20835   2.711   1.326   6.771 -0.1258 -1.1540 -0.2981
  182SOPE   H3Y20836   2.881   1.349   6.749  0.0755  0.4373  0.0330
  182SOPE   C3420837   2.827   1.166   6.846  0.4882  0.2522  0.3805
  182SOPE   H4X20838   2.928   1.123   6.861  0.7880  1.5927  2.4829
  182SOPE   H4Y20839   2.770   1.075   6.815 -1.6801  1.9640 -0.8254
  182SOPE   C3520840   2.793   1.213   6.989  0.5618  0.4075 -0.3535
  182SOPE   H5X20841   2.685   1.235   7.001  0.5734  0.3574 -0.1670
  182SOPE   H5Y20842   2.859   1.300   7.007  0.3314  0.9358 -1.9573
  182SOPE   C3620843   2.828   1.106   7.088 -0.3019 -0.1580 -0.4100
  182SOPE   H6X20844   2.936   1.083   7.081 -0.3507 -0.9117  1.0130
  182SOPE   H6Y20845   2.763   1.021   7.059 -1.1689 -0.1503  1.4398
  182SOPE   C3720846   2.804   1.149   7.228  0.0475 -0.2613 -0.1469
  182SOPE   H7X20847   2.693   1.146   7.239  0.1014 -1.3106  0.1730
  182SOPE   H7Y20848   2.838   1.252   7.249 -0.0223 -0.0249 -1.1508
  182SOPE   C3820849   2.856   1.056   7.339  0.3489 -0.8143  0.9245
  182SOPE   H8X20850   2.811   1.095   7.432 -0.0432  0.4230  0.2275
  182SOPE   H8Y20851   2.967   1.055   7.349  0.6722  1.6789 -1.6268
  182SOPE   C3920852   2.797   0.913   7.327  0.1815  0.5917 -0.2175
  182SOPE   H9X20853   2.845   0.869   7.237 -2.2731  0.0624 -1.3003
  182SOPE   H9Y20854   2.692   0.922   7.292  0.2302 -2.6000 -1.3512
  182SOPE  C31020855   2.827   0.832   7.449  0.6476  0.3424  0.6174
  182SOPE  H10X20856   2.936   0.839   7.471  0.7013  3.4956 -0.3368
  182SOPE  H10Y20857   2.810   0.725   7.427  0.8390 -0.2915  3.4312
  182SOPE  C31120858   2.754   0.865   7.582  0.4503 -0.1464  0.6233
  182SOPE  H11X20859   2.644   0.850   7.574  0.5689 -0.1895 -1.0641
  182SOPE  H11Y20860   2.782   0.970   7.606  0.5485 -0.1849  0.6769
  182SOPE  C31220861   2.803   0.775   7.698  0.4424  0.2278 -0.1755
  182SOPE  H12X20862   2.911   0.780   7.724  0.1019  0.5991  1.2341
  182SOPE  H12Y20863   2.788   0.670   7.664 -2.5555  1.3605 -2.5275
  182SOPE  C31320864   2.712   0.794   7.819  0.5847  0.9364 -0.7527
  182SOPE  H13X20865   2.607   0.774   7.790 -0.0861  1.7198  1.0514
  182SOPE  H13Y20866   2.718   0.896   7.864  1.2475 -0.0324  1.4565
  182SOPE  C31420867   2.759   0.685   7.919  0.5255 -0.8045 -0.7370
  182SOPE  H14X20868   2.868   0.704   7.924  0.5170 -0.6403 -1.1090
  182SOPE  H14Y20869   2.751   0.583   7.877  1.2464 -2.2778  2.5461
  182SOPE  C31520870   2.695   0.707   8.053  0.4623 -0.1142 -0.3032
  182SOPE  H15X20871   2.585   0.696   8.042  0.6571  0.1480 -2.8647
  182SOPE  H15Y20872   2.712   0.803   8.107 -1.2453  0.3202 -0.5062
  182SOPE  C31620873   2.745   0.613   8.165  0.4671  0.1533 -1.1461
  182SOPE  H16X20874   2.741   0.515   8.112 -0.7731  0.1117 -0.9894
  182SOPE  H16Y20875   2.658   0.627   8.232  1.0661  0.8138 -0.4927
  182SOPE  C31720876   2.863   0.636   8.259 -0.1454 -0.1761  0.0459
  182SOPE  H17X20877   2.958   0.634   8.202  0.0561 -0.2950  0.3836
  182SOPE  H17Y20878   2.875   0.556   8.336  0.4738 -0.3164 -0.1929
  182SOPE  C31820879   2.861   0.773   8.337  0.3518  0.2289 -0.5181
  182SOPE  H18X20880   2.813   0.752   8.435 -0.5480  0.3523 -0.9291
  182SOPE  H18Y20881   2.809   0.851   8.277 -1.8654 -0.0862  0.9014
  182SOPE  H18Z20882   2.966   0.798   8.361  0.3929 -1.4762  1.2356
  183SOPE     N20883   5.670   6.449   6.206  0.2171 -0.2019 -0.3924
  183SOPE   HN120884   5.667   6.474   6.306  0.9242 -1.2996 -0.0891
  183SOPE   HN220885   5.770   6.429   6.184  1.4019  2.1126  2.7092
  183SOPE   HN320886   5.624   6.513   6.138  1.1575  1.3806  0.4344
  183SOPE   C1220887   5.602   6.325   6.205  0.9989 -0.0598 -0.7934
  183SOPE  H12A20888   5.666   6.249   6.253 -1.0721 -2.4442 -1.6706
  183SOPE  H12B20889   5.600   6.278   6.104  1.7997 -1.5121 -0.1340
  183SOPE   C1120890   5.461   6.315   6.274  0.2264  0.0204  0.4453
  183SOPE  H11A20891   5.478   6.345   6.380 -2.8349 -2.2297  1.6442
  183SOPE  H11B20892   5.414   6.215   6.278  0.6902 -0.1962  0.3891
  183SOPE     P20893   5.269   6.498   6.270  0.3590 -0.1924  0.0506
  183SOPE   O1320894   5.139   6.435   6.289  0.3890 -0.1158 -0.0449
  183SOPE   O1420895   5.272   6.626   6.191 -0.0955  0.0358 -0.3206
  183SOPE   O1220896   5.372   6.393   6.204 -0.0927 -0.0444 -0.3080
  183SOPE   O1120897   5.334   6.524   6.414 -0.7296 -0.4181 -0.5053
  183SOPE    C120898   5.261   6.557   6.528 -0.1235  0.6392  0.0839
  183SOPE    HA20899   5.154   6.577   6.503  0.4742  0.7955 -2.4811
  183SOPE    HB20900   5.292   6.655   6.571 -1.6922  2.7959 -3.4423
  183SOPE    C220901   5.260   6.445   6.631  1.1128  0.2989  0.0746
  183SOPE    HS20902   5.203   6.474   6.723 -2.3956 -0.4782 -1.7495
  183SOPE   O2120903   5.399   6.411   6.654  0.2310  0.2727 -0.4636
  183SOPE   C2120904   5.451   6.488   6.754 -0.0549 -0.0431  0.2781
  183SOPE   O2220905   5.397   6.588   6.802 -0.6036 -0.3311 -0.0496
  183SOPE   C2220906   5.582   6.431   6.789 -0.1038 -0.6002  0.0486
  183SOPE   H2R20907   5.660   6.454   6.713  1.3281 -0.4780  1.5522
  183SOPE   H2S20908   5.581   6.319   6.789  0.3317 -0.6187  2.9987
  183SOPE    C320909   5.177   6.321   6.578 -0.3618  0.5492 -0.7670
  183SOPE    HX20910   5.233   6.255   6.509 -0.7860 -1.0874  0.4226
  183SOPE    HY20911   5.099   6.349   6.503  1.1091 -1.7883 -3.2368
  183SOPE   O3120912   5.135   6.238   6.695 -0.6135 -0.4932  0.0062
  183SOPE   C3120913   5.011   6.277   6.743  0.0645 -0.5503  0.5527
  183SOPE   O3220914   4.941   6.360   6.693 -0.1031  0.0439 -0.5106
  183SOPE   C3220915   4.980   6.205   6.866  0.5567 -0.7847 -0.0125
  183SOPE   H2X20916   5.070   6.197   6.931 -0.8850  0.1622  2.1711
  183SOPE   H2Y20917   4.960   6.099   6.840 -0.2451 -0.1920 -1.8218
  183SOPE   C2320918   5.637   6.475   6.928  0.0833  0.0738  0.0338
  183SOPE   H3R20919   5.648   6.585   6.935 -0.1246  0.2097 -1.5389
  183SOPE   H3S20920   5.741   6.437   6.933  0.3168  0.6203 -0.6346
  183SOPE   C2420921   5.555   6.418   7.043  0.3864  0.1827 -0.3814
  183SOPE   H4R20922   5.469   6.489   7.048 -0.5119 -0.7992 -1.4717
  183SOPE   H4S20923   5.514   6.317   7.022  1.1133 -0.0978 -0.4346
  183SOPE   C2520924   5.628   6.429   7.177  0.4447 -0.2239  0.2436
  183SOPE   H5R20925   5.710   6.357   7.199 -0.0186 -1.3862 -1.6925
  183SOPE   H5S20926   5.678   6.528   7.185  0.3891 -0.3311  1.9778
  183SOPE   C2620927   5.523   6.422   7.288  0.4140  0.6355 -0.5897
  183SOPE   H6R20928   5.460   6.511   7.268  0.2060  0.3269 -1.3432
  183SOPE   H6S20929   5.470   6.326   7.266  0.3669  0.5450 -0.0769
  183SOPE   C2720930   5.592   6.417   7.425  0.2906 -0.7137  0.2964
  183SOPE   H7R20931   5.672   6.340   7.421  0.9139 -0.0860  0.7441
  183SOPE   H7S20932   5.648   6.512   7.440  1.8228 -1.5400 -0.0935
  183SOPE   C2820933   5.493   6.391   7.538 -1.2917  0.2171  0.6510
  183SOPE   H8R20934   5.447   6.291   7.523  0.0776 -0.0694 -1.9545
  183SOPE   H8S20935   5.565   6.378   7.621 -0.0964 -1.5722 -0.6228
  183SOPE   C2920936   5.389   6.492   7.577 -0.0713  0.7231  0.2204
  183SOPE   H9120937   5.386   6.583   7.515 -1.3472  0.9361  0.5671
  183SOPE  C21020938   5.312   6.503   7.685 -0.0222 -0.7715 -1.2446
  183SOPE  H10120939   5.236   6.583   7.693  2.3265  1.4038 -0.0799
  183SOPE  C21120940   5.309   6.406   7.800 -0.0579  0.4038 -0.4465
  183SOPE  H11R20941   5.347   6.311   7.758 -1.1077 -1.8864  3.4709
  183SOPE  H11S20942   5.216   6.379   7.855  1.2058  0.1498  1.6300
  183SOPE  C21220943   5.403   6.456   7.908  0.1808 -0.3952  0.4754
  183SOPE  H12R20944   5.499   6.477   7.856 -0.9824  0.5820 -1.3101
  183SOPE  H12S20945   5.421   6.363   7.966  2.8997 -0.7012 -0.7847
  183SOPE  C21320946   5.357   6.566   8.000 -0.2705  0.2636 -0.5060
  183SOPE  H13R20947   5.267   6.544   8.061 -0.8610 -0.2629 -1.5505
  183SOPE  H13S20948   5.330   6.652   7.935 -0.4611  0.0406 -0.7270
  183SOPE  C21420949   5.461   6.611   8.099  0.1021  0.3599 -0.3288
  183SOPE  H14R20950   5.543   6.649   8.035 -0.7074  1.3978 -0.7679
  183SOPE  H14S20951   5.499   6.522   8.153  0.1395  0.5467 -0.0459
  183SOPE  C21520952   5.431   6.731   8.187 -0.0114 -0.0348 -0.3468
  183SOPE  H15R20953   5.337   6.705   8.240  0.3124 -0.0207  0.2524
  183SOPE  H15S20954   5.392   6.814   8.125 -1.5359  1.6339  2.6955
  183SOPE  C21620955   5.542   6.779   8.276 -0.5778  0.9517 -0.2499
  183SOPE  H16R20956   5.495   6.857   8.339 -2.1403  2.2623 -2.9143
  183SOPE  H16S20957   5.618   6.826   8.210 -0.3196  0.7814 -0.0712
  183SOPE  C21720958   5.610   6.675   8.370 -0.7730 -0.0666 -0.0690
  183SOPE  H17R20959   5.697   6.729   8.412  1.0341  0.0583 -3.7387
  183SOPE  H17S20960   5.639   6.598   8.295  1.0974  2.4503 -2.0319
  183SOPE  C21820961   5.525   6.602   8.468  0.3336 -0.4900  0.5914
  183SOPE  H18R20962   5.427   6.571   8.426  0.4047  1.2703 -0.9631
  183SOPE  H18S20963   5.501   6.674   8.549 -1.8300 -1.3601  0.7506
  183SOPE  H18T20964   5.577   6.510   8.502  2.2645  0.8390  1.3541
  183SOPE   C3320965   4.857   6.268   6.951  0.0600  0.0899  0.4940
  183SOPE   H3X20966   4.766   6.254   6.888 -0.4838  0.9684  1.0684
  183SOPE   H3Y20967   4.870   6.378   6.960 -0.2307  0.1539  0.1477
  183SOPE   C3420968   4.845   6.218   7.093  0.2043 -0.5743  0.1052
  183SOPE   H4X20969   4.943   6.240   7.141 -0.7425  0.3660  1.6668
  183SOPE   H4Y20970   4.835   6.108   7.094 -1.3390 -0.4485 -0.2172
  183SOPE   C3520971   4.740   6.285   7.177  0.4076  0.2516  0.1750
  183SOPE   H5X20972   4.643   6.278   7.123  0.0803  1.7389  0.5494
  183SOPE   H5Y20973   4.760   6.394   7.182  2.4299 -0.1342  0.8802
  183SOPE   C3620974   4.733   6.232   7.317 -0.5390 -0.4214  1.0424
  183SOPE   H6X20975   4.709   6.124   7.315 -1.4315 -0.2597  2.1377
  183SOPE   H6Y20976   4.650   6.281   7.372 -1.8919  0.0910 -1.3440
  183SOPE   C3720977   4.855   6.262   7.413 -0.4981  0.1035  0.5027
  183SOPE   H7X20978   4.892   6.366   7.395 -3.0256  0.8814 -0.3835
  183SOPE   H7Y20979   4.949   6.205   7.396  0.0634  1.5666 -1.5615
  183SOPE   C3820980   4.814   6.230   7.555  0.1718  0.6656  0.3307
  183SOPE   H8X20981   4.778   6.125   7.564 -1.4405  1.1843  0.0537
  183SOPE   H8Y20982   4.738   6.291   7.608  0.0725 -0.4481  1.4931
  183SOPE   C3920983   4.927   6.234   7.661  0.7717 -0.0472 -0.2725
  183SOPE   H9X20984   4.965   6.339   7.661  2.6587 -0.6827  1.4239
  183SOPE   H9Y20985   5.002   6.158   7.632  0.5686 -1.0711  1.8410
  183SOPE  C31020986   4.863   6.206   7.802 -0.1145  0.0356 -0.1558
  183SOPE  H10X20987   4.834   6.098   7.805 -1.1257  0.1890 -2.9256
  183SOPE  H10Y20988   4.775   6.269   7.825 -1.1498 -1.5534  0.3450
  183SOPE  C31120989   4.967   6.228   7.915  0.5851  0.3998 -0.4276
  183SOPE  H11X20990   5.007   6.331   7.905 -1.1075  1.0664 -0.4519
  183SOPE  H11Y20991   5.060   6.168   7.909  1.0609  1.0105  0.6965
  183SOPE  C31220992   4.900   6.231   8.057 -0.3642  0.0663 -0.5221
  183SOPE  H12X20993   4.825   6.313   8.055 -0.0426  0.3516 -0.9031
  183SOPE  H12Y20994   4.977   6.258   8.132  0.0663  0.5473 -1.1358
  183SOPE  C31320995   4.835   6.092   8.081  0.2981  0.2676  0.3011
  183SOPE  H13X20996   4.904   6.011   8.049 -1.1423  0.0534 -2.3971
  183SOPE  H13Y20997   4.749   6.085   8.011  0.6004 -1.0811  0.0427
  183SOPE  C31420998   4.784   6.062   8.224  0.0182 -0.3781 -0.0924
  183SOPE  H14X20999   4.690   6.120   8.237  0.7716  0.6058  1.0726
  183SOPE  H14Y21000   4.847   6.113   8.299 -1.6849  3.8368 -1.3792
  183SOPE  C31521001   4.780   5.917   8.258  0.1656 -0.6152 -0.7245
  183SOPE  H15X21002   4.879   5.869   8.238 -0.3706 -1.7894 -0.5649
  183SOPE  H15Y21003   4.712   5.861   8.191  0.7396 -2.0074 -0.1552
  183SOPE  C31621004   4.741   5.889   8.407 -0.5034  0.4568 -0.3965
  183SOPE  H16X21005   4.640   5.934   8.421 -0.6895 -0.0564 -0.0933
  183SOPE  H16Y21006   4.817   5.945   8.466 -0.1694 -0.2560 -0.1496
  183SOPE  C31721007   4.724   5.736   8.441 -0.4204 -0.4804  0.2962
  183SOPE  H17X21008   4.801   5.663   8.408  0.6629  0.3918  0.8902
  183SOPE  H17Y21009   4.646   5.707   8.367 -0.8983  1.6587 -0.0765
  183SOPE  C31821010   4.674   5.707   8.585  0.5092  0.4366  1.4766
  183SOPE  H18X21011   4.618   5.612   8.583 -0.6369  1.1116 -1.5126
  183SOPE  H18Y21012   4.599   5.786   8.609  1.5957  1.7600  0.6391
  183SOPE  H18Z21013   4.753   5.699   8.662  2.4372  1.5072 -0.3360
  184SOPE     N21014   4.560   6.196   6.104  0.4532 -0.0028 -0.2073
  184SOPE   HN121015   4.587   6.272   6.039  0.2615  1.5910  1.5172
  184SOPE   HN221016   4.628   6.121   6.082 -1.1910 -1.7150  0.4772
  184SOPE   HN321017   4.464   6.171   6.072 -0.2389  2.3104 -0.0585
  184SOPE   C1221018   4.556   6.239   6.251 -0.2462 -0.1249  0.3577
  184SOPE  H12A21019   4.660   6.267   6.280  0.0876  1.1202 -1.8922
  184SOPE  H12B21020   4.518   6.148   6.302  2.3469 -0.9207  0.9504
  184SOPE   C1121021   4.467   6.363   6.275  0.0541  0.0684  0.7085
  184SOPE  H11A21022   4.467   6.397   6.381 -0.8441  2.0509  0.0884
  184SOPE  H11B21023   4.366   6.322   6.253 -0.8289  1.3913  2.1893
  184SOPE     P21024   4.584   6.600   6.209 -0.4348  0.1287 -0.2140
  184SOPE   O1321025   4.533   6.706   6.115  0.3187  0.6627  0.6592
  184SOPE   O1421026   4.724   6.551   6.206  0.2465  0.0115 -0.0522
  184SOPE   O1221027   4.489   6.471   6.183 -0.0845  0.6031 -0.3547
  184SOPE   O1121028   4.542   6.641   6.364  0.0934 -0.9635  0.0462
  184SOPE    C121029   4.406   6.684   6.382 -0.5542 -0.1619 -0.1563
  184SOPE    HA21030   4.337   6.598   6.369 -1.4481  0.5043  0.1469
  184SOPE    HB21031   4.389   6.767   6.311 -0.1142 -1.2782 -1.5884
  184SOPE    C221032   4.392   6.725   6.531  0.0139 -0.1588 -0.8930
  184SOPE    HS21033   4.485   6.785   6.545 -1.8206  2.2187  1.6334
  184SOPE   O2121034   4.399   6.602   6.613  0.1946 -0.1154 -0.1014
  184SOPE   C2121035   4.473   6.611   6.724 -0.3679 -0.1248  0.0577
  184SOPE   O2221036   4.547   6.698   6.753 -0.1363 -0.4259  0.5200
  184SOPE   C2221037   4.448   6.488   6.813  0.1310  0.4103  0.0376
  184SOPE   H2R21038   4.450   6.401   6.744 -0.2001  1.0123 -0.7482
  184SOPE   H2S21039   4.359   6.495   6.879  1.5170  1.4959  1.8260
  184SOPE    C321040   4.260   6.800   6.574 -0.3343 -0.4333  0.2324
  184SOPE    HX21041   4.169   6.748   6.536 -0.5357 -0.0498  0.1855
  184SOPE    HY21042   4.265   6.896   6.518  1.5353 -1.7186 -1.8366
  184SOPE   O3121043   4.248   6.821   6.721  0.0883 -0.6988  0.1607
  184SOPE   C3121044   4.334   6.912   6.763 -0.1146 -0.4041  0.6383
  184SOPE   O3221045   4.405   6.978   6.694  0.0617 -0.1625  0.2638
  184SOPE   C3221046   4.331   6.914   6.916 -0.0693  0.5313  0.5678
  184SOPE   H2X21047   4.359   6.814   6.955 -0.1420  0.4319  0.3664
  184SOPE   H2Y21048   4.227   6.939   6.946  0.0213  2.0960 -0.3507
  184SOPE   C2321049   4.554   6.470   6.924 -0.1363  0.2192  0.6504
  184SOPE   H3R21050   4.654   6.480   6.878 -0.1763 -1.3988  0.1901
  184SOPE   H3S21051   4.539   6.367   6.964  1.5345 -0.2911 -0.0270
  184SOPE   C2421052   4.524   6.565   7.042 -0.4944  0.5860  0.3480
  184SOPE   H4R21053   4.626   6.583   7.082  0.0305 -0.9740 -0.2769
  184SOPE   H4S21054   4.490   6.662   7.000 -1.9922 -0.5289 -1.1049
  184SOPE   C2521055   4.431   6.497   7.141  0.4789  0.3022 -1.7019
  184SOPE   H5R21056   4.321   6.506   7.125 -0.1077 -2.1817  0.6157
  184SOPE   H5S21057   4.458   6.390   7.145 -0.9281 -0.0958 -2.5439
  184SOPE   C2621058   4.468   6.534   7.294 -0.0568 -0.2725  0.5305
  184SOPE   H6R21059   4.390   6.474   7.346  1.2298 -1.0486  1.5882
  184SOPE   H6S21060   4.567   6.498   7.328 -0.3698  0.8901  2.7362
  184SOPE   C2721061   4.462   6.681   7.332 -0.5549 -0.2922 -0.0823
  184SOPE   H7R21062   4.536   6.741   7.276 -1.2108 -0.8433 -1.5543
  184SOPE   H7S21063   4.361   6.719   7.304  0.3392  2.1148 -0.1379
  184SOPE   C2821064   4.487   6.703   7.479 -0.8382  0.0276 -0.2438
  184SOPE   H8R21065   4.587   6.682   7.521 -2.0030  1.3624  3.4208
  184SOPE   H8S21066   4.463   6.809   7.503 -1.8930 -0.5302  1.2777
  184SOPE   C2921067   4.387   6.637   7.571  0.3397  0.8652 -0.1258
  184SOPE   H9121068   4.286   6.623   7.528  0.0881  0.9521  0.4315
  184SOPE  C21021069   4.405   6.614   7.703  0.3237  0.0350 -0.1246
  184SOPE  H10121070   4.339   6.542   7.751 -1.1817  1.6131  0.2367
  184SOPE  C21121071   4.529   6.656   7.775  0.2586  0.7730  0.7329
  184SOPE  H11R21072   4.568   6.750   7.731  0.5842 -0.1805 -1.0689
  184SOPE  H11S21073   4.610   6.581   7.765 -1.5692 -1.7418  4.0532
  184SOPE  C21221074   4.491   6.675   7.917  0.5249  0.4276 -0.7833
  184SOPE  H12R21075   4.391   6.724   7.925  0.0509 -0.7494  0.8429
  184SOPE  H12S21076   4.565   6.751   7.948  0.7154  0.4299 -1.2440
  184SOPE  C21321077   4.481   6.548   8.009  0.6868  0.4274  0.0444
  184SOPE  H13R21078   4.579   6.497   8.025  0.2973 -0.1265  0.6917
  184SOPE  H13S21079   4.413   6.473   7.964  0.8627  0.9797 -1.1560
  184SOPE  C21421080   4.431   6.598   8.142 -0.2140 -0.0804 -0.0500
  184SOPE  H14R21081   4.330   6.646   8.139 -0.1098  0.2211  0.9983
  184SOPE  H14S21082   4.490   6.686   8.175 -1.8216  2.1631 -2.8524
  184SOPE  C21521083   4.425   6.502   8.266  0.1682  0.5434 -0.8226
  184SOPE  H15R21084   4.443   6.566   8.356 -1.4192 -0.6905  0.4047
  184SOPE  H15S21085   4.516   6.439   8.255 -0.3453 -0.2473 -0.5411
  184SOPE  C21621086   4.309   6.411   8.270  0.6962 -0.4281 -0.3731
  184SOPE  H16R21087   4.308   6.346   8.180  0.0424  2.1827 -2.3337
  184SOPE  H16S21088   4.220   6.477   8.275  1.2937  0.4514 -1.2626
  184SOPE  C21721089   4.321   6.330   8.398  0.3365 -0.1672 -0.1637
  184SOPE  H17R21090   4.349   6.398   8.482 -0.6964  0.5822 -0.4217
  184SOPE  H17S21091   4.404   6.257   8.391 -0.0480 -1.2233  4.3297
  184SOPE  C21821092   4.195   6.241   8.438 -0.4007  0.2876  0.6727
  184SOPE  H18R21093   4.226   6.152   8.496 -1.8224 -0.8863 -0.3315
  184SOPE  H18S21094   4.160   6.196   8.343  0.9105 -0.0966  0.3564
  184SOPE  H18T21095   4.126   6.309   8.492 -1.7647  0.2171 -0.9246
  184SOPE   C3321096   4.432   7.012   6.967  0.6897 -0.4065 -0.2304
  184SOPE   H3X21097   4.407   7.115   6.931 -0.7935 -0.9735 -0.8628
  184SOPE   H3Y21098   4.533   6.987   6.929  0.2212 -0.9201 -1.1701
  184SOPE   C3421099   4.436   7.011   7.119 -0.2042  0.2345  0.1445
  184SOPE   H4X21100   4.450   6.903   7.141  0.9124 -0.3124 -2.9872
  184SOPE   H4Y21101   4.332   7.042   7.143 -0.0534  0.6602  0.2430
  184SOPE   C3521102   4.538   7.092   7.194  0.7199 -0.3081 -0.3719
  184SOPE   H5X21103   4.503   7.197   7.184 -1.7453 -0.7282  3.0239
  184SOPE   H5Y21104   4.637   7.076   7.146  1.6702  1.1112  1.0390
  184SOPE   C3621105   4.550   7.061   7.343 -0.6991 -0.3414 -0.5282
  184SOPE   H6X21106   4.581   6.955   7.350  0.5210  0.0837  0.8880
  184SOPE   H6Y21107   4.452   7.062   7.395 -0.1408  3.1038  0.5974
  184SOPE   C3721108   4.645   7.148   7.421  0.4708 -0.1003 -0.1295
  184SOPE   H7X21109   4.602   7.250   7.419 -1.2423 -0.7470  2.1529
  184SOPE   H7Y21110   4.741   7.143   7.365 -0.5918  2.5644 -2.3302
  184SOPE   C3821111   4.676   7.108   7.564 -0.5329  0.2488 -0.4776
  184SOPE   H8X21112   4.721   7.006   7.568 -2.6046 -0.6279  1.5706
  184SOPE   H8Y21113   4.575   7.111   7.609 -0.5280 -0.4541 -0.4090
  184SOPE   C3921114   4.792   7.187   7.631  0.1034  0.6598  0.2945
  184SOPE   H9X21115   4.762   7.291   7.654 -0.3480  0.6588 -0.2667
  184SOPE   H9Y21116   4.880   7.213   7.569  1.1610  0.1877  1.5733
  184SOPE  C31021117   4.836   7.108   7.761 -0.5931 -0.7862  0.2960
  184SOPE  H10X21118   4.905   7.029   7.725 -0.6293 -1.0541  0.8094
  184SOPE  H10Y21119   4.747   7.050   7.795  0.5321 -2.0514  1.1493
  184SOPE  C31121120   4.895   7.195   7.866  0.5461 -0.0482 -1.0490
  184SOPE  H11X21121   4.818   7.249   7.923 -1.2619 -2.1809 -1.4012
  184SOPE  H11Y21122   4.963   7.268   7.818  1.0603 -0.1292 -0.4525
  184SOPE  C31221123   4.973   7.103   7.954 -0.2501  0.7798  0.5527
  184SOPE  H12X21124   5.067   7.079   7.900  0.0309  1.2772  0.8160
  184SOPE  H12Y21125   4.919   7.008   7.972  1.2391 -0.1385  0.1715
  184SOPE  C31321126   5.006   7.163   8.091  0.3863 -0.5843  0.1893
  184SOPE  H13X21127   4.917   7.193   8.149  0.5725  0.7893 -0.2127
  184SOPE  H13Y21128   5.063   7.257   8.072  0.4722 -1.1108 -2.3485
  184SOPE  C31421129   5.090   7.065   8.175 -0.4744 -0.3745 -0.3460
  184SOPE  H14X21130   5.180   7.031   8.120  1.3143 -0.9054  2.8356
  184SOPE  H14Y21131   5.025   6.979   8.201  1.6578 -1.0824  2.8602
  184SOPE  C31521132   5.129   7.129   8.307  0.8029  0.2150  0.1525
  184SOPE  H15X21133   5.037   7.135   8.369  0.6440 -0.0203 -0.0573
  184SOPE  H15Y21134   5.188   7.222   8.319 -0.8032  1.4143 -0.9602
  184SOPE  C31621135   5.223   7.026   8.386  0.4208  0.4134  0.9726
  184SOPE  H16X21136   5.322   7.039   8.337  0.2447 -0.3177  0.4129
  184SOPE  H16Y21137   5.193   6.919   8.378  1.5656  0.2431 -1.3907
  184SOPE  C31721138   5.244   7.060   8.533  0.5061  0.4216  0.2496
  184SOPE  H17X21139   5.213   6.974   8.597  0.1904 -0.1476 -0.6634
  184SOPE  H17Y21140   5.178   7.145   8.559 -1.4338 -1.1281  0.5378
  184SOPE  C31821141   5.384   7.110   8.566 -0.5157  0.0897  0.3084
  184SOPE  H18X21142   5.456   7.025   8.559  2.3455  2.4990 -0.3217
  184SOPE  H18Y21143   5.378   7.134   8.674 -1.5859  0.8853  0.0762
  184SOPE  H18Z21144   5.415   7.204   8.516  1.4364  0.4203  2.1022
  185SAPI   C1221145   0.397   3.205  10.976 -0.7313  0.2102  0.6134
  185SAPI    H221146   0.473   3.244  10.905 -1.5961  0.3046 -0.2642
  185SAPI    O221147   0.277   3.197  10.901  0.1464  0.4919 -0.8252
  185SAPI   HO221148   0.279   3.250  10.820 -1.0095  3.7418  1.1848
  185SAPI   C1321149   0.454   3.070  11.027  0.6413 -0.4196  0.1727
  185SAPI    H321150   0.547   3.096  11.082 -0.0688  1.3995  0.5540
  185SAPI    O321151   0.484   2.994  10.914 -0.4970 -0.2961 -0.0343
  185SAPI   HO321152   0.568   2.948  10.925 -1.4387 -2.5801 -1.9192
  185SAPI   C1421153   0.356   3.004  11.118 -0.3796 -0.6643 -0.2259
  185SAPI    H421154   0.259   2.976  11.072 -1.0029 -0.9526  1.2399
  185SAPI    O421155   0.419   2.887  11.174  0.1191  0.7673 -0.1232
  185SAPI   HO421156   0.381   2.820  11.117  0.3740 -0.1673  0.7982
  185SAPI   C1521157   0.325   3.103  11.233 -0.7260 -0.2220  0.2611
  185SAPI    H521158   0.420   3.115  11.290 -1.8374 -0.1866  2.1434
  185SAPI    O521159   0.236   3.042  11.323 -0.2375  0.4661  0.2349
  185SAPI   HO521160   0.250   3.069  11.414 -1.0109 -1.4812  0.9587
  185SAPI   C1621161   0.275   3.233  11.178  0.2804  0.6107 -0.0741
  185SAPI    H621162   0.182   3.213  11.120 -0.4763 -1.7621  1.8453
  185SAPI    O621163   0.241   3.313  11.293 -0.1156  0.0373  0.0537
  185SAPI   HO621164   0.329   3.341  11.318  0.3413 -1.1600 -0.1774
  185SAPI   C1121165   0.375   3.305  11.088 -0.3248 -0.4718  0.1077
  185SAPI    H121166   0.474   3.301  11.138 -0.1446 -1.1090 -0.3031
  185SAPI     P21167   0.438   3.546  10.982 -0.3161 -0.2359  0.2852
  185SAPI   O1321168   0.576   3.502  11.013  0.1363  0.0886 -0.1165
  185SAPI   O1421169   0.393   3.675  11.034  0.2257  0.2630 -0.2583
  185SAPI   O1221170   0.336   3.436  11.053  0.4218 -0.7182  0.6816
  185SAPI   O1121171   0.397   3.535  10.834  0.2201 -0.2056  0.3241
  185SAPI    C121172   0.377   3.636  10.736 -0.8972  0.1998 -0.6690
  185SAPI    HA21173   0.273   3.672  10.753 -0.2527  0.6284  2.6162
  185SAPI    HB21174   0.463   3.706  10.734  0.3909 -1.3751 -1.2837
  185SAPI    C221175   0.375   3.573  10.593 -0.1756  0.5336 -0.0545
  185SAPI    HS21176   0.326   3.474  10.604 -0.5411  0.5500 -1.4089
  185SAPI   O2121177   0.512   3.562  10.548  0.4142 -0.1833  0.0908
  185SAPI   C2121178   0.535   3.471  10.457  0.9135  0.0234  0.2358
  185SAPI   O2221179   0.453   3.393  10.415  0.2192 -0.2599  0.0843
  185SAPI   C2221180   0.686   3.477  10.415  0.7650  0.0930 -0.7519
  185SAPI   H2R21181   0.703   3.584  10.391 -2.8013  1.2532  1.5664
  185SAPI   H2S21182   0.755   3.457  10.500  0.0036 -0.3995 -0.2470
  185SAPI    C321183   0.288   3.661  10.501  0.5940  0.5810  0.6536
  185SAPI    HX21184   0.323   3.766  10.515 -0.8704  1.0597  0.8523
  185SAPI    HY21185   0.182   3.663  10.534 -0.5169 -0.7837 -2.6368
  185SAPI   O3121186   0.307   3.628  10.363 -0.4768  0.0887 -0.0916
  185SAPI   C3121187   0.213   3.546  10.309  0.0837  0.5850 -0.6503
  185SAPI   O3221188   0.111   3.507  10.361  0.6213  0.5523  0.3790
  185SAPI   C3221189   0.252   3.522  10.163 -0.3604 -0.0986 -0.5083
  185SAPI   H2X21190   0.349   3.470  10.148 -0.5083 -0.0625 -1.6383
  185SAPI   H2Y21191   0.274   3.618  10.112 -1.6274  1.2782  1.4515
  185SAPI   C2321192   0.734   3.421  10.272 -0.9370  0.1352 -0.1473
  185SAPI   H3R21193   0.834   3.462  10.250 -1.4780  0.0687 -2.9249
  185SAPI   H3S21194   0.668   3.460  10.191  0.6803 -2.0323 -2.6204
  185SAPI   C2421195   0.744   3.269  10.271  0.0892 -0.1780 -0.6109
  185SAPI   H4R21196   0.733   3.241  10.164 -0.6942 -0.0065 -0.5766
  185SAPI   H4S21197   0.651   3.229  10.316  0.7898 -2.3269 -1.0182
  185SAPI   C2521198   0.872   3.218  10.336 -0.6504  0.0296  0.1543
  185SAPI   H5R21199   0.893   3.254  10.438 -1.0531  0.9335 -0.0806
  185SAPI   C2621200   0.957   3.128  10.284 -0.3403 -0.2634  0.2941
  185SAPI   H6R21201   1.047   3.102  10.343  0.3083  1.1785 -0.0322
  185SAPI   C2721202   0.940   3.057  10.147  0.4259  0.0673 -0.2806
  185SAPI   H7R21203   1.035   3.011  10.113  1.4481  0.1782  2.3365
  185SAPI   H7S21204   0.916   3.127  10.064  1.0159 -1.3790 -1.7125
  185SAPI   C2821205   0.835   2.943  10.162  0.4852  0.1479 -0.3327
  185SAPI   H8R21206   0.833   2.906  10.266 -1.8039  0.8835 -0.0875
  185SAPI   C2921207   0.767   2.890  10.061  0.5310  0.2978  0.5587
  185SAPI   H9R21208   0.678   2.828  10.075 -0.3338  0.8980 -1.9818
  185SAPI  C21021209   0.793   2.940   9.923  0.0236  0.2332  0.0207
  185SAPI  H10R21210   0.902   2.949   9.901 -0.0929 -1.3251 -1.3431
  185SAPI  H10S21211   0.739   3.035   9.905  0.5485  0.9299  2.0441
  185SAPI  C21121212   0.742   2.846   9.818  0.1311  0.5084  0.6051
  185SAPI  H11R21213   0.711   2.744   9.844  1.6998 -0.5743 -1.5807
  185SAPI  C21221214   0.736   2.865   9.682 -0.7282  0.5771  1.1759
  185SAPI  H12R21215   0.696   2.779   9.626  1.1283 -0.3964  1.2932
  185SAPI  C21321216   0.771   2.986   9.601 -0.1392  0.6640 -0.1686
  185SAPI  H13R21217   0.855   2.959   9.534  3.3511  1.4035  3.7067
  185SAPI  H13S21218   0.797   3.066   9.674  2.5737  0.1249 -0.5135
  185SAPI  C21421219   0.647   3.013   9.530 -0.3136  0.1101  0.0548
  185SAPI  H14R21220   0.559   3.020   9.596  0.3025 -1.6734  1.0769
  185SAPI  C21521221   0.630   3.040   9.399 -0.7974  0.1733 -0.1168
  185SAPI  H15R21222   0.527   3.057   9.365 -0.8342  2.1456  0.9195
  185SAPI  C21621223   0.748   3.043   9.296 -0.1740 -0.1796 -0.4959
  185SAPI  H16R21224   0.846   3.028   9.346 -1.1487 -0.1721  1.4643
  185SAPI  H16S21225   0.759   3.134   9.233  2.1357 -0.9850 -1.3358
  185SAPI  C21721226   0.732   2.933   9.193  0.7097 -0.0331  0.5108
  185SAPI  H17R21227   0.626   2.928   9.163  1.2284 -0.7404 -1.2280
  185SAPI  H17S21228   0.749   2.835   9.243  0.2022 -0.8164 -0.8625
  185SAPI  C21821229   0.827   2.954   9.071  0.0600 -0.7495  0.4106
  185SAPI  H18R21230   0.934   2.943   9.100  0.3912 -1.1350 -0.9147
  185SAPI  H18S21231   0.829   3.057   9.030 -0.3248 -1.4036 -1.2927
  185SAPI  C21921232   0.789   2.852   8.971 -0.2046  0.0912 -0.2810
  185SAPI  H19R21233   0.686   2.880   8.940 -0.3311  0.0629  0.1147
  185SAPI  H19S21234   0.790   2.754   9.023  0.4935  0.9286  1.3048
  185SAPI  C22021235   0.884   2.851   8.846  0.0706  0.8345 -0.1242
  185SAPI  H20R21236   0.868   2.941   8.782  2.2958  0.7341 -0.8560
  185SAPI  H20S21237   0.878   2.762   8.778  1.4067 -1.3857  2.5744
  185SAPI  H20T21238   0.988   2.857   8.884 -0.4497 -0.2534  1.5145
  185SAPI   C3321239   0.151   3.434  10.078  0.0051 -0.1396 -0.0606
  185SAPI   H3X21240   0.133   3.339  10.134 -0.5167  0.7516  1.3079
  185SAPI   H3Y21241   0.202   3.421   9.980 -2.8020  1.9864 -1.8927
  185SAPI   C3421242   0.015   3.509  10.077 -0.3776 -0.0940  0.3834
  185SAPI   H4X21243   0.042   3.615  10.062  1.5693 -0.8700 -1.7824
  185SAPI   H4Y21244  -0.034   3.497  10.177  1.3739  0.7638  1.3541
  185SAPI   C3521245  -0.085   3.472   9.968  0.0905  0.0034  0.7826
  185SAPI   H5X21246  -0.180   3.516  10.003  2.1072  3.3848  2.2736
  185SAPI   H5Y21247  -0.101   3.362   9.966 -0.3348  0.0689 -3.2290
  185SAPI   C3621248  -0.038   3.512   9.836 -0.6270 -0.3831 -0.2138
  185SAPI   H6X21249   0.056   3.455   9.822  1.3305  2.1590  1.9324
  185SAPI   H6Y21250  -0.005   3.618   9.849  0.3852 -0.8171  0.7594
  185SAPI   C3721251  -0.136   3.488   9.718  0.6559 -0.0075 -0.3894
  185SAPI   H7X21252  -0.235   3.511   9.762  0.6081  2.2362 -1.6203
  185SAPI   H7Y21253  -0.133   3.380   9.692  1.6883 -0.2346  0.6353
  185SAPI   C3821254  -0.083   3.566   9.594  0.1131 -0.7387 -0.4043
  185SAPI   H8X21255   0.027   3.556   9.601 -0.0564 -2.0138  0.7014
  185SAPI   H8Y21256  -0.118   3.670   9.613  0.5943 -0.8066  0.9195
  185SAPI   C3921257  -0.155   3.509   9.468  0.3888  0.3830 -0.5588
  185SAPI   H9X21258  -0.262   3.515   9.499  0.4161 -1.0323 -0.1693
  185SAPI   H9Y21259  -0.131   3.402   9.451  1.0565  0.3822  0.3651
  185SAPI  C31021260  -0.123   3.595   9.351 -0.0236  0.3043 -0.2340
  185SAPI  H10X21261  -0.014   3.597   9.327 -0.0279  0.8020 -0.2144
  185SAPI  H10Y21262  -0.154   3.700   9.368  0.4809  0.3900  0.1532
  185SAPI  C31121263  -0.214   3.542   9.240  0.7997  0.7453  0.0141
  185SAPI  H11X21264  -0.320   3.563   9.266  1.1236  0.0157  2.0015
  185SAPI  H11Y21265  -0.207   3.432   9.237  0.3777  0.7445 -1.4081
  185SAPI  C31221266  -0.173   3.599   9.103 -0.0672 -0.3336  0.1936
  185SAPI  H12X21267  -0.068   3.572   9.081 -0.1879  0.4569 -1.3899
  185SAPI  H12Y21268  -0.170   3.710   9.108 -2.2571 -0.1335 -1.7264
  185SAPI  C31321269  -0.273   3.558   8.989 -0.3929 -0.1704  0.8520
  185SAPI  H13X21270  -0.378   3.578   9.019 -1.0131  0.8140 -1.8250
  185SAPI  H13Y21271  -0.256   3.453   8.955 -2.1323 -0.0886 -0.3085
  185SAPI  C31421272  -0.255   3.648   8.863  0.8345 -0.1328 -0.3095
  185SAPI  H14X21273  -0.149   3.641   8.829  0.3841 -0.2870 -1.7385
  185SAPI  H14Y21274  -0.304   3.744   8.891  0.1782 -0.4835 -0.2479
  185SAPI  C31521275  -0.337   3.588   8.748 -0.0059 -0.0034  0.0365
  185SAPI  H15X21276  -0.315   3.480   8.730 -1.7493  0.2706 -4.3695
  185SAPI  H15Y21277  -0.316   3.643   8.654 -1.4041 -0.2970 -0.4551
  185SAPI  C31621278  -0.486   3.606   8.782  0.2077  0.2595 -0.0544
  185SAPI  H16X21279  -0.503   3.694   8.848 -0.2355 -1.4507  2.1672
  185SAPI  H16Y21280  -0.518   3.521   8.846  0.6209 -0.4799 -0.8128
  185SAPI  C31721281  -0.580   3.605   8.656  0.9150  0.4621 -0.3386
  185SAPI  H17X21282  -0.563   3.505   8.611 -1.9483  0.3248 -1.2084
  185SAPI  H17Y21283  -0.557   3.693   8.592  0.5030  1.8031  1.3181
  185SAPI  C31821284  -0.729   3.607   8.673 -0.0620 -0.4722  0.8428
  185SAPI  H18X21285  -0.760   3.527   8.743 -0.9529  0.0703  1.0742
  185SAPI  H18Y21286  -0.775   3.595   8.572 -2.7978  0.0385  1.9927
  185SAPI  H18Z21287  -0.774   3.701   8.710 -1.4148 -0.6537 -0.3111
  186SAPI   C1221288   1.201   2.027  10.579  0.8792 -0.8973 -0.2536
  186SAPI    H221289   1.146   1.938  10.542 -1.4551  0.5339 -0.3320
  186SAPI    O221290   1.338   2.012  10.538  0.2943  0.0496 -0.3065
  186SAPI   HO221291   1.336   1.960  10.457 -0.4265 -2.5945  1.3225
  186SAPI   C1321292   1.124   2.146  10.518 -0.8100  0.1224  0.6463
  186SAPI    H321293   1.018   2.140  10.551 -0.4950  2.5159  2.1968
  186SAPI    O321294   1.112   2.133  10.370  0.7240  0.2179  0.1258
  186SAPI   HO321295   1.043   2.197  10.351  0.5803  0.2089  0.6003
  186SAPI   C1421296   1.195   2.283  10.559  0.2181 -0.3759 -0.1752
  186SAPI    H421297   1.300   2.281  10.523  1.1888  1.5208  2.3719
  186SAPI    O421298   1.120   2.390  10.512 -0.2757  0.5393 -0.4743
  186SAPI   HO421299   1.175   2.463  10.482  0.4504 -0.4531 -1.5700
  186SAPI   C1521300   1.211   2.289  10.715  0.2626 -0.5048  0.0294
  186SAPI    H521301   1.111   2.292  10.765  0.1090 -1.4696 -0.2188
  186SAPI    O521302   1.270   2.409  10.765  0.3606 -0.0869  0.2091
  186SAPI   HO521303   1.339   2.433  10.702 -0.1424 -0.4803 -0.5060
  186SAPI   C1621304   1.282   2.168  10.776  0.1713  0.7298  0.3386
  186SAPI    H621305   1.384   2.178  10.733  0.3586  3.3045  1.2864
  186SAPI    O621306   1.300   2.173  10.921 -0.4878 -0.2493  0.2650
  186SAPI   HO621307   1.225   2.120  10.950  0.2749 -1.1799  0.5717
  186SAPI   C1121308   1.205   2.041  10.732  0.0596  0.9175  0.3216
  186SAPI    H121309   1.100   2.053  10.769  0.3172  2.8938  0.4823
  186SAPI     P21310   1.157   1.783  10.794  0.1958  0.2714 -0.1961
  186SAPI   O1321311   1.015   1.819  10.805  0.3374  0.4006 -0.4492
  186SAPI   O1421312   1.220   1.708  10.909 -0.6015  0.0620 -0.8516
  186SAPI   O1221313   1.256   1.916  10.784 -0.6044  0.0471  0.1045
  186SAPI   O1121314   1.177   1.703  10.659  0.1790  0.1654 -0.2454
  186SAPI    C121315   1.310   1.673  10.615 -0.1105 -0.6902  0.2549
  186SAPI    HA21316   1.364   1.769  10.607 -0.6857 -0.3431  0.4404
  186SAPI    HB21317   1.359   1.607  10.690 -0.7162 -0.8059  0.5544
  186SAPI    C221318   1.315   1.587  10.482 -0.2175  0.3142 -0.2030
  186SAPI    HS21319   1.416   1.594  10.435 -0.3223 -2.7420 -0.9880
  186SAPI   O2121320   1.214   1.626  10.392  0.6167 -0.1486  0.1048
  186SAPI   C2121321   1.229   1.747  10.337 -0.0268 -0.1149 -0.7407
  186SAPI   O2221322   1.316   1.828  10.361  0.3960 -0.4327  0.1125
  186SAPI   C2221323   1.118   1.775  10.248 -0.5659 -0.1361  0.6764
  186SAPI   H2R21324   1.072   1.682  10.209  0.8073  0.0134 -1.3636
  186SAPI   H2S21325   1.050   1.837  10.311  0.4569  1.7247 -0.0035
  186SAPI    C321326   1.300   1.435  10.521  0.1248 -0.0362  0.0461
  186SAPI    HX21327   1.196   1.405  10.550  0.2966  1.0485  1.8848
  186SAPI    HY21328   1.373   1.425  10.604 -1.6241 -1.2760  1.4807
  186SAPI   O3121329   1.361   1.378  10.409  0.1390 -0.1488  0.0730
  186SAPI   C3121330   1.362   1.241  10.411 -0.1088  0.4133  0.0037
  186SAPI   O3221331   1.325   1.172  10.507  0.0831  0.0835  0.0229
  186SAPI   C3221332   1.433   1.190  10.288 -0.0186  0.1401  0.9841
  186SAPI   H2X21333   1.414   1.257  10.202  3.3938  0.8449  0.6813
  186SAPI   H2Y21334   1.382   1.093  10.272 -0.6527  0.4885  0.8993
  186SAPI   C2321335   1.154   1.876  10.132 -0.5730  0.1239  0.1664
  186SAPI   H3R21336   1.250   1.844  10.085  0.1012 -0.6125  2.0098
  186SAPI   H3S21337   1.174   1.980  10.165 -0.4935 -0.2007  1.1538
  186SAPI   C2421338   1.044   1.876  10.019  0.0574 -0.4053  0.3055
  186SAPI   H4R21339   1.053   1.980   9.981  0.3010 -0.8897 -0.9849
  186SAPI   H4S21340   0.946   1.870  10.071 -0.5246  2.2899 -0.4039
  186SAPI   C2521341   1.041   1.766   9.914  0.5317 -0.4215 -0.1613
  186SAPI   H5R21342   0.967   1.686   9.926  0.6401 -0.4484  0.3384
  186SAPI   C2621343   1.127   1.762   9.811 -0.7988 -0.2638 -0.5951
  186SAPI   H6R21344   1.136   1.673   9.747  0.2137  1.7963 -3.3784
  186SAPI   C2721345   1.245   1.858   9.796 -0.0932 -0.3114  0.3790
  186SAPI   H7R21346   1.311   1.846   9.885 -1.5322 -1.0143  1.3664
  186SAPI   H7S21347   1.210   1.962   9.806 -0.6955 -0.7064  2.5688
  186SAPI   C2821348   1.334   1.846   9.678 -0.1684 -0.0883 -0.6882
  186SAPI   H8R21349   1.439   1.845   9.708 -0.2097  1.9730 -0.4215
  186SAPI   C2921350   1.297   1.846   9.547 -0.4362  0.2107 -0.2080
  186SAPI   H9R21351   1.372   1.830   9.468 -0.6431  1.8709 -0.7801
  186SAPI  C21021352   1.154   1.851   9.491  0.0648  0.0265 -0.2851
  186SAPI  H10R21353   1.077   1.851   9.570 -2.1343 -0.9414 -2.3763
  186SAPI  H10S21354   1.128   1.757   9.438 -0.7920 -0.7268  1.4388
  186SAPI  C21121355   1.137   1.977   9.404 -0.0162  0.2624  0.8825
  186SAPI  H11R21356   1.157   2.072   9.455  4.0775  0.8814 -1.6610
  186SAPI  C21221357   1.103   1.979   9.276  0.2231 -0.4516 -1.0411
  186SAPI  H12R21358   1.098   2.079   9.232  0.1218 -0.0029 -0.0301
  186SAPI  C21321359   1.087   1.872   9.174 -0.1171 -0.4697 -0.2392
  186SAPI  H13R21360   1.111   1.772   9.215  2.2558 -0.1594 -0.7833
  186SAPI  H13S21361   1.157   1.896   9.092  0.5202  1.0663  0.7273
  186SAPI  C21421362   0.949   1.860   9.116 -0.3160  0.6989 -0.1877
  186SAPI  H14R21363   0.864   1.888   9.181 -0.6300 -1.1568  0.2297
  186SAPI  C21521364   0.928   1.790   9.004  0.3834  0.1784  0.2934
  186SAPI  H15R21365   0.827   1.774   8.964 -0.2611  2.6390  0.8721
  186SAPI  C21621366   1.017   1.723   8.911  0.9376 -0.7290  0.4389
  186SAPI  H16R21367   1.050   1.627   8.956  0.1725 -1.4475 -0.5035
  186SAPI  H16S21368   1.108   1.781   8.886 -1.9222  2.8280 -2.2816
  186SAPI  C21721369   0.950   1.687   8.771 -0.4964 -0.2048  0.4499
  186SAPI  H17R21370   0.897   1.775   8.728 -0.2373  1.2651  3.0500
  186SAPI  H17S21371   0.878   1.605   8.791 -0.3574 -0.0945  1.4137
  186SAPI  C21821372   1.054   1.643   8.663 -0.8707 -0.0334 -0.8059
  186SAPI  H18R21373   0.997   1.588   8.586 -0.2161 -2.0687  0.1272
  186SAPI  H18S21374   1.130   1.575   8.706 -2.1723 -0.5152  0.7921
  186SAPI  C21921375   1.125   1.765   8.604  0.8251  1.2924 -0.1325
  186SAPI  H19R21376   1.186   1.823   8.677  3.4152 -1.5504  0.0563
  186SAPI  H19S21377   1.042   1.830   8.569 -0.0080  0.9784  1.2232
  186SAPI  C22021378   1.228   1.719   8.497  0.1248  0.2875  0.9316
  186SAPI  H20R21379   1.284   1.799   8.446  0.3938  0.3200  1.2780
  186SAPI  H20S21380   1.167   1.662   8.424 -0.6124  2.1440  0.0725
  186SAPI  H20T21381   1.301   1.640   8.526  0.8069  1.1466  1.5791
  186SAPI   C3321382   1.585   1.170  10.306  0.2597 -0.2159 -0.9751
  186SAPI   H3X21383   1.621   1.127  10.401  0.4102  0.0564 -0.9114
  186SAPI   H3Y21384   1.622   1.275  10.303  0.7029 -0.3459  0.0619
  186SAPI   C3421385   1.646   1.083  10.194 -0.7488  0.0315  0.6272
  186SAPI   H4X21386   1.577   0.996  10.196  0.2647 -0.7703  1.4811
  186SAPI   H4Y21387   1.748   1.051  10.226 -0.8072  1.1882  2.0313
  186SAPI   C3521388   1.641   1.144  10.058 -0.2607 -1.0222 -0.6919
  186SAPI   H5X21389   1.710   1.230  10.059  1.9631 -2.6908 -3.3057
  186SAPI   H5Y21390   1.534   1.164  10.035 -0.1340 -1.1987 -1.4688
  186SAPI   C3621391   1.690   1.041   9.946 -0.5765  0.7824 -0.7942
  186SAPI   H6X21392   1.629   0.949   9.940  1.9063 -1.1646  2.3613
  186SAPI   H6Y21393   1.792   1.001   9.963 -0.9485  0.9903  2.2842
  186SAPI   C3721394   1.685   1.108   9.807 -0.1005  0.2201 -0.7514
  186SAPI   H7X21395   1.718   1.213   9.817 -0.5809  0.2861  0.1939
  186SAPI   H7Y21396   1.578   1.121   9.779 -0.1082  0.8249 -0.4286
  186SAPI   C3821397   1.750   1.023   9.699  0.3144 -0.0619  0.8152
  186SAPI   H8X21398   1.701   0.924   9.713  0.3193 -0.5083 -2.0035
  186SAPI   H8Y21399   1.861   1.016   9.705  0.4522  1.6064  0.5684
  186SAPI   C3921400   1.722   1.068   9.559  0.0725  0.2244  0.2455
  186SAPI   H9X21401   1.614   1.074   9.533  0.4341  3.2482 -0.8038
  186SAPI   H9Y21402   1.768   1.004   9.482  1.7119  0.9089  0.6207
  186SAPI  C31021403   1.787   1.212   9.534 -0.3234 -0.0968  0.1348
  186SAPI  H10X21404   1.895   1.220   9.555 -0.7072  2.1465  1.3591
  186SAPI  H10Y21405   1.751   1.290   9.604  2.3043  0.8702  0.4374
  186SAPI  C31121406   1.782   1.267   9.390 -0.0393  0.5238 -0.0073
  186SAPI  H11X21407   1.825   1.190   9.324  3.2036 -0.5789  3.2287
  186SAPI  H11Y21408   1.836   1.362   9.372 -1.4704  0.9411 -2.2220
  186SAPI  C31221409   1.644   1.306   9.337  0.0380  0.2135 -0.2336
  186SAPI  H12X21410   1.627   1.399   9.395 -1.2539 -0.0920 -0.1145
  186SAPI  H12Y21411   1.562   1.241   9.375  0.1005  0.2975  0.0489
  186SAPI  C31321412   1.644   1.323   9.180  0.3131  1.0530  0.4491
  186SAPI  H13X21413   1.724   1.396   9.155 -0.5117  1.3132 -1.5328
  186SAPI  H13Y21414   1.554   1.383   9.157  1.2762  2.3740  0.0406
  186SAPI  C31421415   1.653   1.195   9.086 -0.0224 -0.4496 -0.1425
  186SAPI  H14X21416   1.552   1.150   9.089 -0.8954  1.4344 -0.2128
  186SAPI  H14Y21417   1.714   1.121   9.143 -0.5804 -0.9782 -0.2324
  186SAPI  C31521418   1.686   1.236   8.943  0.1969 -0.6466 -0.8266
  186SAPI  H15X21419   1.694   1.145   8.879  2.0614 -2.2868  1.6388
  186SAPI  H15Y21420   1.779   1.295   8.926  0.1007 -0.4593 -0.6950
  186SAPI  C31621421   1.567   1.311   8.889  0.8928  0.0216  0.0454
  186SAPI  H16X21422   1.566   1.421   8.907  2.7478  0.4280 -2.0721
  186SAPI  H16Y21423   1.470   1.273   8.928  0.2797  2.1063  0.6261
  186SAPI  C31721424   1.552   1.301   8.739 -0.2580 -0.1454 -0.1732
  186SAPI  H17X21425   1.541   1.198   8.700 -1.4620  0.0863 -0.4800
  186SAPI  H17Y21426   1.638   1.340   8.681 -0.1063 -1.1603 -0.6359
  186SAPI  C31821427   1.427   1.371   8.691 -0.8394  0.0310  0.2488
  186SAPI  H18X21428   1.435   1.476   8.727 -0.1892 -0.7993  2.6196
  186SAPI  H18Y21429   1.342   1.320   8.741  0.9276 -0.6422  2.7012
  186SAPI  H18Z21430   1.416   1.375   8.581 -1.6311 -3.6971  0.1565
  187SAPI   C1221431   5.383   2.223   6.033  0.3678  0.5731 -0.1629
  187SAPI    H221432   5.289   2.173   6.063  0.4052 -0.2465 -1.3607
  187SAPI    O221433   5.456   2.138   5.946  0.4239  0.5942  0.1535
  187SAPI   HO221434   5.430   2.046   5.952  0.4417  0.6402  0.9733
  187SAPI   C1321435   5.332   2.348   5.961  0.5745 -0.3163 -0.1344
  187SAPI    H321436   5.251   2.389   6.025 -1.6881 -1.7035 -2.0512
  187SAPI    O321437   5.257   2.306   5.846 -0.0328 -0.1780  0.0982
  187SAPI   HO321438   5.305   2.231   5.810 -2.6705 -2.1190  0.5243
  187SAPI   C1421439   5.447   2.442   5.939 -0.4783  0.7782  1.0543
  187SAPI    H421440   5.513   2.394   5.864 -2.6628  2.5922 -2.1053
  187SAPI    O421441   5.390   2.559   5.872 -0.2202 -0.4557 -0.7500
  187SAPI   HO421442   5.423   2.545   5.783  0.4350  2.2177 -0.9804
  187SAPI   C1521443   5.530   2.472   6.062  0.4705 -0.9982 -0.3822
  187SAPI    H521444   5.459   2.515   6.136 -0.2036  0.4268 -1.8048
  187SAPI    O521445   5.636   2.566   6.046 -0.0154  0.2638 -0.3141
  187SAPI   HO521446   5.602   2.653   6.067 -0.9900 -0.3288  0.6163
  187SAPI   C1621447   5.576   2.347   6.133 -0.5216 -0.2314  0.1180
  187SAPI    H621448   5.648   2.296   6.065 -0.4727 -0.4388  0.3266
  187SAPI    O621449   5.644   2.385   6.247  0.3191  0.5480  0.2053
  187SAPI   HO621450   5.586   2.439   6.301 -1.5193  0.2793 -1.4208
  187SAPI   C1121451   5.455   2.262   6.157 -0.8372  0.1772 -0.7879
  187SAPI    H121452   5.383   2.326   6.213  0.2028  0.4313  0.2632
  187SAPI     P21453   5.397   2.072   6.341  0.0122 -0.0288  0.2760
  187SAPI   O1321454   5.416   1.926   6.330  0.0966 -0.0842  0.5410
  187SAPI   O1421455   5.257   2.118   6.319 -0.3563 -0.0977 -0.0532
  187SAPI   O1221456   5.493   2.148   6.237 -0.3583  0.5517  0.1682
  187SAPI   O1121457   5.462   2.116   6.476  0.2300 -0.4544 -0.7953
  187SAPI    C121458   5.458   2.255   6.517  0.4330 -0.1621  0.1677
  187SAPI    HA21459   5.557   2.305   6.508 -0.1541  0.9945  0.0223
  187SAPI    HB21460   5.385   2.314   6.457 -0.4279  1.0520  2.3472
  187SAPI    C221461   5.404   2.277   6.660  0.5407  0.6619  0.2278
  187SAPI    HS21462   5.293   2.276   6.669  0.6532 -0.6984  1.6400
  187SAPI   O2121463   5.452   2.400   6.717  0.0570 -0.0654  0.0895
  187SAPI   C2121464   5.371   2.504   6.702 -0.2847  0.5320 -0.0176
  187SAPI   O2221465   5.262   2.497   6.654  0.2056 -0.2184  0.3605
  187SAPI   C2221466   5.440   2.625   6.769 -0.3572 -0.2255 -0.6509
  187SAPI   H2R21467   5.509   2.594   6.851  0.8688  1.8736 -0.8397
  187SAPI   H2S21468   5.505   2.673   6.693 -1.2839  0.3209 -1.1092
  187SAPI    C321469   5.452   2.163   6.757  1.2193 -0.4773 -0.4940
  187SAPI    HX21470   5.560   2.141   6.745  1.5919 -0.2324  2.0450
  187SAPI    HY21471   5.420   2.071   6.705  3.3233 -1.7160  0.3544
  187SAPI   O3121472   5.409   2.171   6.893  0.1935 -0.1266  1.0543
  187SAPI   C3121473   5.283   2.170   6.912 -0.3328  0.3004  0.4347
  187SAPI   O3221474   5.199   2.150   6.828 -0.9887  0.2191  0.1654
  187SAPI   C3221475   5.258   2.184   7.069 -0.2952 -0.4562 -0.1042
  187SAPI   H2X21476   5.336   2.123   7.119  0.8247 -0.0049 -1.2500
  187SAPI   H2Y21477   5.163   2.128   7.081  0.8477 -2.6037 -0.7914
  187SAPI   C2321478   5.331   2.712   6.826 -0.0402  0.2495 -0.4188
  187SAPI   H3R21479   5.260   2.652   6.886 -1.6110  1.1391 -1.3263
  187SAPI   H3S21480   5.268   2.764   6.750  0.3076  0.7312 -0.3855
  187SAPI   C2421481   5.372   2.822   6.927 -0.0990 -0.4384  0.4246
  187SAPI   H4R21482   5.277   2.863   6.968  0.5823 -0.2409  1.8476
  187SAPI   H4S21483   5.420   2.906   6.872  0.2468  1.4979  3.5309
  187SAPI   C2521484   5.460   2.778   7.036  0.2867 -0.3159  0.5198
  187SAPI   H5R21485   5.565   2.755   7.012  0.3996 -0.5110  1.1889
  187SAPI   C2621486   5.426   2.749   7.166 -0.6114 -0.3230  0.0630
  187SAPI   H6R21487   5.505   2.714   7.235  0.0339  2.8795  1.0058
  187SAPI   C2721488   5.292   2.760   7.235 -0.0281 -0.5113  0.3575
  187SAPI   H7R21489   5.248   2.659   7.252 -2.8520  1.0040  2.2781
  187SAPI   H7S21490   5.218   2.806   7.166  0.1038 -0.4296  0.2712
  187SAPI   C2821491   5.309   2.829   7.370 -0.3475  0.9103 -0.0657
  187SAPI   H8R21492   5.334   2.936   7.365 -2.6977  1.5334  0.8466
  187SAPI   C2921493   5.308   2.763   7.483 -0.3767 -0.6108 -0.6439
  187SAPI   H9R21494   5.321   2.819   7.577 -3.8333  0.2579 -0.6300
  187SAPI  C21021495   5.284   2.611   7.501  0.0786  0.6709 -0.5944
  187SAPI  H10R21496   5.313   2.568   7.599 -1.3797  0.1823 -0.3679
  187SAPI  H10S21497   5.337   2.550   7.425  1.0196 -0.3386  0.8442
  187SAPI  C21121498   5.139   2.569   7.473  0.7413 -0.3897  0.4164
  187SAPI  H11R21499   5.103   2.600   7.373  2.0644  0.0594  0.0615
  187SAPI  C21221500   5.058   2.507   7.560  0.3047 -0.3538 -0.3667
  187SAPI  H12R21501   4.950   2.503   7.538 -0.1509  0.4848  1.6232
  187SAPI  C21321502   5.077   2.466   7.698  0.0436 -0.5744 -0.7748
  187SAPI  H13R21503   5.174   2.414   7.712  0.5587  0.2724 -1.1667
  187SAPI  H13S21504   4.999   2.392   7.726 -0.0112  0.3574  1.6582
  187SAPI  C21421505   5.073   2.579   7.798 -0.2260 -0.4718  0.6240
  187SAPI  H14R21506   5.089   2.683   7.765  0.8499 -0.7857  0.1430
  187SAPI  C21521507   5.048   2.564   7.933  0.0900 -0.6411  0.8197
  187SAPI  H15R21508   5.054   2.656   7.993 -0.6092 -0.6047  0.8379
  187SAPI  C21621509   5.028   2.443   8.008 -0.0189 -0.5066  0.2871
  187SAPI  H16R21510   5.109   2.432   8.083 -0.4837 -2.5497  0.5054
  187SAPI  H16S21511   5.048   2.353   7.947 -1.1010 -1.3799  1.1953
  187SAPI  C21721512   4.893   2.427   8.087  0.1866 -0.4776  0.0744
  187SAPI  H17R21513   4.810   2.432   8.014  1.5994 -1.9997 -1.7058
  187SAPI  H17S21514   4.893   2.518   8.149  0.6366  1.2276 -2.3311
  187SAPI  C21821515   4.869   2.309   8.179  0.3027  0.2383  0.5430
  187SAPI  H18R21516   4.864   2.207   8.134  0.5534  0.2438  0.5029
  187SAPI  H18S21517   4.766   2.320   8.219 -0.4497 -0.7434 -1.0485
  187SAPI  C21921518   4.958   2.318   8.302 -0.2988 -0.5508  0.4985
  187SAPI  H19R21519   4.976   2.424   8.330 -0.8502 -0.2816 -0.1240
  187SAPI  H19S21520   5.053   2.269   8.271  0.6813  0.7934  1.3562
  187SAPI  C22021521   4.878   2.256   8.413  0.6199  0.3414 -0.7193
  187SAPI  H20R21522   4.864   2.147   8.402 -3.0150  0.6698  0.0670
  187SAPI  H20S21523   4.780   2.308   8.409  0.3570 -0.1516 -0.6406
  187SAPI  H20T21524   4.931   2.276   8.509  1.3368 -0.4814 -0.9360
  187SAPI   C3321525   5.270   2.327   7.125 -0.3198  0.2679 -0.3794
  187SAPI   H3X21526   5.375   2.351   7.098 -0.4479  1.7371  0.4000
  187SAPI   H3Y21527   5.275   2.318   7.235  2.3355 -2.2835 -0.6556
  187SAPI   C3421528   5.176   2.423   7.063 -0.1689  0.1331  0.2796
  187SAPI   H4X21529   5.175   2.431   6.953 -2.5150  0.9179  0.3291
  187SAPI   H4Y21530   5.211   2.524   7.093 -0.9152  0.7888 -0.9927
  187SAPI   C3521531   5.035   2.395   7.119 -0.2844  0.7617 -0.0789
  187SAPI   H5X21532   5.023   2.402   7.229 -0.9091 -0.3656 -0.0650
  187SAPI   H5Y21533   5.009   2.288   7.101  0.4549  0.8547 -1.8056
  187SAPI   C3621534   4.924   2.480   7.053  0.5173 -0.0799  0.3583
  187SAPI   H6X21535   4.896   2.421   6.963 -0.2601  0.0398  0.5172
  187SAPI   H6Y21536   4.972   2.575   7.019  0.3836 -1.1243 -2.9793
  187SAPI   C3721537   4.811   2.521   7.152  0.0046 -0.6438  0.0142
  187SAPI   H7X21538   4.866   2.545   7.245  1.7407 -0.6188 -1.0116
  187SAPI   H7Y21539   4.750   2.429   7.169 -0.2022 -0.6971 -1.0189
  187SAPI   C3821540   4.720   2.628   7.096  0.0660  0.8377 -0.7888
  187SAPI   H8X21541   4.669   2.588   7.006  1.4295 -1.9692 -0.3906
  187SAPI   H8Y21542   4.771   2.722   7.067  0.4851  1.2160  1.0828
  187SAPI   C3921543   4.606   2.657   7.197  0.3789  0.2708 -0.1451
  187SAPI   H9X21544   4.560   2.558   7.220 -1.8624  1.4765  0.6622
  187SAPI   H9Y21545   4.532   2.726   7.152  0.1762  0.6664  0.7788
  187SAPI  C31021546   4.658   2.726   7.328 -0.6168  0.2058  0.3699
  187SAPI  H10X21547   4.716   2.818   7.304 -2.7119  1.2535 -0.7770
  187SAPI  H10Y21548   4.722   2.653   7.383 -1.2353 -0.2788  0.4444
  187SAPI  C31121549   4.551   2.766   7.435 -1.4230 -0.2328  0.6329
  187SAPI  H11X21550   4.491   2.673   7.442 -1.1891 -0.5139 -0.8482
  187SAPI  H11Y21551   4.491   2.859   7.422 -1.6279 -0.0868  2.5724
  187SAPI  C31221552   4.622   2.775   7.576  0.1183  0.2124  0.6269
  187SAPI  H12X21553   4.661   2.879   7.573 -2.1619  1.1592  2.1117
  187SAPI  H12Y21554   4.703   2.700   7.586  0.1124 -0.0399 -1.1838
  187SAPI  C31321555   4.532   2.755   7.692  0.3006 -0.0702  0.0613
  187SAPI  H13X21556   4.480   2.659   7.669  1.2292 -0.8134  1.0025
  187SAPI  H13Y21557   4.441   2.819   7.694  0.7416  0.5540  0.1488
  187SAPI  C31421558   4.599   2.735   7.825 -0.2408  0.4156 -0.3052
  187SAPI  H14X21559   4.633   2.836   7.857  0.0672 -0.4534  2.2045
  187SAPI  H14Y21560   4.692   2.677   7.807 -0.3684 -0.2002  1.0011
  187SAPI  C31521561   4.508   2.675   7.924  0.1307  0.0877  0.2279
  187SAPI  H15X21562   4.473   2.577   7.886 -0.5380 -1.0563  3.6405
  187SAPI  H15Y21563   4.419   2.739   7.940  1.6404  2.3372 -0.1805
  187SAPI  C31621564   4.586   2.649   8.052  0.1015 -0.0574  0.1876
  187SAPI  H16X21565   4.692   2.676   8.034  0.4636 -0.7020  1.3047
  187SAPI  H16Y21566   4.591   2.539   8.067 -1.1556 -0.0655  0.5719
  187SAPI  C31721567   4.551   2.729   8.185 -0.0595  0.2720 -0.0543
  187SAPI  H17X21568   4.452   2.703   8.228  0.7839 -0.2160  1.6032
  187SAPI  H17Y21569   4.543   2.838   8.165 -3.8019 -0.2576 -1.9576
  187SAPI  C31821570   4.658   2.700   8.293  1.5170 -0.1612 -0.1933
  187SAPI  H18X21571   4.755   2.733   8.250  0.7514  1.2299 -0.8633
  187SAPI  H18Y21572   4.666   2.589   8.290 -1.5052 -0.4150  0.0417
  187SAPI  H18Z21573   4.634   2.753   8.388  0.4996 -0.5794 -0.2135
  188SAPI   C1221574   6.167   6.083   6.460 -0.2208  0.2071 -0.6801
  188SAPI    H221575   6.159   6.030   6.557  3.3152  0.0621 -0.3828
  188SAPI    O221576   6.035   6.135   6.446  0.1988  0.3433  0.8582
  188SAPI   HO221577   5.980   6.062   6.414  3.9302 -0.8766 -3.2611
  188SAPI   C1321578   6.271   6.193   6.468 -0.4654  0.5740 -1.3154
  188SAPI    H321579   6.369   6.143   6.477 -0.2388  1.6290  3.1475
  188SAPI    O321580   6.261   6.271   6.590 -0.0941  0.2561  0.6447
  188SAPI   HO321581   6.201   6.343   6.572 -0.6616 -0.6309 -1.1609
  188SAPI   C1421582   6.276   6.269   6.341 -0.7121 -0.4967 -0.2255
  188SAPI    H421583   6.171   6.305   6.336 -1.4111 -2.2863  1.2798
  188SAPI    O421584   6.365   6.383   6.348  0.5690 -0.0573  0.4950
  188SAPI   HO421585   6.324   6.454   6.399 -1.3909 -1.5099  1.0150
  188SAPI   C1521586   6.301   6.177   6.217  0.8281 -0.2927 -0.5847
  188SAPI    H521587   6.404   6.135   6.222  0.8561  0.0381  2.0589
  188SAPI    O521588   6.303   6.260   6.102  0.1752  0.0732 -0.0272
  188SAPI   HO521589   6.385   6.310   6.105  1.2651 -1.5613 -1.5767
  188SAPI   C1621590   6.207   6.053   6.208  0.1104 -0.2739 -0.4798
  188SAPI    H621591   6.107   6.084   6.173 -0.0355  0.0243  0.2035
  188SAPI    O621592   6.246   5.962   6.107 -0.5854  0.0764  0.5870
  188SAPI   HO621593   6.321   5.912   6.139 -0.2224  0.4422  0.3210
  188SAPI   C1121594   6.208   5.988   6.347  0.3550 -0.0842 -0.5787
  188SAPI    H121595   6.311   5.952   6.366  0.5366 -0.1069 -1.6059
  188SAPI     P21596   6.162   5.727   6.358  0.0456 -0.0309 -0.1668
  188SAPI   O1321597   6.304   5.724   6.316 -0.0050  0.0345 -0.2002
  188SAPI   O1421598   6.070   5.628   6.301 -0.5347 -1.0533  0.2703
  188SAPI   O1221599   6.111   5.885   6.343  1.1110 -0.2967  0.1752
  188SAPI   O1121600   6.165   5.706   6.516  0.4211 -0.7006  0.1210
  188SAPI    C121601   6.048   5.668   6.590 -0.3886  0.1816 -0.2689
  188SAPI    HA21602   5.990   5.756   6.624 -0.5808  0.3565 -1.0323
  188SAPI    HB21603   5.981   5.596   6.538  0.0546  0.9014 -1.8831
  188SAPI    C221604   6.094   5.599   6.727 -0.0178 -0.4126 -0.2894
  188SAPI    HS21605   6.004   5.597   6.793  0.3752  1.6611  0.3600
  188SAPI   O2121606   6.193   5.675   6.796  0.4412  0.2525  0.0319
  188SAPI   C2121607   6.137   5.782   6.849  0.6003 -0.6859  0.5343
  188SAPI   O2221608   6.015   5.812   6.842 -0.4875  0.1399 -0.6290
  188SAPI   C2221609   6.239   5.875   6.909  0.5561  0.1464  0.3238
  188SAPI   H2R21610   6.294   5.917   6.821 -2.3349 -1.2705 -2.2559
  188SAPI   H2S21611   6.186   5.959   6.957  2.2213  0.1196  2.2673
  188SAPI    C321612   6.137   5.456   6.688 -0.3794 -0.2821 -0.7173
  188SAPI    HX21613   6.228   5.474   6.628 -0.7766 -2.1093 -1.9190
  188SAPI    HY21614   6.068   5.394   6.627 -0.8443 -0.2094 -0.2719
  188SAPI   O3121615   6.178   5.377   6.801 -0.1707 -0.6128 -0.6818
  188SAPI   C3121616   6.092   5.322   6.876 -0.4585  1.1664  0.5407
  188SAPI   O3221617   5.974   5.334   6.874  0.0254  0.0583  0.1981
  188SAPI   C3221618   6.162   5.234   6.981 -0.0629 -0.4139 -0.1642
  188SAPI   H2X21619   6.257   5.186   6.948 -0.1486 -0.3310 -0.5375
  188SAPI   H2Y21620   6.089   5.155   7.004  0.1350 -0.1753  1.3537
  188SAPI   C2321621   6.343   5.809   7.009 -0.3760 -0.7820  0.3412
  188SAPI   H3R21622   6.421   5.884   7.034 -0.1829  0.1178 -2.7834
  188SAPI   H3S21623   6.392   5.723   6.958 -0.9279 -1.3382  0.7367
  188SAPI   C2421624   6.276   5.758   7.136  0.3854 -0.2331 -0.2441
  188SAPI   H4R21625   6.222   5.665   7.107 -0.3870 -0.0393  0.5634
  188SAPI   H4S21626   6.193   5.824   7.170 -2.6549 -3.4184 -1.1129
  188SAPI   C2521627   6.376   5.727   7.238  0.1717  0.0677 -0.0190
  188SAPI   H5R21628   6.457   5.663   7.200 -0.0534  0.1082 -0.5758
  188SAPI   C2621629   6.362   5.751   7.372 -0.5619  0.3157 -0.1638
  188SAPI   H6R21630   6.449   5.733   7.437  1.9211  3.1716 -2.5227
  188SAPI   C2721631   6.250   5.828   7.439 -0.4451 -0.4529 -0.2661
  188SAPI   H7R21632   6.177   5.866   7.364  1.2184 -0.0856 -1.7588
  188SAPI   H7S21633   6.294   5.912   7.496 -1.0372  0.7155 -1.4956
  188SAPI   C2821634   6.181   5.726   7.526 -0.2586  0.5390  0.5334
  188SAPI   H8R21635   6.108   5.657   7.482 -1.1009  2.2572 -0.8543
  188SAPI   C2921636   6.195   5.731   7.662  0.6592 -0.2242 -0.1251
  188SAPI   H9R21637   6.128   5.675   7.729  0.8181 -0.2597  0.0050
  188SAPI  C21021638   6.287   5.833   7.733 -0.0528  0.9254  0.3086
  188SAPI  H10R21639   6.223   5.923   7.740 -2.1889 -0.7284  2.9193
  188SAPI  H10S21640   6.372   5.865   7.669  1.3845  1.1431  2.2914
  188SAPI  C21121641   6.332   5.795   7.869  0.1362  0.9078  0.0870
  188SAPI  H11R21642   6.439   5.770   7.879  0.0703  0.5274 -0.1366
  188SAPI  C21221643   6.261   5.793   7.986  0.2271 -0.2361 -0.9272
  188SAPI  H12R21644   6.304   5.776   8.086  1.0331  0.1901 -1.1977
  188SAPI  C21321645   6.115   5.828   8.000 -0.1796  0.0955  0.1821
  188SAPI  H13R21646   6.056   5.738   8.028  2.2173 -1.8783 -0.9623
  188SAPI  H13S21647   6.065   5.851   7.904 -3.0351 -0.5803  1.4545
  188SAPI  C21421648   6.089   5.945   8.095  0.2716  0.3881 -0.0909
  188SAPI  H14R21649   6.089   6.040   8.039 -1.0590  0.2767 -0.2964
  188SAPI  C21521650   6.078   5.944   8.227 -0.3579 -0.1719  0.6294
  188SAPI  H15R21651   6.052   6.032   8.288  1.6853 -1.5476  3.5834
  188SAPI  C21621652   6.104   5.820   8.315  0.4088  0.2340  1.0140
  188SAPI  H16R21653   6.126   5.732   8.251 -1.9215 -0.3536  0.9635
  188SAPI  H16S21654   6.008   5.798   8.367 -0.2293  2.1960  0.7380
  188SAPI  C21721655   6.218   5.824   8.424  0.6720 -0.6720  1.0847
  188SAPI  H17R21656   6.188   5.906   8.492  0.8727 -1.8236  2.5712
  188SAPI  H17S21657   6.312   5.860   8.375 -0.6070 -1.4620 -2.0989
  188SAPI  C21821658   6.251   5.691   8.490 -0.3607  0.6485 -0.1649
  188SAPI  H18R21659   6.159   5.640   8.526  1.5229  0.0191  4.0512
  188SAPI  H18S21660   6.290   5.710   8.593 -0.2453 -2.2273  0.3583
  188SAPI  C21921661   6.351   5.604   8.414  0.6872 -0.1751 -0.1654
  188SAPI  H19R21662   6.432   5.678   8.395  1.7330 -1.5386 -1.2306
  188SAPI  H19S21663   6.317   5.570   8.314 -0.3818  1.0992 -0.2438
  188SAPI  C22021664   6.408   5.475   8.480  0.4787  0.4256  0.2864
  188SAPI  H20R21665   6.472   5.428   8.403 -1.2555  0.6913 -1.3693
  188SAPI  H20S21666   6.317   5.414   8.502  0.0994  0.5038 -1.0636
  188SAPI  H20T21667   6.462   5.513   8.570  0.0811 -1.1006  1.1889
  188SAPI   C3321668   6.178   5.321   7.110  0.3762 -0.0970  0.6307
  188SAPI   H3X21669   6.079   5.353   7.149  0.9663 -0.1942  2.2547
  188SAPI   H3Y21670   6.239   5.411   7.085  0.0995 -0.4773 -1.4691
  188SAPI   C3421671   6.241   5.243   7.227 -0.0165  0.4542  0.0283
  188SAPI   H4X21672   6.342   5.216   7.190 -1.0671 -1.6759 -1.4078
  188SAPI   H4Y21673   6.185   5.149   7.244 -1.1353  0.7505 -1.8839
  188SAPI   C3521674   6.244   5.334   7.351  0.0642  0.5675  0.4769
  188SAPI   H5X21675   6.140   5.333   7.389  0.3325 -0.7491  1.1856
  188SAPI   H5Y21676   6.273   5.433   7.309  0.7128  1.2671  2.4981
  188SAPI   C3621677   6.346   5.295   7.457  0.9862 -0.1262 -0.6753
  188SAPI   H6X21678   6.438   5.296   7.396  1.8305 -0.8153  0.5549
  188SAPI   H6Y21679   6.326   5.190   7.488 -2.0966 -0.1292 -2.5399
  188SAPI   C3721680   6.358   5.394   7.576 -0.5504 -0.5987  0.0629
  188SAPI   H7X21681   6.277   5.469   7.568  0.2129  0.5699  2.6028
  188SAPI   H7Y21682   6.451   5.455   7.575 -1.2725  0.5270 -1.2469
  188SAPI   C3821683   6.348   5.323   7.707 -0.3025 -0.4404  0.1041
  188SAPI   H8X21684   6.441   5.267   7.731 -1.4405 -2.3004  0.2024
  188SAPI   H8Y21685   6.263   5.253   7.708  0.4384 -1.4017 -1.7238
  188SAPI   C3921686   6.330   5.435   7.812 -0.4979  0.8877 -0.1505
  188SAPI   H9X21687   6.242   5.501   7.800  0.3464  1.8532 -1.2146
  188SAPI   H9Y21688   6.414   5.509   7.812 -1.0778  1.5672  1.9473
  188SAPI  C31021689   6.346   5.370   7.955 -0.1925 -0.7786  0.6439
  188SAPI  H10X21690   6.316   5.444   8.032 -1.2808  0.6342 -1.0906
  188SAPI  H10Y21691   6.444   5.326   7.983 -1.2151 -2.1366  2.1834
  188SAPI  C31121692   6.244   5.256   7.975  0.8159  0.1311 -0.0926
  188SAPI  H11X21693   6.283   5.168   7.920 -2.1031 -0.6334 -1.0588
  188SAPI  H11Y21694   6.144   5.278   7.932 -0.7200 -2.1825  2.1364
  188SAPI  C31221695   6.220   5.221   8.120  0.6994 -0.3084  0.2002
  188SAPI  H12X21696   6.165   5.299   8.176 -1.0655  0.2600 -2.2410
  188SAPI  H12Y21697   6.319   5.216   8.172  0.8544  1.7592  0.1644
  188SAPI  C31321698   6.141   5.090   8.145 -0.1828  0.9570 -0.9268
  188SAPI  H13X21699   6.209   5.008   8.112 -1.8071 -0.3819 -1.0310
  188SAPI  H13Y21700   6.059   5.091   8.070 -2.1637  1.1785  1.1981
  188SAPI  C31421701   6.087   5.062   8.284 -0.3633  0.3347  0.4727
  188SAPI  H14X21702   6.166   5.064   8.362  0.9509 -1.7500 -0.7384
  188SAPI  H14Y21703   6.053   4.957   8.295 -0.1383  0.3750  1.5689
  188SAPI  C31521704   5.963   5.138   8.321 -0.2307  0.3140  0.9755
  188SAPI  H15X21705   5.913   5.166   8.225  0.8121  0.9067  0.5939
  188SAPI  H15Y21706   5.991   5.231   8.376  1.8409  1.6574 -2.1688
  188SAPI  C31621707   5.867   5.046   8.409 -0.3211  0.4165  0.5874
  188SAPI  H16X21708   5.930   4.991   8.482 -2.1771 -3.5624 -0.6654
  188SAPI  H16Y21709   5.837   4.967   8.337  2.2408  1.0369 -1.2089
  188SAPI  C31721710   5.746   5.098   8.471  0.5017  0.1310 -0.4675
  188SAPI  H17X21711   5.786   5.168   8.547  1.4910  2.2898 -2.9033
  188SAPI  H17Y21712   5.699   5.012   8.523 -1.1173  1.6631  0.6752
  188SAPI  C31821713   5.645   5.154   8.371  0.8290 -0.0036 -0.0467
  188SAPI  H18X21714   5.679   5.220   8.289 -0.0887  0.5894  0.0445
  188SAPI  H18Y21715   5.567   5.213   8.423  0.6273  0.7094 -1.1464
  188SAPI  H18Z21716   5.597   5.072   8.315  1.1935 -0.5601  0.4443
  189POPC     N21717   6.486   0.054  11.298  0.2851  0.1113  0.4020
  189POPC   C1221718   6.502   0.034  11.152  0.3561  0.7477  0.2585
  189POPC  H12A21719   6.562  -0.055  11.138  0.2446  0.3765  1.9741
  189POPC  H12B21720   6.555   0.117  11.109  1.2107 -0.1249 -0.4020
  189POPC   C1321721   6.614   0.088  11.365 -0.0029  0.0316  0.4949
  189POPC  H13A21722   6.596   0.123  11.466 -2.8609  1.8457 -0.5724
  189POPC  H13B21723   6.669  -0.004  11.377 -0.7015 -0.5938 -0.9459
  189POPC  H13C21724   6.678   0.159  11.316 -0.0515 -0.5242 -0.3886
  189POPC   C1421725   6.393   0.163  11.332  0.5317  0.3238  0.3449
  189POPC  H14A21726   6.364   0.163  11.436 -1.4376 -1.0894 -0.1953
  189POPC  H14B21727   6.449   0.256  11.325  1.3901 -0.2211 -0.1498
  189POPC  H14C21728   6.305   0.172  11.271 -0.8373  0.3692  2.2823
  189POPC   C1521729   6.427  -0.063  11.366  0.6734 -0.7650  0.4450
  189POPC  H15A21730   6.321  -0.076  11.350  0.5867  1.6996 -1.0913
  189POPC  H15B21731   6.441  -0.060  11.473 -1.2819 -2.8098  0.8110
  189POPC  H15C21732   6.476  -0.156  11.339 -2.0428 -2.2140  0.2768
  189POPC   C1121733   6.376   0.018  11.066  0.6881  0.1476  0.5655
  189POPC  H11A21734   6.328  -0.063  11.125 -1.5062  1.6904  0.9732
  189POPC  H11B21735   6.399  -0.019  10.964 -1.5924  1.0670 -0.3065
  189POPC     P21736   6.337   0.254  10.976  0.1002 -0.2890  0.4871
  189POPC   O1321737   6.458   0.313  11.032  0.6549 -0.0826  0.3524
  189POPC   O1421738   6.226   0.342  10.951 -0.2012  0.4827 -0.0319
  189POPC   O1221739   6.288   0.127  11.069 -0.1871  0.2983  0.2268
  189POPC   O1121740   6.382   0.191  10.839 -0.2368  0.1096 -0.4525
  189POPC    C121741   6.360   0.250  10.710  0.3072  0.0623  0.2256
  189POPC    HA21742   6.434   0.208  10.639  1.7832  2.2396  0.4065
  189POPC    HB21743   6.379   0.359  10.718 -0.1572  0.1385  0.3366
  189POPC    C221744   6.212   0.241  10.650 -0.0596 -0.1400  0.4891
  189POPC    HS21745   6.138   0.278  10.723 -1.4050  2.2060 -1.9860
  189POPC   O2121746   6.201   0.108  10.616 -0.0687  0.5770 -0.8539
  189POPC   C2121747   6.078   0.058  10.591  0.8790  0.7740 -0.1557
  189POPC   O2221748   5.975   0.114  10.609 -0.2622  0.6435 -0.0019
  189POPC   C2221749   6.095  -0.088  10.559  0.6498  0.9518 -0.0834
  189POPC   H2R21750   6.000  -0.141  10.579  1.3272  0.3158  1.4631
  189POPC   H2S21751   6.170  -0.125  10.631  1.9208  3.1670 -0.2072
  189POPC    C321752   6.192   0.334  10.524  0.0149  0.1093 -0.1256
  189POPC    HX21753   6.182   0.442  10.548 -1.0407  0.4221 -1.9401
  189POPC    HY21754   6.090   0.311  10.489  0.0584 -0.1121 -0.1032
  189POPC   O3121755   6.299   0.311  10.419  0.1470 -0.4641  0.3372
  189POPC   C3121756   6.288   0.216  10.324 -0.0295 -0.3952  0.4162
  189POPC   O3221757   6.180   0.174  10.282  0.6534  0.2060  0.0684
  189POPC   C3221758   6.432   0.158  10.287  0.2826  0.0763 -0.5231
  189POPC   H2X21759   6.442   0.064  10.344 -0.0819 -0.3893 -1.2234
  189POPC   H2Y21760   6.510   0.229  10.323  0.9481  0.5965 -2.8867
  189POPC   C2321761   6.132  -0.109  10.412  0.0495 -0.1612  0.1998
  189POPC   H3R21762   6.232  -0.063  10.397  0.5896 -0.7955  1.7599
  189POPC   H3S21763   6.061  -0.054  10.347  1.3004  0.6448 -0.5259
  189POPC   C2421764   6.131  -0.257  10.383 -0.3778 -0.2020  0.1637
  189POPC   H4R21765   6.030  -0.301  10.397 -0.8244  0.6796 -0.2335
  189POPC   H4S21766   6.200  -0.300  10.458 -1.1741  0.5823  1.3749
  189POPC   C2521767   6.189  -0.301  10.250 -0.2872  0.4189 -0.8988
  189POPC   H5R21768   6.288  -0.352  10.254 -0.8470 -0.6541 -0.5998
  189POPC   H5S21769   6.209  -0.210  10.190 -0.0864  1.4338  0.6713
  189POPC   C2621770   6.091  -0.395  10.175  0.5084 -0.0910  0.0509
  189POPC   H6R21771   5.988  -0.353  10.179  0.5149  0.0912 -1.5254
  189POPC   H6S21772   6.084  -0.490  10.232 -1.3514 -0.4252 -0.7104
  189POPC   C2721773   6.124  -0.433  10.034 -0.3214 -0.7887 -0.2830
  189POPC   H7R21774   6.218  -0.492  10.022  0.6688  0.4845  1.0773
  189POPC   H7S21775   6.157  -0.338   9.988 -0.8164 -0.9765 -1.0395
  189POPC   C2821776   6.002  -0.493   9.959  0.1257 -0.1682 -0.4929
  189POPC   H8R21777   5.922  -0.418   9.940 -0.6608 -0.8435  0.1410
  189POPC   H8S21778   5.955  -0.565  10.028  2.0397  0.1544  1.1959
  189POPC   C2921779   6.050  -0.559   9.833  0.1151 -0.2840 -0.3346
  189POPC   H9121780   6.123  -0.641   9.839 -0.6849 -0.8545  2.1196
  189POPC  C21021781   6.001  -0.540   9.705 -0.6993  0.9117  0.4895
  189POPC  H10121782   6.031  -0.617   9.633 -1.6601 -1.6180  2.7189
  189POPC  C21121783   5.898  -0.444   9.655  0.5756 -0.9188  0.5128
  189POPC  H11R21784   5.945  -0.343   9.652  0.0894 -0.7043  0.0840
  189POPC  H11S21785   5.815  -0.434   9.727  1.0278  1.5710  0.7566
  189POPC  C21221786   5.830  -0.485   9.518  0.5554  0.0198  0.3546
  189POPC  H12R21787   5.723  -0.458   9.507 -0.5614 -3.5454  1.6546
  189POPC  H12S21788   5.819  -0.595   9.517  0.6527  0.0063  0.6458
  189POPC  C21321789   5.916  -0.446   9.403 -0.0332 -0.7813 -0.2472
  189POPC  H13R21790   6.023  -0.470   9.416 -0.3715 -1.1943  1.9586
  189POPC  H13S21791   5.916  -0.337   9.382  2.3073 -0.7622 -0.2371
  189POPC  C21421792   5.873  -0.521   9.271 -0.0516  0.0370  0.1160
  189POPC  H14R21793   5.767  -0.493   9.251 -0.6408 -0.6251  2.2067
  189POPC  H14S21794   5.878  -0.627   9.302  1.0198 -1.1491 -3.8381
  189POPC  C21521795   5.956  -0.494   9.145  0.5400 -0.3509 -0.4787
  189POPC  H15R21796   6.050  -0.554   9.145  0.5666 -0.3074 -1.2074
  189POPC  H15S21797   5.980  -0.386   9.134  0.5970 -0.6144 -3.1055
  189POPC  C21621798   5.881  -0.531   9.011 -0.5143  0.4239 -0.5528
  189POPC  H16R21799   5.791  -0.465   9.012  0.3465  1.6016  0.6503
  189POPC  H16S21800   5.847  -0.637   9.017  1.1885 -0.1395 -0.6548
  189POPC  C21721801   5.961  -0.500   8.881  0.3200  0.0657  1.1389
  189POPC  H17R21802   6.037  -0.580   8.865 -2.1708 -1.9666 -1.0082
  189POPC  H17S21803   6.002  -0.398   8.893 -0.5917  0.6571 -0.5797
  189POPC  C21821804   5.864  -0.506   8.763  0.4957  0.1574 -0.9099
  189POPC  H18R21805   5.795  -0.593   8.767  2.3829 -1.2722  2.4981
  189POPC  H18S21806   5.924  -0.497   8.670 -0.3227  2.9271 -1.2107
  189POPC  H18T21807   5.805  -0.412   8.757  3.1621  1.7360 -3.7997
  189POPC   C3321808   6.453   0.143  10.132 -0.3483 -0.0720  0.0363
  189POPC   H3X21809   6.564   0.149  10.124 -0.2886 -2.5414 -1.1528
  189POPC   H3Y21810   6.412   0.240  10.096  0.0341  0.5911  1.3530
  189POPC   C3421811   6.383   0.020  10.080 -0.1846  0.2770 -0.2072
  189POPC   H4X21812   6.277   0.037  10.108  0.0511  0.4779  0.5859
  189POPC   H4Y21813   6.411  -0.067  10.142 -4.4066 -1.7108 -0.9220
  189POPC   C3521814   6.394  -0.006   9.930 -0.1400 -0.0890 -0.6351
  189POPC   H5X21815   6.501  -0.032   9.917  0.3207  1.4195  0.0341
  189POPC   H5Y21816   6.367   0.077   9.861 -2.6378  0.8533  1.4003
  189POPC   C3621817   6.314  -0.127   9.887 -0.7895 -1.1425 -0.1245
  189POPC   H6X21818   6.211  -0.107   9.924 -0.0988  0.2853  1.0557
  189POPC   H6Y21819   6.361  -0.214   9.938  3.1219  0.5676 -0.6518
  189POPC   C3721820   6.304  -0.141   9.734 -0.3357 -0.0622 -0.4843
  189POPC   H7X21821   6.402  -0.109   9.691 -0.5318  0.9837 -0.1584
  189POPC   H7Y21822   6.241  -0.056   9.702 -3.5338 -2.5823 -1.1438
  189POPC   C3821823   6.242  -0.278   9.692  0.1468 -0.0663  0.2344
  189POPC   H8X21824   6.137  -0.278   9.728  0.0136 -0.2748 -0.1509
  189POPC   H8Y21825   6.288  -0.359   9.752 -1.3116  0.6235  2.3341
  189POPC   C3921826   6.263  -0.316   9.550  0.1268 -0.5503  0.2436
  189POPC   H9X21827   6.210  -0.412   9.535 -2.3570  0.5447  1.7234
  189POPC   H9Y21828   6.371  -0.335   9.531  0.5550  1.6777  0.3046
  189POPC  C31021829   6.223  -0.207   9.447 -0.0535 -0.3654  0.2039
  189POPC  H10X21830   6.286  -0.117   9.464 -0.8617  0.2661 -0.0835
  189POPC  H10Y21831   6.116  -0.179   9.457 -0.7483 -1.9195 -2.4038
  189POPC  C31121832   6.252  -0.248   9.301  0.4712 -0.5757 -0.6936
  189POPC  H11X21833   6.212  -0.349   9.281 -2.4652  0.3984  0.0147
  189POPC  H11Y21834   6.362  -0.240   9.288  0.3823  3.3471  0.1401
  189POPC  C31221835   6.177  -0.153   9.200 -0.0276  0.1059 -0.0013
  189POPC  H12X21836   6.187  -0.048   9.234 -0.7547  0.2086 -0.0886
  189POPC  H12Y21837   6.071  -0.185   9.195  0.4293 -1.3022 -1.2968
  189POPC  C31321838   6.238  -0.178   9.062 -0.4590 -0.5698 -0.6126
  189POPC  H13X21839   6.258  -0.284   9.036 -0.0041 -0.6174 -0.0667
  189POPC  H13Y21840   6.335  -0.124   9.062 -0.1728 -1.0702  0.4883
  189POPC  C31421841   6.155  -0.109   8.950 -0.0041 -0.3542  0.2306
  189POPC  H14X21842   6.130  -0.006   8.981 -1.0527 -0.9651  1.4501
  189POPC  H14Y21843   6.056  -0.159   8.953  0.3645 -1.1316 -0.2628
  189POPC  C31521844   6.218  -0.115   8.813  0.0328  0.4694  0.7638
  189POPC  H15X21845   6.325  -0.086   8.823  0.3996 -0.6168  0.1070
  189POPC  H15Y21846   6.171  -0.031   8.757  1.1969 -0.0476 -1.0574
  189POPC  C31621847   6.212  -0.240   8.727 -0.4004  0.0916  0.3222
  189POPC  H16X21848   6.225  -0.217   8.619 -0.7569 -1.4154 -0.0540
  189POPC  H16Y21849   6.122  -0.303   8.741  1.9766 -2.8097  3.3538
  189POPC  H16Z21850   6.305  -0.289   8.763 -1.2453 -3.1662 -1.7925
  190POPC     N21851   1.438   3.155  11.406 -0.4701  1.0193 -0.1599
  190POPC   C1221852   1.294   3.185  11.372  0.4827  0.2346  0.8031
  190POPC  H12A21853   1.283   3.287  11.337 -0.5109 -0.7080 -1.8068
  190POPC  H12B21854   1.232   3.171  11.460 -0.5986  1.1576  0.2112
  190POPC   C1321855   1.473   3.245  11.523 -0.5781 -0.1983 -0.4204
  190POPC  H13A21856   1.484   3.347  11.487  1.2831 -1.0865 -2.4617
  190POPC  H13B21857   1.393   3.249  11.596  0.2950 -0.1539  0.5314
  190POPC  H13C21858   1.568   3.216  11.564  0.4132  1.0305 -1.7621
  190POPC   C1421859   1.466   3.009  11.452 -0.3756 -0.4132 -0.0905
  190POPC  H14A21860   1.476   2.942  11.368 -1.3095  0.3615 -0.8460
  190POPC  H14B21861   1.554   2.992  11.512  1.5191 -0.4554 -2.7661
  190POPC  H14C21862   1.378   2.973  11.503  1.2475 -1.0293  2.3428
  190POPC   C1521863   1.530   3.180  11.288 -0.4749  0.3946  0.7354
  190POPC  H15A21864   1.631   3.147  11.309 -1.3556 -1.4600  2.2443
  190POPC  H15B21865   1.528   3.281  11.250 -1.5321 -0.3776 -1.3701
  190POPC  H15C21866   1.495   3.109  11.213  0.2874 -0.3371  1.0668
  190POPC   C1121867   1.222   3.109  11.264  0.0709  0.2020 -0.2700
  190POPC  H11A21868   1.111   3.119  11.273 -0.0856 -0.7853 -0.9833
  190POPC  H11B21869   1.238   3.000  11.271  0.4604  0.1350 -2.0602
  190POPC     P21870   1.238   3.296  11.082 -0.3492  0.2383  0.1466
  190POPC   O1321871   1.361   3.355  11.024 -0.0160  0.2201  0.5866
  190POPC   O1421872   1.167   3.362  11.194 -0.0402 -0.1673  0.4328
  190POPC   O1221873   1.274   3.150  11.140  0.4047  0.4723  0.6702
  190POPC   O1121874   1.130   3.262  10.974 -0.5734  0.1499 -0.2027
  190POPC    C121875   1.144   3.145  10.888  0.6643  0.3512  0.3369
  190POPC    HA21876   1.040   3.106  10.874  1.2308 -1.1877  0.3456
  190POPC    HB21877   1.201   3.061  10.932 -0.6112 -1.4437 -1.3246
  190POPC    C221878   1.211   3.181  10.756  0.8287 -0.3015 -0.6648
  190POPC    HS21879   1.317   3.205  10.782  0.1002  1.3995  0.7902
  190POPC   O2121880   1.136   3.290  10.695  0.7709 -0.0564 -0.0034
  190POPC   C2121881   1.209   3.365  10.614 -0.2447  0.3299 -0.0247
  190POPC   O2221882   1.320   3.345  10.576 -0.2642  0.2596  0.3286
  190POPC   C2221883   1.118   3.491  10.587  0.1513  0.4225 -0.5402
  190POPC   H2R21884   1.071   3.519  10.684 -1.6502 -2.8958 -0.3768
  190POPC   H2S21885   1.029   3.459  10.529 -0.9467  0.6761  0.9897
  190POPC    C321886   1.205   3.054  10.669  0.6374 -0.2733  0.3905
  190POPC    HX21887   1.101   3.017  10.666  0.3821  0.1133  2.9423
  190POPC    HY21888   1.253   2.969  10.723  0.3820 -0.9941 -0.5122
  190POPC   O3121889   1.272   3.072  10.540  0.6113 -0.2731  0.0036
  190POPC   C3121890   1.404   3.055  10.536  0.4241  0.2201  0.1338
  190POPC   O3221891   1.473   3.037  10.635 -0.3573 -0.4510 -0.0452
  190POPC   C3221892   1.460   3.056  10.395 -0.2057  0.1029 -0.2306
  190POPC   H2X21893   1.475   2.954  10.353 -0.1227  0.3387 -0.7777
  190POPC   H2Y21894   1.562   3.098  10.411 -0.7281  0.3335  2.7429
  190POPC   C2321895   1.189   3.620  10.526 -0.5421 -0.4569  0.2266
  190POPC   H3R21896   1.286   3.646  10.574 -1.0085  0.1072  0.8766
  190POPC   H3S21897   1.121   3.705  10.549  1.3654  1.5608 -1.3582
  190POPC   C2421898   1.210   3.614  10.375  0.1565  0.2211  0.3574
  190POPC   H4R21899   1.255   3.515  10.350 -0.1322  0.0323  0.5793
  190POPC   H4S21900   1.289   3.683  10.339  0.3582  0.2031  0.7632
  190POPC   C2521901   1.078   3.623  10.305 -0.2740  0.1366 -0.6980
  190POPC   H5R21902   1.044   3.728  10.306 -0.0102  0.2181  0.7943
  190POPC   H5S21903   1.002   3.563  10.359  1.8201 -0.3851  1.7647
  190POPC   C2621904   1.080   3.590  10.154 -0.6383  0.3637  0.2240
  190POPC   H6R21905   1.073   3.481  10.135  0.3594  0.3185  0.1229
  190POPC   H6S21906   1.175   3.628  10.112 -1.4118 -0.6855 -2.5984
  190POPC   C2721907   0.957   3.646  10.089 -0.0734  0.3303  0.5461
  190POPC   H7R21908   0.964   3.756  10.101 -2.4404  0.5240  0.2646
  190POPC   H7S21909   0.865   3.626  10.148  0.4403 -3.0358  0.3474
  190POPC   C2821910   0.929   3.607   9.943 -0.0872  0.8229  0.5260
  190POPC   H8R21911   0.857   3.682   9.904 -1.2083 -0.4290  0.1393
  190POPC   H8S21912   0.879   3.508   9.939  0.0388  0.7639  0.4105
  190POPC   C2921913   1.053   3.609   9.860 -0.1657  0.0813  0.4041
  190POPC   H9121914   1.141   3.559   9.904  1.7185  1.6534 -1.4780
  190POPC  C21021915   1.076   3.685   9.753  0.1788  0.3231  0.0340
  190POPC  H10121916   1.173   3.670   9.703 -0.4146 -2.7484 -0.2545
  190POPC  C21121917   0.982   3.780   9.688 -0.0644 -0.0396  0.3135
  190POPC  H11R21918   1.045   3.869   9.668  0.9002 -0.9749 -0.8737
  190POPC  H11S21919   0.906   3.816   9.760 -0.7089  0.5246 -0.6489
  190POPC  C21221920   0.919   3.716   9.571  0.0599  0.1421 -0.2223
  190POPC  H12R21921   0.822   3.766   9.552  0.6018  1.3009 -0.0270
  190POPC  H12S21922   0.899   3.608   9.582  1.6874 -0.4357 -2.7605
  190POPC  C21321923   0.991   3.738   9.430 -0.0250 -0.0201  0.0205
  190POPC  H13R21924   1.093   3.698   9.416 -0.8863 -2.4000  0.4411
  190POPC  H13S21925   1.008   3.846   9.407 -1.3263  0.6218  1.9515
  190POPC  C21421926   0.914   3.678   9.309  0.3980 -0.1859 -0.2499
  190POPC  H14R21927   0.816   3.731   9.305 -0.5134 -1.7541  0.8519
  190POPC  H14S21928   0.902   3.571   9.335  2.3460 -0.6005 -1.0205
  190POPC  C21521929   0.988   3.693   9.173 -0.0156 -0.3532  0.4771
  190POPC  H15R21930   1.074   3.623   9.181  1.1856  1.0698  0.3490
  190POPC  H15S21931   1.018   3.797   9.148 -2.6956  0.0860 -1.0808
  190POPC  C21621932   0.893   3.651   9.056  0.0426 -0.0501 -0.4342
  190POPC  H16R21933   0.866   3.543   9.062 -1.4120  0.3330 -0.0540
  190POPC  H16S21934   0.950   3.659   8.961  0.1916 -1.6695 -0.4931
  190POPC  C21721935   0.765   3.740   9.044  0.8743 -1.0406 -0.4256
  190POPC  H17R21936   0.793   3.846   9.063  1.6366 -1.6756  2.1494
  190POPC  H17S21937   0.679   3.709   9.108  0.6163  1.7403  0.6790
  190POPC  C21821938   0.709   3.737   8.898  0.0915  0.5100 -0.2948
  190POPC  H18R21939   0.619   3.803   8.897 -1.4501 -1.5449 -1.5213
  190POPC  H18S21940   0.687   3.631   8.871  1.9038  0.5319 -1.9123
  190POPC  H18T21941   0.792   3.773   8.833  0.0813 -0.9167 -1.1287
  190POPC   C3321942   1.378   3.150  10.302  0.1641 -0.3445  0.9901
  190POPC   H3X21943   1.368   3.250  10.350 -2.6234 -1.2722  2.4780
  190POPC   H3Y21944   1.277   3.103  10.299  1.9575 -4.3970  2.0231
  190POPC   C3421945   1.427   3.161  10.155  0.2021  0.2604 -0.5364
  190POPC   H4X21946   1.454   3.064  10.109  0.4420  1.0127 -2.0235
  190POPC   H4Y21947   1.519   3.224  10.149  0.7919 -0.3158  2.0730
  190POPC   C3521948   1.318   3.211  10.056  0.7271 -0.0670  0.3617
  190POPC   H5X21949   1.259   3.291  10.105  2.9437  1.3877  0.6899
  190POPC   H5Y21950   1.235   3.138  10.038 -0.2564  0.7841  1.3813
  190POPC   C3621951   1.374   3.238   9.916  0.6187  0.5131  0.4036
  190POPC   H6X21952   1.460   3.168   9.912 -0.0442 -0.4412  2.1515
  190POPC   H6Y21953   1.423   3.337   9.909  0.5363  0.6254  1.3445
  190POPC   C3721954   1.286   3.202   9.787 -1.1200  0.4016 -0.1224
  190POPC   H7X21955   1.234   3.104   9.791  1.3962 -1.0218 -0.9385
  190POPC   H7Y21956   1.349   3.208   9.696 -3.1210 -1.1891 -1.6513
  190POPC   C3821957   1.177   3.301   9.766  0.0500 -0.2540  0.1106
  190POPC   H8X21958   1.225   3.401   9.767  0.7318 -0.5490 -1.2315
  190POPC   H8Y21959   1.111   3.308   9.855  1.1992 -0.9145  1.0361
  190POPC   C3921960   1.092   3.280   9.636  0.6203  0.1997  0.9472
  190POPC   H9X21961   1.010   3.355   9.635  2.4290  2.2324 -1.5172
  190POPC   H9Y21962   1.042   3.181   9.643  0.1629  0.4418  1.0866
  190POPC  C31021963   1.173   3.283   9.499  0.3470  0.3808  0.8123
  190POPC  H10X21964   1.247   3.201   9.502 -3.0117 -2.9188 -1.8917
  190POPC  H10Y21965   1.216   3.382   9.474  0.2669  0.5365  1.2861
  190POPC  C31121966   1.085   3.246   9.378  0.3027  0.2248  0.7200
  190POPC  H11X21967   0.995   3.312   9.381 -0.5000 -0.8859  1.7132
  190POPC  H11Y21968   1.045   3.144   9.394  0.5505 -0.4206 -2.3958
  190POPC  C31221969   1.159   3.243   9.243  0.3998 -0.4252 -0.1247
  190POPC  H12X21970   1.210   3.145   9.239 -2.2613 -1.7647 -2.6699
  190POPC  H12Y21971   1.237   3.322   9.257  1.4463 -1.6692  1.2806
  190POPC  C31321972   1.086   3.258   9.105  0.1151 -0.1425 -0.1277
  190POPC  H13X21973   1.034   3.356   9.105  0.2719 -0.0553 -0.9540
  190POPC  H13Y21974   1.011   3.177   9.101 -0.7579  0.5535  1.8509
  190POPC  C31421975   1.182   3.252   8.986  0.5729 -0.3056  0.0582
  190POPC  H14X21976   1.235   3.155   8.973  2.1341  0.7103 -1.1406
  190POPC  H14Y21977   1.266   3.323   8.997  1.0519 -0.8914  0.2056
  190POPC  C31521978   1.118   3.278   8.854  0.6171  0.6784  0.0810
  190POPC  H15X21979   1.020   3.226   8.860  0.5047  1.0437  1.6458
  190POPC  H15Y21980   1.178   3.219   8.782 -0.8440 -2.5922  1.4374
  190POPC  C31621981   1.101   3.424   8.815  0.5009 -0.1186  0.0004
  190POPC  H16X21982   1.041   3.484   8.887 -0.6644  1.3195 -2.1220
  190POPC  H16Y21983   1.061   3.438   8.712 -0.2854  0.4680  0.3828
  190POPC  H16Z21984   1.199   3.476   8.813  0.2415  0.3550 -1.6344
  191POPC     N21985   2.122   3.792   6.240  0.0033  0.4034 -0.0444
  191POPC   C1221986   1.999   3.876   6.256  0.1339  0.1798  0.4839
  191POPC  H12A21987   1.922   3.814   6.298 -0.3116  0.2271 -0.2475
  191POPC  H12B21988   1.956   3.899   6.159  1.0209 -0.1981 -0.0001
  191POPC   C1321989   2.231   3.872   6.177 -0.3490  0.3666  0.5343
  191POPC  H13A21990   2.265   3.952   6.241 -2.5306  0.8656  1.1338
  191POPC  H13B21991   2.316   3.810   6.153  0.6265  2.0648 -0.4749
  191POPC  H13C21992   2.207   3.904   6.077 -0.5606  0.3622  0.5829
  191POPC   C1421993   2.171   3.756   6.377  0.6731 -0.1022 -0.0000
  191POPC  H14A21994   2.259   3.694   6.371  1.4281  1.0661 -1.2797
  191POPC  H14B21995   2.200   3.840   6.437 -2.8639 -0.3880  2.2527
  191POPC  H14C21996   2.100   3.711   6.445 -0.6028  2.0662  0.1321
  191POPC   C1521997   2.105   3.673   6.166 -0.4329  0.7459  0.0647
  191POPC  H15A21998   2.104   3.686   6.059  1.0258 -0.3304 -0.1004
  191POPC  H15B21999   2.025   3.613   6.207 -0.1339  0.6175  0.4628
  191POPC  H15C22000   2.195   3.614   6.178 -1.3104 -0.3706  1.3136
  191POPC   C1122001   2.009   4.005   6.336  0.2192 -0.7174 -0.2032
  191POPC  H11A22002   2.087   4.074   6.296  0.5727 -0.8382  0.2748
  191POPC  H11B22003   2.017   3.977   6.443 -0.0073 -1.3752 -0.3611
  191POPC     P22004   1.872   4.219   6.306  0.4609 -0.4381 -0.2659
  191POPC   O1322005   1.733   4.268   6.282  0.5164  0.3451  0.7470
  191POPC   O1422006   1.977   4.266   6.217  0.2104  0.4252  0.0432
  191POPC   O1222007   1.881   4.061   6.320  0.0272 -0.4388 -0.1482
  191POPC   O1122008   1.906   4.264   6.455  0.0048  0.1027 -0.0130
  191POPC    C122009   1.862   4.189   6.572 -0.0088  0.5824  0.7707
  191POPC    HA22010   1.953   4.169   6.633 -0.0616 -1.5989  0.1775
  191POPC    HB22011   1.825   4.087   6.548 -1.4406  0.7533  2.1434
  191POPC    C222012   1.754   4.264   6.647  0.0152 -0.0068  0.0154
  191POPC    HS22013   1.667   4.288   6.582 -1.0147 -3.2608  0.1194
  191POPC   O2122014   1.819   4.394   6.686  0.4525  0.4921  0.2293
  191POPC   C2122015   1.740   4.486   6.727 -0.0021  0.3402  0.3965
  191POPC   O2222016   1.618   4.485   6.719  0.1807 -0.5084  0.5528
  191POPC   C2222017   1.814   4.601   6.787  0.0257  0.2849  0.2731
  191POPC   H2R22018   1.838   4.659   6.695 -4.7851 -0.7726 -1.8056
  191POPC   H2S22019   1.908   4.582   6.842 -1.2199 -1.3587  1.8720
  191POPC    C322020   1.681   4.193   6.770  0.6028  0.2012 -0.1452
  191POPC    HX22021   1.637   4.094   6.744  1.3785  0.0322 -0.8144
  191POPC    HY22022   1.598   4.258   6.806  0.2140 -0.1056 -0.4875
  191POPC   O3122023   1.788   4.167   6.878 -0.2008 -0.0444 -0.5475
  191POPC   C3122024   1.741   4.110   6.984  0.3337 -0.1085  0.2230
  191POPC   O3222025   1.626   4.079   7.012 -0.3120 -0.0629 -0.1414
  191POPC   C3222026   1.862   4.111   7.091  0.3243 -0.3741  0.6641
  191POPC   H2X22027   1.907   4.212   7.096 -0.5783  0.0103  1.2487
  191POPC   H2Y22028   1.940   4.041   7.055  1.3092  1.3727 -0.6511
  191POPC   C2322029   1.725   4.692   6.871  0.1391 -0.9110  0.8373
  191POPC   H3R22030   1.631   4.729   6.823  0.3959  0.3384  1.2622
  191POPC   H3S22031   1.785   4.772   6.920  0.0940 -1.4156  1.7085
  191POPC   C2422032   1.694   4.611   6.995  0.2747  0.3499 -0.0671
  191POPC   H4R22033   1.630   4.525   6.965 -1.8426  1.4820  1.0734
  191POPC   H4S22034   1.619   4.675   7.047 -0.6242  2.4140 -3.7148
  191POPC   C2522035   1.812   4.568   7.087  0.6037  1.0668 -0.5686
  191POPC   H5R22036   1.863   4.659   7.123  2.0807  0.0070  0.0827
  191POPC   H5S22037   1.888   4.502   7.039 -0.0727 -1.1023  1.2292
  191POPC   C2622038   1.756   4.508   7.215 -0.5344 -0.4262 -0.1044
  191POPC   H6R22039   1.724   4.404   7.194 -1.1254 -0.3051  0.1838
  191POPC   H6S22040   1.675   4.568   7.262  0.4523  0.2214  0.8097
  191POPC   C2722041   1.870   4.471   7.314 -0.2591  0.0935  0.6112
  191POPC   H7R22042   1.947   4.550   7.323 -1.1734  0.9912  0.5923
  191POPC   H7S22043   1.928   4.385   7.271  3.3263  1.4665  2.4634
  191POPC   C2822044   1.822   4.417   7.447 -0.5980 -0.6901 -0.1166
  191POPC   H8R22045   1.914   4.390   7.504 -0.0672 -1.0312 -1.1084
  191POPC   H8S22046   1.767   4.322   7.436  2.1695 -2.1719 -1.7256
  191POPC   C2922047   1.762   4.534   7.527 -0.1999  0.2326  0.2693
  191POPC   H9122048   1.742   4.626   7.470  0.5830 -0.9996 -2.0747
  191POPC  C21022049   1.747   4.543   7.656  0.1296 -1.0794  0.5316
  191POPC  H10122050   1.681   4.618   7.701 -0.4055 -1.6079  0.6483
  191POPC  C21122051   1.803   4.445   7.760  0.6768 -0.0076  0.1039
  191POPC  H11R22052   1.905   4.406   7.736  0.8054 -0.8386  1.9347
  191POPC  H11S22053   1.749   4.348   7.766  0.3971  0.0500 -1.2964
  191POPC  C21222054   1.808   4.502   7.906  0.0488 -0.6753  0.0893
  191POPC  H12R22055   1.709   4.530   7.948 -0.1276  0.6445 -1.1415
  191POPC  H12S22056   1.870   4.594   7.900 -2.0120  0.9571  2.7516
  191POPC  C21322057   1.866   4.402   8.008 -0.0182  0.2026 -0.1727
  191POPC  H13R22058   1.969   4.394   7.967 -0.8783  2.5817 -3.0087
  191POPC  H13S22059   1.815   4.304   7.996 -1.8424  1.0836  0.2005
  191POPC  C21422060   1.860   4.441   8.155 -0.2764  0.0604  0.2597
  191POPC  H14R22061   1.751   4.438   8.179 -0.1655  0.3617  0.8257
  191POPC  H14S22062   1.896   4.543   8.182 -2.6544  0.7640  0.9401
  191POPC  C21522063   1.928   4.344   8.254 -0.5454  0.4244  0.2937
  191POPC  H15R22064   1.898   4.380   8.355  1.9388  0.6290  0.9843
  191POPC  H15S22065   2.035   4.359   8.228 -0.2230 -1.7165  0.3044
  191POPC  C21622066   1.878   4.204   8.240 -0.9186  0.1962 -0.7245
  191POPC  H16R22067   1.930   4.160   8.152 -3.5707 -1.7708 -1.3901
  191POPC  H16S22068   1.769   4.184   8.232 -1.0815 -0.1565  1.8888
  191POPC  C21722069   1.933   4.108   8.351  0.4231 -0.0140  0.3310
  191POPC  H17R22070   1.866   4.127   8.438  0.4409  0.9505  0.1441
  191POPC  H17S22071   2.034   4.130   8.390  0.1100 -0.7730  1.5911
  191POPC  C21822072   1.932   3.961   8.307 -0.1947  0.2222 -0.5127
  191POPC  H18R22073   1.984   3.953   8.209 -0.6878 -2.1860 -0.6006
  191POPC  H18S22074   1.833   3.911   8.299 -0.2301  0.2637 -0.3373
  191POPC  H18T22075   1.988   3.911   8.388  0.8009  1.6195 -0.3300
  191POPC   C3322076   1.826   4.054   7.235  0.6191  0.1605  0.2221
  191POPC   H3X22077   1.795   3.947   7.237  0.2346  0.1732 -2.7143
  191POPC   H3Y22078   1.749   4.120   7.280 -1.1219 -0.4646 -1.7054
  191POPC   C3422079   1.948   4.073   7.321  0.7654 -0.6188 -0.0278
  191POPC   H4X22080   1.981   4.179   7.315 -2.7415  0.6199  1.3383
  191POPC   H4Y22081   2.030   4.007   7.285  0.0404 -0.2760 -2.4303
  191POPC   C3522082   1.923   4.037   7.471  0.1395  0.2053  0.4998
  191POPC   H5X22083   1.835   4.097   7.501 -1.1336 -1.7395  0.7378
  191POPC   H5Y22084   2.001   4.084   7.535  0.2305 -0.8206  1.1646
  191POPC   C3622085   1.931   3.889   7.510  0.5097  0.2977 -0.1454
  191POPC   H6X22086   1.856   3.833   7.451  0.0324 -0.0470  0.7871
  191POPC   H6Y22087   1.905   3.888   7.618 -1.2528  2.8387 -0.4985
  191POPC   C3722088   2.069   3.819   7.492  0.4943  0.3280  0.1704
  191POPC   H7X22089   2.139   3.877   7.554  0.3959  1.6453 -0.9145
  191POPC   H7Y22090   2.093   3.838   7.385 -1.3797 -3.4413 -1.0043
  191POPC   C3822091   2.089   3.676   7.538 -0.0470  0.2919  0.4231
  191POPC   H8X22092   2.056   3.671   7.644  1.5986  1.5090  0.9933
  191POPC   H8Y22093   2.196   3.654   7.555 -0.6124 -2.0653  1.1337
  191POPC   C3922094   2.022   3.567   7.456  0.1381 -0.0370  0.6263
  191POPC   H9X22095   2.053   3.578   7.350 -1.3874  0.0030  0.1672
  191POPC   H9Y22096   1.912   3.585   7.451 -0.0860 -1.3875  0.5313
  191POPC  C31022097   2.031   3.426   7.521  0.3522 -0.3932  0.0695
  191POPC  H10X22098   2.136   3.388   7.517 -0.5575 -2.8640 -1.5580
  191POPC  H10Y22099   1.964   3.371   7.452 -1.1700 -1.0815  2.0443
  191POPC  C31122100   1.985   3.408   7.664 -0.5455 -0.1400  0.1568
  191POPC  H11X22101   2.052   3.465   7.732 -1.4381 -1.5349  2.2813
  191POPC  H11Y22102   2.002   3.302   7.692  3.0828 -0.0956 -1.6035
  191POPC  C31222103   1.834   3.448   7.677  0.6109  0.0289 -0.3193
  191POPC  H12X22104   1.779   3.405   7.591 -1.1455 -0.6147  1.0924
  191POPC  H12Y22105   1.833   3.559   7.673  1.5600  0.0429 -0.2724
  191POPC  C31322106   1.770   3.396   7.801  0.7175  0.4058  0.0459
  191POPC  H13X22107   1.789   3.286   7.799  0.8707  0.4356 -0.2963
  191POPC  H13Y22108   1.660   3.398   7.785  0.6136 -0.6957  0.5795
  191POPC  C31422109   1.820   3.473   7.920  0.3727  0.1429 -0.0045
  191POPC  H14X22110   1.798   3.581   7.903 -1.2833  0.0908  1.6491
  191POPC  H14Y22111   1.929   3.453   7.929  0.2246 -1.8070 -2.1661
  191POPC  C31522112   1.746   3.437   8.045  0.2385  0.1691 -0.5745
  191POPC  H15X22113   1.641   3.472   8.038  0.5636  1.2551 -0.1240
  191POPC  H15Y22114   1.793   3.495   8.127  0.6031  0.0378 -0.6887
  191POPC  C31622115   1.747   3.298   8.092  0.2736  0.5306  0.9504
  191POPC  H16X22116   1.854   3.274   8.108  0.4612  0.7942  0.1439
  191POPC  H16Y22117   1.708   3.229   8.014 -0.4075  2.0623 -0.1095
  191POPC  H16Z22118   1.687   3.291   8.184  0.1711 -1.0630  0.7629
  192POPC     N22119   0.659   6.630   6.169  0.6028  0.2017 -0.4971
  192POPC   C1222120   0.704   6.643   6.021  0.1182  0.1679 -0.0258
  192POPC  H12A22121   0.636   6.589   5.957 -0.0042  1.3840 -0.9381
  192POPC  H12B22122   0.798   6.590   6.023 -0.1659 -0.3541 -0.4962
  192POPC   C1322123   0.753   6.702   6.257 -0.8536 -0.1123  0.4379
  192POPC  H13A22124   0.725   6.700   6.362  2.3614  1.7820  1.4086
  192POPC  H13B22125   0.856   6.669   6.245 -1.7432 -2.9926  0.2868
  192POPC  H13C22126   0.756   6.808   6.237 -0.1115 -0.3629 -0.8526
  192POPC   C1422127   0.521   6.689   6.203  0.2266 -0.0676  0.5561
  192POPC  H14A22128   0.488   6.649   6.298  2.0269  1.3493  1.8331
  192POPC  H14B22129   0.520   6.797   6.205 -0.0819 -0.0818  1.4553
  192POPC  H14C22130   0.456   6.653   6.125  0.0790  0.7216  0.3134
  192POPC   C1522131   0.650   6.483   6.206 -0.6708  0.5187  0.6503
  192POPC  H15A22132   0.659   6.465   6.312 -1.3226  0.4714  0.6986
  192POPC  H15B22133   0.736   6.428   6.170  0.5948  2.1975  1.0366
  192POPC  H15C22134   0.562   6.435   6.165 -0.7499  2.3662 -1.4863
  192POPC   C1122135   0.733   6.780   5.964  0.0268 -0.6633  0.6891
  192POPC  H11A22136   0.772   6.778   5.860  0.0396  3.6374  0.4864
  192POPC  H11B22137   0.813   6.831   6.022 -0.5614  0.4131  0.5865
  192POPC     P22138   0.600   7.004   6.010  0.3045 -0.2290 -0.0761
  192POPC   O1322139   0.460   7.031   6.050  0.3786  0.6020  0.5838
  192POPC   O1422140   0.663   7.095   5.912 -0.1558  0.3097  0.5546
  192POPC   O1222141   0.622   6.859   5.954  0.1683  0.1319  0.1912
  192POPC   O1122142   0.689   7.001   6.140  0.7838 -0.6634  0.7904
  192POPC    C122143   0.730   7.116   6.218 -0.1404 -0.3074 -0.5307
  192POPC    HA22144   0.647   7.190   6.225 -0.8365 -1.1831  0.9657
  192POPC    HB22145   0.823   7.158   6.175  1.2221  0.1912  2.7646
  192POPC    C222146   0.766   7.076   6.367 -0.0028  0.1233  0.7895
  192POPC    HS22147   0.795   7.172   6.414  1.5347  0.3372 -0.5307
  192POPC   O2122148   0.861   6.966   6.370  0.2291  0.3897 -0.4878
  192POPC   C2122149   0.983   7.009   6.330  0.0908 -0.1487  0.4027
  192POPC   O2222150   1.011   7.127   6.302  0.5385  0.4196 -0.2387
  192POPC   C2222151   1.083   6.903   6.357 -0.3715  0.2116  0.4403
  192POPC   H2R22152   1.146   6.881   6.269  0.3516 -1.8136  1.4429
  192POPC   H2S22153   1.036   6.814   6.405 -1.5071 -0.4565 -1.8552
  192POPC    C322154   0.642   7.024   6.435  0.0868 -0.5231 -0.2848
  192POPC    HX22155   0.611   6.929   6.386  0.0728 -0.8226  0.3061
  192POPC    HY22156   0.557   7.095   6.423  1.2696  0.7432 -1.2731
  192POPC   O3122157   0.650   7.028   6.576  0.2582  0.2823 -1.0536
  192POPC   C3122158   0.692   6.910   6.634 -0.7874  0.0730 -0.2478
  192POPC   O3222159   0.722   6.808   6.579  0.2439 -0.1022 -0.3075
  192POPC   C3222160   0.703   6.937   6.788  0.5556  0.5531 -0.5616
  192POPC   H2X22161   0.596   6.960   6.811  0.7871  0.9368  0.1444
  192POPC   H2Y22162   0.758   7.033   6.803  0.2635  0.8381 -1.2890
  192POPC   C2322163   1.175   6.956   6.471  0.3119 -0.1540 -0.0044
  192POPC   H3R22164   1.191   7.063   6.444 -1.0944  0.7556  2.6316
  192POPC   H3S22165   1.267   6.895   6.482  0.1977 -0.0088  1.7962
  192POPC   C2422166   1.107   6.958   6.606 -0.0033  0.0151  0.0816
  192POPC   H4R22167   1.030   6.878   6.620  0.1189 -0.3672 -1.3905
  192POPC   H4S22168   1.050   7.053   6.618  1.8456  1.1361  0.1648
  192POPC   C2522169   1.204   6.964   6.729 -0.2231  0.2760  0.5561
  192POPC   H5R22170   1.279   7.045   6.717 -0.9576  0.8376 -0.3067
  192POPC   H5S22171   1.251   6.864   6.743  1.4578  1.1684  1.3422
  192POPC   C2622172   1.136   7.000   6.863  0.2455 -0.5080 -0.1565
  192POPC   H6R22173   1.042   6.940   6.873 -0.2038  0.1949 -0.1269
  192POPC   H6S22174   1.131   7.110   6.853  0.5908 -0.6108 -1.6082
  192POPC   C2722175   1.234   6.973   6.976  0.2751  0.4640  0.5426
  192POPC   H7R22176   1.301   7.061   6.987 -0.6743  1.2946 -0.2051
  192POPC   H7S22177   1.299   6.888   6.945 -0.6576  0.0512 -0.3058
  192POPC   C2822178   1.169   6.928   7.111 -0.1094  1.4813  0.4098
  192POPC   H8R22179   1.254   6.904   7.179 -0.4136  2.2826  1.0898
  192POPC   H8S22180   1.114   6.834   7.091  1.1420  0.9432 -0.5462
  192POPC   C2922181   1.093   7.046   7.168 -0.3392 -0.8383  0.1358
  192POPC   H9122182   1.015   7.087   7.102  1.2712  1.3813 -0.4664
  192POPC  C21022183   1.086   7.098   7.295  0.3323  0.3368 -0.0243
  192POPC  H10122184   1.018   7.183   7.311  0.5997  0.4840  0.3125
  192POPC  C21122185   1.172   7.042   7.404  0.8588  0.3011 -0.2649
  192POPC  H11R22186   1.236   7.122   7.445  0.8278  1.3609 -2.2208
  192POPC  H11S22187   1.235   6.958   7.366 -1.5976 -1.5828 -0.3178
  192POPC  C21222188   1.091   6.975   7.515  0.0670 -0.5793 -0.4907
  192POPC  H12R22189   1.175   6.937   7.576  0.7434  2.5870  0.6266
  192POPC  H12S22190   1.015   6.910   7.466 -1.5715  1.5887 -0.9420
  192POPC  C21322191   1.012   7.076   7.604  0.0884 -0.7784 -0.5186
  192POPC  H13R22192   0.937   7.135   7.547  1.3222  0.6742 -0.6606
  192POPC  H13S22193   1.090   7.143   7.647  0.8333 -1.0844 -1.3884
  192POPC  C21422194   0.953   7.010   7.725 -0.4363  0.0526  0.6498
  192POPC  H14R22195   1.037   6.969   7.784 -0.4551 -2.1183 -0.7946
  192POPC  H14S22196   0.892   6.924   7.691  1.0548 -0.7555 -0.0032
  192POPC  C21522197   0.876   7.113   7.815 -0.4342 -0.7667 -0.8087
  192POPC  H15R22198   0.769   7.104   7.788 -1.0920  1.6601  0.8150
  192POPC  H15S22199   0.927   7.209   7.792  0.0708 -0.7874  0.1943
  192POPC  C21622200   0.898   7.101   7.964 -0.0477  0.4315  0.1290
  192POPC  H16R22201   0.849   7.187   8.015  0.8847  0.9934  0.0880
  192POPC  H16S22202   1.006   7.093   7.989 -0.3200  0.2480  1.2920
  192POPC  C21722203   0.840   6.962   7.996  0.2722 -0.1046 -0.9008
  192POPC  H17R22204   0.903   6.879   7.958  0.7442  0.0659 -0.4879
  192POPC  H17S22205   0.744   6.952   7.941 -0.3704 -1.1497  0.4014
  192POPC  C21822206   0.814   6.944   8.141 -0.4525  0.5691 -0.1434
  192POPC  H18R22207   0.806   7.040   8.197  0.1875  0.1282  0.7102
  192POPC  H18S22208   0.890   6.877   8.185 -0.8859  1.0062  1.3054
  192POPC  H18T22209   0.720   6.886   8.153  0.8207 -1.9059 -1.9140
  192POPC   C3322210   0.768   6.826   6.866  0.3318  0.5746 -0.3709
  192POPC   H3X22211   0.875   6.815   6.839  0.7913 -0.6802  1.8502
  192POPC   H3Y22212   0.710   6.734   6.843  0.8235  0.3168 -0.5954
  192POPC   C3422213   0.763   6.865   7.009  0.0991 -0.3121 -0.0115
  192POPC   H4X22214   0.775   6.975   7.024 -0.0387 -0.8459  4.5035
  192POPC   H4Y22215   0.842   6.817   7.070  1.5465 -0.1385 -1.7221
  192POPC   C3522216   0.642   6.828   7.100  0.2038  0.1653  0.5561
  192POPC   H5X22217   0.627   6.721   7.075 -0.8358 -0.4699  3.6142
  192POPC   H5Y22218   0.557   6.892   7.067  0.7138  0.9441  0.7190
  192POPC   C3622219   0.673   6.845   7.248  0.1851 -0.2971  0.1008
  192POPC   H6X22220   0.707   6.949   7.264  0.5357 -0.4634  0.4267
  192POPC   H6Y22221   0.761   6.779   7.260 -0.1047 -0.9463 -1.2402
  192POPC   C3722222   0.549   6.810   7.335 -0.0912  0.7578 -0.1174
  192POPC   H7X22223   0.528   6.702   7.322  0.1119  0.7471 -0.3871
  192POPC   H7Y22224   0.450   6.853   7.311  0.0573  1.0742 -0.1618
  192POPC   C3822225   0.571   6.838   7.488  0.2677  0.0956 -0.0641
  192POPC   H8X22226   0.622   6.937   7.494  2.7863 -1.0839 -1.3076
  192POPC   H8Y22227   0.642   6.770   7.540 -0.2458  0.1657  0.7486
  192POPC   C3922228   0.437   6.847   7.553  0.0721  0.5815  0.2646
  192POPC   H9X22229   0.381   6.751   7.552 -0.4383  0.8771  0.1640
  192POPC   H9Y22230   0.369   6.920   7.504 -1.5897 -0.0130  1.6334
  192POPC  C31022231   0.444   6.902   7.695 -0.2044  0.6305  0.7390
  192POPC  H10X22232   0.348   6.888   7.748 -1.7615  0.6317 -2.0089
  192POPC  H10Y22233   0.465   7.011   7.704 -0.3477  1.1149 -3.9382
  192POPC  C31122234   0.552   6.838   7.783 -0.4819 -0.2519 -0.3758
  192POPC  H11X22235   0.556   6.880   7.885 -1.9127  2.3565 -1.3474
  192POPC  H11Y22236   0.655   6.862   7.748 -0.8793 -1.8291 -2.7282
  192POPC  C31222237   0.558   6.685   7.796  1.1500  0.4393 -0.0969
  192POPC  H12X22238   0.573   6.641   7.695  1.9041 -1.3875  0.7837
  192POPC  H12Y22239   0.459   6.653   7.836  0.9168 -0.8708 -1.6980
  192POPC  C31322240   0.672   6.632   7.885 -0.0189 -0.5155 -0.2861
  192POPC  H13X22241   0.679   6.699   7.973 -4.0456  0.5040 -0.6576
  192POPC  H13Y22242   0.761   6.647   7.820  1.2743  2.6585  2.0819
  192POPC  C31422243   0.642   6.488   7.934 -0.5782 -0.5043 -0.3813
  192POPC  H14X22244   0.647   6.426   7.842  1.3744  2.5578 -2.3938
  192POPC  H14Y22245   0.537   6.482   7.972 -0.5220  1.4958  0.1365
  192POPC  C31522246   0.745   6.444   8.039 -0.5420 -0.2512 -0.2030
  192POPC  H15X22247   0.847   6.461   7.998 -1.5104  2.8469 -1.4464
  192POPC  H15Y22248   0.717   6.336   8.045 -0.6325 -0.4716 -3.5159
  192POPC  C31622249   0.719   6.493   8.181 -0.7053 -0.4584 -0.1749
  192POPC  H16X22250   0.796   6.458   8.253  1.1718  1.5592 -1.1450
  192POPC  H16Y22251   0.616   6.477   8.219 -0.3349  1.9072  2.0365
  192POPC  H16Z22252   0.728   6.604   8.188 -2.4059 -0.3875  1.2242
  193SOD    SOD22253   3.260   2.125   4.008 -0.1119  0.1705  0.5711
  194SOD    SOD22254   4.411   5.376   0.953 -0.0702 -0.6742  0.1100
  195SOD    SOD22255   1.794   1.028   4.193 -0.3097  0.6675  0.2477
  196SOD    SOD22256   2.664   5.652   4.838 -0.3057  0.2324  0.2385
  197SOD    SOD22257   3.681   1.502   1.933 -0.1498 -0.0107  0.5425
  198SOD    SOD22258   3.141   3.501  11.412 -0.5640 -0.2531  0.2044
  199SOD    SOD22259   5.461   5.084   3.561  0.2317  0.1906 -0.1827
  200SOD    SOD22260   1.328   2.317   6.583  0.0268 -0.1306 -0.3422
  201SOD    SOD22261   2.677   4.247  16.266  0.0678  0.0682 -0.2738
  202SOD    SOD22262   4.085   1.437  13.434  0.1466 -0.1065  0.3946
  203SOD    SOD22263   0.879   0.881  11.439 -0.2149  0.4538 -0.4524
  204SOD    SOD22264   0.757   4.582   5.523  0.4736  0.3994 -0.2978
  205SOD    SOD22265   1.920   2.750   5.278 -0.0086 -0.3779  0.3746
  206SOD    SOD22266   3.299   6.284  16.248 -0.5747 -0.3841  0.1881
  207SOD    SOD22267   6.350   0.011   0.159 -0.5578 -0.2584 -0.6400
  208SOD    SOD22268   6.263   5.761  13.596 -0.7373  0.2557  0.0436
  209SOD    SOD22269   4.126   6.713   4.818  0.2056  1.0455  0.0669
  210SOD    SOD22270   6.186   3.788  15.336 -0.0789 -0.5849 -0.4536
  211SOD    SOD22271   3.139   3.787   4.900 -0.5060 -0.1821  0.5064
  212SOD    SOD22272   3.177   1.807  16.367 -0.6435 -0.0112 -0.3337
  213SOD    SOD22273   3.842   1.159  14.603  0.3541  0.5119  0.1935
  214SOD    SOD22274   1.226   3.383  15.802 -0.2655 -0.1683  0.5092
  215SOD    SOD22275   1.691   5.110   4.566 -0.1412 -0.3184  0.4827
  216SOD    SOD22276   6.665   4.254   6.577 -0.4128 -0.2075 -0.2495
  217SOD    SOD22277   4.366   2.352   2.376 -0.6277  0.4886 -0.1626
  218SOD    SOD22278   2.994   4.596   2.802  0.1039 -0.1068 -0.0856
  219SOD    SOD22279   3.663   3.960  11.934  0.3826  0.4623 -0.5177
  220SOD    SOD22280   4.201   4.303  15.224  0.1233 -0.5759 -0.3978
  221SOD    SOD22281   5.418   1.225   5.416 -0.2885 -0.0782 -0.2061
  222SOD    SOD22282   2.089   0.247  11.874  0.0043 -0.1299 -0.1290
  223SOD    SOD22283   4.751   2.624   4.064 -0.1317 -0.3044 -0.0461
  224SOD    SOD22284   2.089   1.376  16.271  0.2403  0.5146  0.5207
  225SOD    SOD22285   2.892   1.982  15.759  0.3325  0.2344  0.4745
  226SOD    SOD22286   5.721   5.440  16.490  0.1686 -0.4703 -0.3630
  227SOD    SOD22287   3.175   3.022   5.239  0.0279 -0.7343 -0.3342
  228SOD    SOD22288   6.007   2.150  15.272  0.1589 -0.0944 -0.4389
  229SOD    SOD22289   3.431   3.844  13.343 -0.1023  0.2181  0.3548
  230SOD    SOD22290   0.405   3.005  10.683  0.1404 -0.3895 -0.2336
  231SOD    SOD22291   6.129   1.561  17.126  0.1822  0.4371 -0.3790
  232SOD    SOD22292   3.748   0.147   0.819 -0.1683 -0.3161  0.0288
  233SOD    SOD22293   1.436   1.233  16.820 -0.1025 -0.2857 -0.0232
  234SOD    SOD22294   4.020   0.200   0.562 -0.3360 -0.2823 -0.3395
  235SOD    SOD22295   2.469   6.133  14.795 -0.0702 -0.3739  0.0850
  236SOD    SOD22296   4.805   3.420  11.363  0.4013 -0.5832  0.9291
  237SOD    SOD22297   5.085   2.812  16.997 -0.0636 -0.2459  0.0889
  238SOD    SOD22298   0.695   2.026   4.586 -0.1433  0.3706 -0.2007
  239SOD    SOD22299   6.655   4.309  10.743  0.5770 -0.2024 -0.4465
  240SOD    SOD22300   2.334   3.814  15.077 -0.1484  0.3153 -0.2643
  241SOD    SOD22301   0.728   2.659   4.072 -0.2297  0.6969 -0.0674
  242SOD    SOD22302   1.079   3.303   5.712 -1.0471 -0.1671  0.1200
  243SOD    SOD22303   4.459   0.157   4.406 -0.4279  0.0905  0.0347
  244SOD    SOD22304   1.241   6.375  13.829  0.2271 -0.2698 -0.3769
  245SOD    SOD22305   3.850   0.746   6.008 -0.1746  0.3520  0.3269
  246SOD    SOD22306   6.634   0.284  16.034 -0.3054 -0.0484 -0.4094
  247SOD    SOD22307   6.179   6.343   4.154  0.2217  0.4129 -0.3104
  248SOD    SOD22308   4.279   4.933  12.395 -0.1963 -0.4164  0.5278
  249SOD    SOD22309   5.689   1.413   2.104 -0.4362  0.0606 -0.2183
  250SOD    SOD22310   4.745   4.082   2.024 -0.2625 -0.4808  0.1245
  251SOD    SOD22311   0.841   6.081  11.445 -0.1781 -0.0028  0.2287
  252SOD    SOD22312   4.090   2.686  11.012  0.1228  0.1446 -0.5939
  253SOD    SOD22313   5.726   4.859   4.514 -0.5721 -0.2435  0.2341
  254SOD    SOD22314   2.932   0.058  17.173 -0.1018 -0.6978 -0.0517
  255SOD    SOD22315   0.486   4.940  17.080  0.0246  0.2779  0.2264
  256SOD    SOD22316   2.306   1.063   2.367  0.3073  0.2247  0.1700
  257SOD    SOD22317   5.146   6.005  12.061  0.2626 -0.2143  0.1659
  258SOD    SOD22318   0.312   1.358   3.730 -0.2823 -0.4591 -0.2692
  259SOD    SOD22319   5.111   2.209  13.207 -0.0042  0.8748 -0.3595
  260SOD    SOD22320   6.435   3.801  11.092  0.0306  0.2204 -0.0940
  261SOD    SOD22321   4.419   1.668   6.465 -0.1885 -0.1093 -0.0220
  262SOD    SOD22322   3.115   6.699  12.366 -0.1664  0.1049  0.0088
  263SOD    SOD22323   4.138   6.739  11.660  0.2956  0.6871  0.1531
  264SOD    SOD22324   0.462   4.246   5.474  0.6092 -0.0891  0.4742
  265SOD    SOD22325   1.262   1.303   3.286  0.3545  0.6903 -0.5922
  266SOD    SOD22326   0.697   6.547  13.795 -0.4232 -0.0566 -0.2575
  267SOD    SOD22327   0.480   3.168  14.772  0.3223  0.1698 -0.0714
  268SOD    SOD22328   2.382   2.827   2.042 -0.2523  0.5173  0.0302
  269SOD    SOD22329   4.664   2.681  13.982 -0.0387 -0.2301  0.0087
  270CLA    CLA22330   5.948   3.441  16.478  0.3226 -0.3501 -0.1691
  271CLA    CLA22331   2.907   3.338  14.941 -0.3647 -0.1825 -0.2125
  272CLA    CLA22332   0.674   5.381  15.412  0.2995  0.2268  0.1314
  273CLA    CLA22333   5.894   2.391   3.024  0.1569 -0.1517  0.0369
  274CLA    CLA22334   4.300   3.176   5.338  0.0098 -0.0313 -0.1936
  275CLA    CLA22335   1.399   6.576  14.806  0.0396 -0.2438  0.5953
  276CLA    CLA22336   2.033   6.664  16.812 -0.1119  0.4668 -0.1659
  277CLA    CLA22337   0.026   6.737  15.002 -0.1532 -0.0781 -0.0721
  278CLA    CLA22338   3.087   6.042  16.562  0.1393  0.2011  0.4765
  279CLA    CLA22339   5.806   1.526   2.868 -0.5022 -0.1707 -0.0072
  280CLA    CLA22340   4.368   0.777  11.253  0.2750 -0.0811 -0.0938
  281CLA    CLA22341   4.368   2.320  13.721 -0.3666 -0.2945 -0.1856
  282CLA    CLA22342   5.781   2.097  17.128  0.3071 -0.5713 -0.2677
  283CLA    CLA22343   4.814   3.588   3.501 -0.0914  0.3983 -0.0789
  284CLA    CLA22344   0.282   2.540   2.453 -0.1319 -0.3032  0.0411
  285CLA    CLA22345   2.932   4.514  13.679 -0.0709  0.1826 -0.0074
  286CLA    CLA22346   4.190   6.353   0.340 -0.3633 -0.0029 -0.4483
  287CLA    CLA22347   1.662   6.736  15.708  0.4808 -0.2951  0.0765
  288CLA    CLA22348   1.115   0.255  14.969  0.5902 -0.0907 -0.1552
  289CLA    CLA22349   1.215   0.829   3.031 -0.0950  0.2412  0.0679
  290CLA    CLA22350   2.878   1.052   4.255 -0.0839 -0.3775 -0.1300
  291CLA    CLA22351   3.185   4.433   1.445  0.0317  0.0351  0.1536
  292CLA    CLA22352   5.725   0.618   1.347 -0.1259 -0.0687  0.0883
  293CLA    CLA22353   2.624   1.986   5.897 -0.2977 -0.0218  0.1340
  294CLA    CLA22354   5.734   5.098  13.792 -0.4015 -0.2638 -0.0840
  295CLA    CLA22355   0.791   1.440   1.499 -0.0351 -0.3810  0.0264
  296CLA    CLA22356   2.022   5.612  13.224  0.3680  0.2595 -0.1661
  297CLA    CLA22357   6.174   4.213  16.114 -0.0888  0.0772 -0.5365
  298CLA    CLA22358   5.658   4.421   2.214 -0.2005  0.2761 -0.2185
  299CLA    CLA22359   2.841   2.917   4.837  0.1572 -0.4372 -0.1939
  300CLA    CLA22360   6.377   0.803   3.114  0.0511 -0.3593 -0.0272
  301CLA    CLA22361   0.904   3.671  15.845 -0.3582 -0.0039  0.2594
  302CLA    CLA22362   1.030   1.644   5.808 -0.0591 -0.2070  0.1379
  303CLA    CLA22363   1.569   3.428   1.613  0.2424 -0.3424  0.0142
  304CLA    CLA22364   4.095   1.543   2.189 -0.3722 -0.2879 -0.1259
  305CLA    CLA22365   2.319   0.944  12.834  0.0294  0.2868  0.4011
  306CLA    CLA22366   2.721   2.567   5.219  0.0716 -0.0565 -0.0749
  307CLA    CLA22367   1.749   4.402   2.878 -0.0800 -0.3665  0.3650
  308CLA    CLA22368   3.936   4.628   5.098  0.2505 -0.3308  0.1386
  309CLA    CLA22369   4.050   5.284  13.718  0.1416  0.2794  0.5634
  310CLA    CLA22370   3.892   0.529   0.100  0.3385  0.1229 -0.1602
  311CLA    CLA22371   5.090   4.902  14.378  0.3716 -0.2260 -0.0529
  312CLA    CLA22372   6.028   3.759  14.213 -0.3114  0.1133  0.1023
  313CLA    CLA22373   1.257   2.981  12.281  0.1850 -0.0226 -0.0404
  314CLA    CLA22374   4.397   6.733   4.866 -0.4068  0.2357  0.2821
  315CLA    CLA22375   4.629   0.565  13.463  0.2033  0.3399  0.1189
  316CLA    CLA22376   2.185   0.044  11.996 -0.2948 -0.2796  0.1532
  317CLA    CLA22377   6.088   5.373  13.795 -0.2964 -0.5530  0.3943
  318CLA    CLA22378   1.363   2.330  16.623  0.1302 -0.2110 -0.1165
  319CLA    CLA22379   2.167   4.648  16.692  0.4802 -0.2063 -0.2138
  320CLA    CLA22380   0.473   4.417   1.194 -0.0071 -0.3543  0.2179
  321CLA    CLA22381   4.252   0.561   1.584 -0.2077  0.5272  0.2035
  322CLA    CLA22382   5.831   3.468  12.859  0.0403  0.1093 -0.2061
  323TIP3   OH222383   3.552   4.814   2.282 -1.1630 -0.1401  0.0565
  323TIP3    H122384   3.589   4.729   2.307 -1.4117 -0.7213 -1.5165
  323TIP3    H222385   3.489   4.794   2.214 -1.5931  1.2670  0.0253
  324TIP3   OH222386   2.852   3.332   0.075  0.5775  0.5835 -0.2562
  324TIP3    H122387   2.765   3.369   0.061 -0.2316 -0.5497  1.7379
  324TIP3    H222388   2.880   3.367   0.159  1.3140 -0.4811 -0.0548
  325TIP3   OH222389   2.927   1.883   2.810 -0.1538  0.3227  0.1270
  325TIP3    H122390   2.974   1.826   2.749  2.5215  0.7603  1.7055
  325TIP3    H222391   2.939   1.971   2.774 -0.2226  0.3784  0.2406
  326TIP3   OH222392   3.603   2.934  14.021 -0.1611  0.2729  0.0167
  326TIP3    H122393   3.695   2.916  14.042  0.0369  1.3919  0.1441
  326TIP3    H222394   3.571   2.853  13.983  0.3142 -0.8213  1.8706
  327TIP3   OH222395   3.236   6.384   5.508 -0.1519 -0.1097  0.4155
  327TIP3    H122396   3.255   6.347   5.594  1.6759 -1.2602 -0.4569
  327TIP3    H222397   3.163   6.330   5.475 -0.0372 -0.4587  0.7235
  328TIP3   OH222398   0.424   2.621  12.074  0.5534  0.1711  0.0724
  328TIP3    H122399   0.425   2.528  12.096 -0.5106  0.2802  0.6331
  328TIP3    H222400   0.512   2.652  12.093  1.4404 -1.1201 -1.8838
  329TIP3   OH222401   0.796   4.460   6.039 -0.0579 -0.3200  0.3188
  329TIP3    H122402   0.819   4.434   6.128 -0.6035 -2.6402 -0.1838
  329TIP3    H222403   0.798   4.378   5.989  0.5169  0.9980 -1.8621
  330TIP3   OH222404   6.307   0.917  14.412 -0.4053  1.0177 -0.1137
  330TIP3    H122405   6.307   0.900  14.318 -0.4380 -0.2194  0.0995
  330TIP3    H222406   6.398   0.902  14.439 -0.1876  2.3236 -0.1077
  331TIP3   OH222407   3.931   5.714   2.341 -0.4665  0.2700 -0.0247
  331TIP3    H122408   3.941   5.621   2.361  1.6481  0.3520 -0.5992
  331TIP3    H222409   3.994   5.757   2.399 -0.5969  1.2345 -0.5986
  332TIP3   OH222410   5.357   2.004  15.521 -0.4576 -0.3934 -0.5382
  332TIP3    H122411   5.447   1.996  15.492 -1.0889 -1.3477 -2.3248
  332TIP3    H222412   5.344   1.931  15.582  0.3566  0.5660  0.8137
  333TIP3   OH222413   1.561   6.574   3.637  0.1683  0.4536 -0.4573
  333TIP3    H122414   1.639   6.532   3.673  0.5649  0.7746 -0.9394
  333TIP3    H222415   1.582   6.591   3.546 -0.3136  0.9122 -0.4865
  334TIP3   OH222416   3.453   6.059  12.497  0.1993 -0.1414 -0.3952
  334TIP3    H122417   3.513   6.095  12.563 -0.3898  2.4220 -1.2012
  334TIP3    H222418   3.479   5.968  12.489  2.2556  0.2540  1.2078
  335TIP3   OH222419   3.044   1.948  15.571  0.5156 -0.2701 -0.0739
  335TIP3    H122420   3.096   1.872  15.547 -0.4527 -0.6525 -0.9947
  335TIP3    H222421   3.102   2.023  15.557  0.8352 -0.6938 -1.0155
  336TIP3   OH222422   0.145   1.118   0.539 -0.0209 -0.1376  0.6026
  336TIP3    H122423   0.084   1.147   0.607  0.2949  1.3481  0.2684
  336TIP3    H222424   0.157   1.195   0.483  0.2974 -1.1278 -0.7087
  337TIP3   OH222425   3.308   3.025   4.494  0.3243  0.0322 -0.4606
  337TIP3    H122426   3.354   2.989   4.570 -0.9916 -0.5570  0.0672
  337TIP3    H222427   3.281   3.112   4.522 -1.2613 -0.6565  0.2190
  338TIP3   OH222428   4.819   6.100   2.305 -0.7010 -0.1835  0.4168
  338TIP3    H122429   4.853   6.029   2.250  0.5610 -0.0401  0.9833
  338TIP3    H222430   4.793   6.168   2.243  2.2357  0.6353  0.0131
  339TIP3   OH222431   3.477   2.107   3.357 -0.3111 -0.1761  0.3089
  339TIP3    H122432   3.566   2.088   3.387  0.3120  0.2844 -1.1460
  339TIP3    H222433   3.438   2.021   3.340 -0.5680 -0.4244  2.0618
  340TIP3   OH222434   0.711   3.844   1.190 -0.1586 -0.3415 -0.1062
  340TIP3    H122435   0.789   3.837   1.246  0.5895 -1.1961 -1.2295
  340TIP3    H222436   0.744   3.885   1.110 -0.5408 -2.1735 -1.2106
  341TIP3   OH222437   3.261   1.751  12.082 -0.0650 -0.0675  0.3791
  341TIP3    H122438   3.293   1.802  12.007  1.1779  0.7529  1.4580
  341TIP3    H222439   3.223   1.816  12.141 -1.5536 -0.7753  0.2292
  342TIP3   OH222440   1.484   2.283  15.955  0.6790 -0.1268  0.2436
  342TIP3    H122441   1.462   2.262  16.046 -1.2985  2.7978  0.4796
  342TIP3    H222442   1.416   2.240  15.903 -1.2944  2.5608  0.5169
  343TIP3   OH222443   3.585   1.489  15.813  0.0069 -0.2001  0.3423
  343TIP3    H122444   3.531   1.525  15.882  0.5982  1.6468 -0.1318
  343TIP3    H222445   3.537   1.412  15.782 -1.7025  0.6676  0.7845
  344TIP3   OH222446   2.255   3.045  16.968 -0.3687 -0.0262 -0.1152
  344TIP3    H122447   2.204   3.124  16.949 -1.6778 -0.0963  2.7650
  344TIP3    H222448   2.198   2.973  16.941 -0.6827 -0.0496  0.6030
  345TIP3   OH222449   4.991   3.704   0.550 -0.3267 -0.3852  0.3739
  345TIP3    H122450   4.933   3.768   0.593 -0.1214 -0.7099  1.1368
  345TIP3    H222451   4.990   3.730   0.458  1.3547  1.9710  0.9735
  346TIP3   OH222452   3.025   4.437   3.330  0.4070  0.0842  0.2360
  346TIP3    H122453   2.983   4.355   3.354 -1.4824  1.0004  0.1773
  346TIP3    H222454   2.987   4.502   3.390  0.9988  1.1141 -0.4839
  347TIP3   OH222455   5.398   6.625  15.182 -0.1690  0.1159 -0.1022
  347TIP3    H122456   5.337   6.620  15.108  0.0084  0.8740 -0.3015
  347TIP3    H222457   5.449   6.544  15.176 -1.5965 -0.8411  0.4475
  348TIP3   OH222458   5.545   5.083   3.049  0.3887  0.1223  0.1451
  348TIP3    H122459   5.465   5.103   2.999 -0.4478  1.1505  1.8563
  348TIP3    H222460   5.525   5.001   3.094  0.4795  0.1397  0.2170
  349TIP3   OH222461   0.002   1.928   6.113 -0.1336 -0.0150  0.0923
  349TIP3    H122462   0.044   2.007   6.078 -0.2590  0.4899  1.0570
  349TIP3    H222463  -0.064   1.961   6.175  0.0627 -0.8781  0.7767
  350TIP3   OH222464   0.438   6.398  14.669 -0.3929  0.1245  0.1749
  350TIP3    H122465   0.516   6.343  14.664 -0.7843 -0.5697  1.3908
  350TIP3    H222466   0.460   6.465  14.735 -0.5880  0.3089  0.0536
  351TIP3   OH222467   3.846   4.102   5.878 -0.2014 -0.0883  0.3393
  351TIP3    H122468   3.776   4.130   5.819  0.0713 -0.9560 -0.3894
  351TIP3    H222469   3.800   4.059   5.950 -0.4812  0.2595  0.3735
  352TIP3   OH222470   2.957   5.099   2.705 -0.2349  0.3867  1.1044
  352TIP3    H122471   2.918   5.166   2.761 -1.0102  2.8402 -2.2843
  352TIP3    H222472   2.937   5.126   2.616  0.3832 -3.7956 -0.4221
  353TIP3   OH222473   6.462   6.587   3.098  0.0596 -0.5367 -0.0958
  353TIP3    H122474   6.445   6.663   3.153  2.1749  0.2235 -0.4287
  353TIP3    H222475   6.396   6.590   3.030 -0.3090  0.5840  0.3112
  354TIP3   OH222476   1.557   3.233   5.234  0.2408 -0.0429  0.5278
  354TIP3    H122477   1.534   3.149   5.193  1.5137 -0.2261  0.1870
  354TIP3    H222478   1.649   3.246   5.212  0.4139  0.7943  1.7193
  355TIP3   OH222479   4.453   1.332  12.707  0.2905 -0.2391 -0.1835
  355TIP3    H122480   4.465   1.384  12.627 -1.1294  0.0121 -0.2462
  355TIP3    H222481   4.530   1.276  12.711  0.8023  0.3755 -1.2659
  356TIP3   OH222482   3.536   5.277  16.224  0.5200 -0.4790  0.6233
  356TIP3    H122483   3.569   5.198  16.268 -0.2989 -1.1126  0.0982
  356TIP3    H222484   3.441   5.266  16.224  0.3616  0.8451  1.1717
  357TIP3   OH222485   3.354   0.477   0.630 -0.1039 -0.4542  0.1727
  357TIP3    H122486   3.439   0.521   0.626 -0.0742 -0.3989  1.2376
  357TIP3    H222487   3.342   0.441   0.542  0.4584  0.5702 -0.3423
  358TIP3   OH222488   3.897   0.955  11.909  0.1545  0.0149 -0.3149
  358TIP3    H122489   3.821   1.011  11.899 -1.3198 -1.9515 -0.4239
  358TIP3    H222490   3.969   1.004  11.870 -1.4384  1.0896 -1.9350
  359TIP3   OH222491   0.053   1.105   0.112  0.1618  0.2176 -0.1694
  359TIP3    H122492   0.091   1.028   0.154  0.6646 -1.4225 -3.4981
  359TIP3    H222493   0.073   1.177   0.172  0.2645 -2.0963  2.6764
  360TIP3   OH222494   0.712   4.556  13.358  0.0762  0.3113 -0.1406
  360TIP3    H122495   0.649   4.487  13.375  1.3348 -0.6515  0.6528
  360TIP3    H222496   0.729   4.550  13.264 -1.4076  0.9346 -0.4625
  361TIP3   OH222497   3.622   4.018  11.708 -0.3948  0.8500  0.2185
  361TIP3    H122498   3.671   4.049  11.632  0.3166 -1.8783 -0.4735
  361TIP3    H222499   3.530   4.026  11.683 -0.1628  0.1713 -0.8491
  362TIP3   OH222500   2.345   6.416  11.097  0.1480 -0.3112 -0.4343
  362TIP3    H122501   2.398   6.495  11.080  1.6453 -1.4435 -1.1277
  362TIP3    H222502   2.377   6.383  11.181  0.6504 -1.0930 -0.9345
  363TIP3   OH222503   6.004   5.464  17.135 -0.2668 -0.8892 -0.9166
  363TIP3    H122504   6.044   5.546  17.106 -1.0640 -0.7772 -1.7346
  363TIP3    H222505   6.035   5.452  17.225 -0.3151  0.4309 -0.7129
  364TIP3   OH222506   3.423   1.347   5.504  0.4538  0.0536  0.0238
  364TIP3    H122507   3.464   1.306   5.428  3.1693 -0.5454  1.7250
  364TIP3    H222508   3.373   1.276   5.545  2.0148 -0.6125  0.8243
  365TIP3   OH222509   5.940   1.850  13.237 -0.4442 -0.2481 -0.7441
  365TIP3    H122510   6.006   1.866  13.305 -0.4341  0.6432 -0.9546
  365TIP3    H222511   5.988   1.854  13.155 -0.5854 -0.6166 -0.8474
  366TIP3   OH222512   2.370   1.503  15.378  0.1965 -0.3164 -0.1794
  366TIP3    H122513   2.287   1.457  15.391 -1.0718  2.0891  0.6780
  366TIP3    H222514   2.389   1.493  15.285 -1.6880  0.0448 -0.6303
  367TIP3   OH222515   5.560   0.543  15.489 -0.4539 -0.4873  0.1162
  367TIP3    H122516   5.505   0.544  15.411 -1.0745 -1.3726  0.5311
  367TIP3    H222517   5.500   0.562  15.561  0.0326 -0.1301  0.4283
  368TIP3   OH222518   6.203   6.209   5.460 -0.3841  0.3397 -0.2547
  368TIP3    H122519   6.183   6.291   5.505 -2.7785  0.1306 -0.8752
  368TIP3    H222520   6.258   6.161   5.521 -2.2240  0.7485  1.7770
  369TIP3   OH222521   2.666   3.250  11.364 -0.1983 -0.1355 -0.3145
  369TIP3    H122522   2.702   3.310  11.429 -0.3713 -0.6060  0.2157
  369TIP3    H222523   2.735   3.242  11.298  0.4397 -0.6018  0.4181
  370TIP3   OH222524   0.298   6.719   3.592 -0.1170 -0.2214  0.0412
  370TIP3    H122525   0.226   6.678   3.640 -1.2228  1.4609 -0.1230
  370TIP3    H222526   0.363   6.741   3.659 -1.2594  1.3018  0.6664
  371TIP3   OH222527   0.540   4.640  16.145 -0.1250  0.5331 -0.3081
  371TIP3    H122528   0.550   4.696  16.222  1.1577  0.2106 -0.2285
  371TIP3    H222529   0.450   4.655  16.116 -0.0654  1.9718  0.2280
  372TIP3   OH222530   4.681   6.277  13.480 -0.2112  0.2662  0.0678
  372TIP3    H122531   4.588   6.262  13.498  0.0799  1.2661  2.5858
  372TIP3    H222532   4.683   6.362  13.436 -0.3398  1.2427  1.9010
  373TIP3   OH222533   6.049   1.022   4.395 -0.1657 -0.3561  0.7760
  373TIP3    H122534   6.052   0.969   4.475  1.9422 -0.4870  0.6372
  373TIP3    H222535   6.098   0.970   4.331 -0.7975  0.3157 -0.2535
  374TIP3   OH222536   0.962   1.153   5.294 -0.1228 -0.4997 -0.2559
  374TIP3    H122537   0.888   1.201   5.332 -0.5726 -3.1392  2.4581
  374TIP3    H222538   1.027   1.150   5.364  0.6049 -2.2529 -0.9817
  375TIP3   OH222539   1.871   4.902  10.927  0.4964 -0.0156  0.1679
  375TIP3    H122540   1.960   4.905  10.962  0.2319 -0.9738  0.9737
  375TIP3    H222541   1.872   4.831  10.864  0.3034 -0.0431  0.1950
  376TIP3   OH222542   2.973   4.075  16.443 -0.1401  0.2570 -0.8350
  376TIP3    H122543   3.069   4.070  16.444 -0.0866  1.2574  1.7838
  376TIP3    H222544   2.946   4.004  16.385  2.1303 -0.9815 -0.4377
  377TIP3   OH222545   2.055   1.801   2.596 -0.0472  0.2602  0.4645
  377TIP3    H122546   2.118   1.869   2.570  1.5329 -0.7912  1.4510
  377TIP3    H222547   2.078   1.725   2.542 -1.5217  0.3445 -0.3160
  378TIP3   OH222548   4.503   3.165  11.870  0.3135 -0.2293 -0.2993
  378TIP3    H122549   4.556   3.095  11.908  0.9919 -1.5078 -3.4419
  378TIP3    H222550   4.540   3.179  11.783 -2.0713  1.5935 -1.0808
  379TIP3   OH222551   0.104   6.764  12.009 -0.5397  0.5040 -0.0149
  379TIP3    H122552   0.113   6.725  11.923 -0.2058  0.2870  0.1202
  379TIP3    H222553   0.152   6.706  12.068 -0.1716  1.0341  0.2113
  380TIP3   OH222554   6.178   1.488  12.943  0.4721  0.1014 -0.7213
  380TIP3    H122555   6.234   1.436  13.001 -0.2728  0.8681  0.7037
  380TIP3    H222556   6.208   1.578  12.955  1.4585  0.0874 -2.8454
  381TIP3   OH222557   1.064   1.120   4.161  0.3276  0.2766 -0.9633
  381TIP3    H122558   1.158   1.106   4.174  0.7763  1.5663 -2.6863
  381TIP3    H222559   1.025   1.033   4.171  1.7637 -0.3396 -0.6726
  382TIP3   OH222560   1.183   4.401   1.785  0.0546  0.3744  0.6010
  382TIP3    H122561   1.152   4.378   1.872  0.9099 -0.5854  0.6657
  382TIP3    H222562   1.215   4.319   1.748  0.4154  0.9159 -0.3196
  383TIP3   OH222563   0.488   0.784  11.034  0.2385 -0.2832 -0.0829
  383TIP3    H122564   0.571   0.825  11.008  1.2421 -0.5505  2.5307
  383TIP3    H222565   0.513   0.722  11.102 -2.0580 -0.7857  0.3204
  384TIP3   OH222566   4.233   2.805   1.498  0.3391 -0.8328  0.1993
  384TIP3    H122567   4.149   2.803   1.545  0.4987 -0.3088  0.5064
  384TIP3    H222568   4.290   2.746   1.548  0.8788  0.6525  1.3747
  385TIP3   OH222569   6.635   3.952  11.150  0.1520 -0.6358  0.0677
  385TIP3    H122570   6.678   4.034  11.126 -0.0590 -0.9076 -1.2632
  385TIP3    H222571   6.686   3.919  11.224  1.9788 -0.7259 -1.2087
  386TIP3   OH222572   6.010   4.385   1.677  0.2183 -0.3329  0.6925
  386TIP3    H122573   6.001   4.337   1.759 -0.4884 -1.0711  0.1919
  386TIP3    H222574   5.997   4.477   1.701 -0.6184 -0.6074  1.2983
  387TIP3   OH222575   5.282   0.598   3.717 -0.3184 -0.1089 -0.3681
  387TIP3    H122576   5.212   0.660   3.737 -0.1795  0.1149 -0.5633
  387TIP3    H222577   5.359   0.653   3.703 -0.2438 -0.3117 -0.7555
  388TIP3   OH222578   1.941   4.766  15.663  0.2820 -0.4035 -0.0727
  388TIP3    H122579   1.999   4.718  15.723  0.3386 -1.6149 -1.0685
  388TIP3    H222580   1.917   4.701  15.597 -1.6583  0.2805 -0.0660
  389TIP3   OH222581   1.319   1.002   5.229 -0.6250  0.3321  0.3128
  389TIP3    H122582   1.256   1.062   5.271 -0.2815  0.1588  1.0932
  389TIP3    H222583   1.275   0.917   5.232 -1.4055  0.6569 -1.4240
  390TIP3   OH222584   2.497   2.243   4.932  0.1471  0.4435  0.1637
  390TIP3    H122585   2.522   2.313   4.872  0.0024 -0.8312 -1.4102
  390TIP3    H222586   2.483   2.287   5.016  1.2306  2.1198 -0.5117
  391TIP3   OH222587   2.434   4.091   4.969 -0.4712  0.0405 -0.8010
  391TIP3    H122588   2.454   4.123   5.057  1.1352 -1.3854 -0.6152
  391TIP3    H222589   2.452   4.164   4.911 -0.2036  0.5505 -0.0738
  392TIP3   OH222590   2.426   5.799   2.183 -0.7454 -0.2412 -0.3179
  392TIP3    H122591   2.342   5.837   2.156 -0.5522 -0.0974 -0.7321
  392TIP3    H222592   2.487   5.872   2.177 -0.5799 -0.3627 -0.0758
  393TIP3   OH222593   6.361   6.679   4.783  0.5978 -0.2609  0.3703
  393TIP3    H122594   6.366   6.752   4.844 -1.4372  1.5332 -1.5308
  393TIP3    H222595   6.449   6.674   4.744  0.4034  2.0765 -0.4598
  394TIP3   OH222596   0.243   4.347   4.074 -0.1064 -0.2972 -0.7415
  394TIP3    H122597   0.151   4.321   4.082 -1.1166  3.5539  1.4294
  394TIP3    H222598   0.286   4.309   4.150  0.2673 -2.4821 -1.9968
  395TIP3   OH222599   2.750   0.005   3.375  0.0047  0.3662 -0.1267
  395TIP3    H122600   2.778   0.037   3.290  2.4493 -0.4357  0.3492
  395TIP3    H222601   2.702   0.078   3.414  0.1478  1.2401 -1.5871
  396TIP3   OH222602   3.376   1.942   1.681 -0.2990  0.0605 -0.1128
  396TIP3    H122603   3.293   1.989   1.679 -0.7493 -0.6939  0.3594
  396TIP3    H222604   3.367   1.875   1.614 -0.3762 -0.5129  0.4638
  397TIP3   OH222605   1.673   2.069   1.248  0.2914  0.1686  0.6459
  397TIP3    H122606   1.650   2.162   1.256  1.1781  0.4521 -0.0486
  397TIP3    H222607   1.686   2.055   1.154  1.4208 -0.3502  0.8665
  398TIP3   OH222608   0.017   4.427  17.197 -0.1289 -0.5783  0.7499
  398TIP3    H122609   0.016   4.340  17.158 -1.0777 -0.0233 -0.5013
  398TIP3    H222610  -0.035   4.419  17.277 -0.9580 -0.9619  0.1756
  399TIP3   OH222611   4.702   3.730  12.378  0.6223 -0.1489  0.2035
  399TIP3    H122612   4.695   3.652  12.433 -2.0160 -0.6746 -0.7866
  399TIP3    H222613   4.681   3.699  12.290  0.2281  1.5498 -0.3224
  400TIP3   OH222614   3.872   4.146  10.825 -0.1734 -0.2730  0.0941
  400TIP3    H122615   3.910   4.233  10.841 -1.8771  0.1286  2.0778
  400TIP3    H222616   3.948   4.089  10.815  0.9689  1.2268 -0.0086
  401TIP3   OH222617   0.876   3.534  11.824  0.2905  0.4570  0.1358
  401TIP3    H122618   0.902   3.612  11.774  3.0616  0.0474  0.8482
  401TIP3    H222619   0.954   3.511  11.874  0.1312 -3.9476 -1.4992
  402TIP3   OH222620   0.533   2.934   1.889  0.3362 -0.5085 -0.2237
  402TIP3    H122621   0.567   2.863   1.944 -0.1809 -1.7750 -1.5064
  402TIP3    H222622   0.603   2.953   1.827  0.3856 -0.0292 -0.0296
  403TIP3   OH222623   1.331   1.792   5.794  0.5035  0.3959  0.4590
  403TIP3    H122624   1.305   1.779   5.885  1.8036  0.0261  0.7914
  403TIP3    H222625   1.255   1.765   5.743  0.2346 -0.6513  1.3952
  404TIP3   OH222626   0.875   3.070   1.469 -0.8175  0.6993 -0.2196
  404TIP3    H122627   0.950   3.129   1.475 -1.0745  1.0819 -0.7241
  404TIP3    H222628   0.804   3.125   1.435 -1.8849  0.8572  2.1992
  405TIP3   OH222629   1.823   4.851   1.269 -0.1018 -1.1926 -0.1711
  405TIP3    H122630   1.744   4.815   1.310 -1.8031  2.2924 -0.2013
  405TIP3    H222631   1.807   4.842   1.175  0.5161 -2.4594 -0.1597
  406TIP3   OH222632   4.732   1.636   0.152 -0.1999  0.0686 -0.3222
  406TIP3    H122633   4.663   1.602   0.096 -0.1208 -0.2090 -0.2528
  406TIP3    H222634   4.734   1.576   0.226  0.5852 -0.3236 -0.6620
  407TIP3   OH222635   2.676   2.522   0.682 -0.5431  0.5901 -0.0029
  407TIP3    H122636   2.713   2.478   0.606  2.3487  0.2855  1.5090
  407TIP3    H222637   2.737   2.592   0.703 -1.9688  1.5085  1.2537
  408TIP3   OH222638   1.230   4.695  15.063 -0.4058  0.2697 -0.1041
  408TIP3    H122639   1.147   4.653  15.039  0.5365 -0.8785 -1.4397
  408TIP3    H222640   1.211   4.789  15.060 -1.8098  0.0053  0.1916
  409TIP3   OH222641   0.762   3.002  10.881  0.0929 -0.0261 -0.8449
  409TIP3    H122642   0.841   2.951  10.898 -1.1371 -2.1481 -1.2664
  409TIP3    H222643   0.778   3.086  10.923  2.5807 -0.3995 -0.9525
  410TIP3   OH222644   2.829   2.603   1.874 -0.4019  0.4556  0.3329
  410TIP3    H122645   2.879   2.577   1.797  0.3703 -1.0766  1.3295
  410TIP3    H222646   2.803   2.694   1.856  1.4947  0.8009 -0.8206
  411TIP3   OH222647   1.942   3.582   0.565  0.1668  1.0783  0.1664
  411TIP3    H122648   2.025   3.626   0.587 -0.0871  1.5908  0.1142
  411TIP3    H222649   1.899   3.642   0.504  1.0493 -0.4957 -2.0852
  412TIP3   OH222650   5.219   2.192   2.397  0.0701 -0.2886 -0.0881
  412TIP3    H122651   5.214   2.222   2.488 -0.6122  0.6936 -0.4434
  412TIP3    H222652   5.139   2.142   2.383 -0.5702  0.8606 -0.6020
  413TIP3   OH222653   4.762   3.554  16.604  0.3845 -0.0485 -0.1922
  413TIP3    H122654   4.775   3.647  16.619  0.7393 -0.0140 -0.6910
  413TIP3    H222655   4.809   3.511  16.675 -0.6397  0.1724  0.6233
  414TIP3   OH222656   4.551   5.098  13.967  0.1944 -0.2588 -0.1768
  414TIP3    H122657   4.568   5.007  13.991  0.8453 -0.0679  0.0903
  414TIP3    H222658   4.475   5.094  13.909 -1.0445 -0.7650  1.4686
  415TIP3   OH222659   5.048   2.289   6.315  0.2871  0.3219  0.0287
  415TIP3    H122660   4.979   2.235   6.277  0.5071 -0.6394  0.9608
  415TIP3    H222661   5.124   2.231   6.317  0.3590  0.4680  1.6346
  416TIP3   OH222662   5.383   2.018   0.257  0.4689  0.5364 -0.5602
  416TIP3    H122663   5.361   1.945   0.200 -1.0355  1.1569 -0.8141
  416TIP3    H222664   5.433   2.078   0.202  0.7511  0.2022 -0.6635
  417TIP3   OH222665   4.456   4.934  10.699  0.8567  0.2043  0.3205
  417TIP3    H122666   4.410   4.861  10.740 -1.1307  0.7800 -0.8208
  417TIP3    H222667   4.496   4.897  10.620 -1.8670  0.7269 -1.3713
  418TIP3   OH222668   2.067   1.312   3.492  0.3415  0.0037 -0.3575
  418TIP3    H122669   2.065   1.318   3.397  2.6380 -0.0458 -0.4507
  418TIP3    H222670   2.143   1.365   3.517 -0.7133  0.6878  1.5167
  419TIP3   OH222671   2.678   5.559   2.378 -0.2949 -0.2712  0.2076
  419TIP3    H122672   2.623   5.634   2.402  0.6313  0.4811  0.0462
  419TIP3    H222673   2.760   5.574   2.425 -0.6655 -2.0434  1.4550
  420TIP3   OH222674   2.914   1.529   1.453 -0.3094  0.2761  0.4006
  420TIP3    H122675   2.984   1.566   1.398 -0.2573 -0.3771  0.0224
  420TIP3    H222676   2.949   1.534   1.542  0.2681 -0.1370  0.2037
  421TIP3   OH222677   0.653   0.731  17.077  0.4798  0.0665  0.1437
  421TIP3    H122678   0.714   0.776  17.136 -0.9089  0.0079  1.6820
  421TIP3    H222679   0.572   0.722  17.129 -0.8482  0.1861 -1.8482
  422TIP3   OH222680   1.199   4.023   2.008  0.5432 -0.3068 -0.0646
  422TIP3    H122681   1.170   3.962   1.940 -0.8508 -0.2801  0.4913
  422TIP3    H222682   1.281   4.058   1.974  0.8035 -1.6740 -0.8878
  423TIP3   OH222683   6.251   1.446  16.655 -0.6361  0.0577 -0.0468
  423TIP3    H122684   6.248   1.480  16.565 -0.4029  1.7492  0.5564
  423TIP3    H222685   6.332   1.483  16.691  0.0470 -1.8290  0.4031
  424TIP3   OH222686   4.721   5.336  12.860  0.3896 -0.3312 -0.0115
  424TIP3    H122687   4.790   5.305  12.919  0.1960 -0.6441  0.0542
  424TIP3    H222688   4.666   5.392  12.916 -0.7013 -1.9010  0.5250
  425TIP3   OH222689   1.059   3.372  11.991 -0.4061 -0.1133 -0.0080
  425TIP3    H122690   1.043   3.294  12.043 -0.3135  1.5345  2.5930
  425TIP3    H222691   1.153   3.372  11.975 -0.5566 -1.0723 -0.9517
  426TIP3   OH222692   4.469   2.806  14.599  0.0265  0.3874 -0.4899
  426TIP3    H122693   4.492   2.769  14.513  0.0007 -1.5612  0.3066
  426TIP3    H222694   4.379   2.838  14.589 -0.4671 -1.0725 -0.8192
  427TIP3   OH222695   3.675   4.580   4.243 -0.6369  0.3071  0.4432
  427TIP3    H122696   3.652   4.490   4.269 -1.4553 -0.0607 -1.4686
  427TIP3    H222697   3.597   4.612   4.198  0.6039  1.0561 -1.1982
  428TIP3   OH222698   6.656   0.828   2.028 -0.0266  0.0820 -0.3730
  428TIP3    H122699   6.662   0.918   2.061  1.2105  1.0364 -3.0004
  428TIP3    H222700   6.625   0.838   1.938  0.9588 -2.0603 -0.9949
  429TIP3   OH222701   5.883   2.010   3.983 -0.1516  0.1201 -0.4103
  429TIP3    H122702   5.826   2.073   3.940 -1.3502  0.5338  1.6959
  429TIP3    H222703   5.823   1.946   4.021  0.8615 -0.2533  0.5927
  430TIP3   OH222704   0.581   1.753  12.365 -0.5779 -0.4211  0.0460
  430TIP3    H122705   0.495   1.725  12.399 -0.4661  0.3360  0.9612
  430TIP3    H222706   0.564   1.776  12.274 -1.7120  1.3992  0.7001
  431TIP3   OH222707   5.766   5.488   3.592 -0.5240  0.4713 -0.8370
  431TIP3    H122708   5.842   5.448   3.635  0.4537  0.4028 -2.5774
  431TIP3    H222709   5.700   5.494   3.661  0.7473 -0.3108  0.4821
  432TIP3   OH222710   5.389   5.286  11.857 -0.1246  0.0141 -0.4855
  432TIP3    H122711   5.337   5.282  11.777 -0.2452  0.1107 -0.4121
  432TIP3    H222712   5.367   5.206  11.904  0.9939 -0.7304 -1.1984
  433TIP3   OH222713   5.725   2.924  10.684 -0.1520 -0.2300  0.0111
  433TIP3    H122714   5.801   2.895  10.734  0.0771  1.4408  0.6497
  433TIP3    H222715   5.718   2.861  10.613  0.9298 -1.2683  0.7985
  434TIP3   OH222716   5.718   5.797   6.824 -0.4644  0.4335 -0.1612
  434TIP3    H122717   5.808   5.828   6.814 -0.9847  1.4605 -1.8055
  434TIP3    H222718   5.726   5.714   6.872  1.4839 -0.4337 -1.9358
  435TIP3   OH222719   3.274   6.250  16.712  0.3581  0.1801  0.2477
  435TIP3    H122720   3.205   6.202  16.668  0.4191 -0.3112  0.6803
  435TIP3    H222721   3.296   6.196  16.788  1.9989 -0.2268 -0.4967
  436TIP3   OH222722   5.276   5.138   2.065  0.2718 -0.2970 -0.0946
  436TIP3    H122723   5.322   5.204   2.116 -1.9192 -0.0863  1.6705
  436TIP3    H222724   5.271   5.175   1.977 -0.3536  1.6186  0.7282
  437TIP3   OH222725   3.934   0.292   1.718 -0.2330  0.0629  0.5383
  437TIP3    H122726   3.990   0.215   1.726 -0.1738  0.1790  1.2383
  437TIP3    H222727   3.852   0.258   1.682 -0.3536 -0.3939  1.2407
  438TIP3   OH222728   6.442   2.781   2.164 -0.5215  0.7004 -0.4014
  438TIP3    H122729   6.530   2.813   2.146 -0.6745  1.0185 -0.5655
  438TIP3    H222730   6.453   2.686   2.172 -0.3159  0.6518 -1.2916
  439TIP3   OH222731   1.454   3.878   2.778 -0.7489  0.2918  0.0573
  439TIP3    H122732   1.548   3.865   2.771 -0.4656  1.9665  0.5608
  439TIP3    H222733   1.423   3.874   2.687 -0.1721 -0.0568 -0.1289
  440TIP3   OH222734   0.132   1.894   1.556  0.0672 -0.0335 -0.4725
  440TIP3    H122735   0.125   1.891   1.460  1.1630  0.3928 -0.5730
  440TIP3    H222736   0.107   1.983   1.579 -1.0687 -0.4020 -0.2849
  441TIP3   OH222737   4.717   4.119  16.136  0.5814  0.3337 -0.6921
  441TIP3    H122738   4.734   4.164  16.053  0.6374 -0.5154 -1.1440
  441TIP3    H222739   4.672   4.038  16.111  1.3730 -0.3429  0.0351
  442TIP3   OH222740   5.107   1.712  16.197 -0.1995  0.4764 -0.4721
  442TIP3    H122741   5.133   1.624  16.169  0.4037  0.9798 -1.5063
  442TIP3    H222742   5.019   1.700  16.233 -1.0362 -0.2031 -2.6418
  443TIP3   OH222743   5.527   3.659   5.564  0.0172 -0.3589 -0.3084
  443TIP3    H122744   5.535   3.678   5.657  0.0709 -0.1054 -0.3651
  443TIP3    H222745   5.559   3.570   5.555  0.1910 -0.3165 -0.1135
  444TIP3   OH222746   2.466   3.803  14.543 -0.3742  0.0107  0.0982
  444TIP3    H122747   2.436   3.747  14.471  0.9744 -0.3475 -0.1971
  444TIP3    H222748   2.402   3.874  14.546 -0.9963 -0.5015 -0.8180
  445TIP3   OH222749   3.509   0.913  13.661 -0.1920  0.8110 -0.5819
  445TIP3    H122750   3.545   0.880  13.743  1.3571 -0.7063 -1.8454
  445TIP3    H222751   3.428   0.958  13.686 -0.5285 -0.9660  1.5763
  446TIP3   OH222752   0.202   6.671   2.616  0.1766  0.5033  0.7409
  446TIP3    H122753   0.234   6.755   2.582  1.1679  0.9161  2.6434
  446TIP3    H222754   0.273   6.609   2.597  0.4299  0.5860  1.4041
  447TIP3   OH222755   3.163   5.724  17.031 -0.8897 -0.1138  0.0233
  447TIP3    H122756   3.072   5.710  17.057 -1.4105  0.2482 -1.5653
  447TIP3    H222757   3.189   5.803  17.078 -1.3107 -0.3792  0.7063
  448TIP3   OH222758   5.665   5.220  13.426 -0.0423  0.0776 -0.2318
  448TIP3    H122759   5.714   5.282  13.479 -0.7897 -1.0441  1.8257
  448TIP3    H222760   5.729   5.153  13.402  0.0854  0.0928  0.0651
  449TIP3   OH222761   6.202   1.644   5.508 -0.4733 -0.3553 -0.3556
  449TIP3    H122762   6.207   1.600   5.592  0.2256  2.7863  1.3529
  449TIP3    H222763   6.282   1.618   5.462 -0.7242 -1.8670  0.0686
  450TIP3   OH222764   3.490   4.295   2.455 -0.1387 -0.4151 -0.1977
  450TIP3    H122765   3.474   4.247   2.536  0.6005 -2.3126 -1.1543
  450TIP3    H222766   3.572   4.259   2.421 -1.6726 -1.3764 -3.0465
  451TIP3   OH222767   2.401   6.595  13.475 -0.1734  0.4063  0.1110
  451TIP3    H122768   2.334   6.605  13.408 -0.7957 -2.7740  0.1834
  451TIP3    H222769   2.467   6.538  13.435  0.9806  0.9990  1.1326
  452TIP3   OH222770   4.903   2.599  14.781 -0.0314 -0.1267 -0.1962
  452TIP3    H122771   4.829   2.540  14.769  1.8122 -2.2266 -1.4703
  452TIP3    H222772   4.880   2.678  14.731 -1.7649 -0.3963  0.1474
  453TIP3   OH222773   3.896   0.816  14.920  0.0000 -0.0432 -0.6834
  453TIP3    H122774   3.954   0.867  14.863 -0.6698 -0.3942 -1.6981
  453TIP3    H222775   3.954   0.758  14.968  0.6137  0.5126 -0.7502
  454TIP3   OH222776   5.045   0.255  15.455 -0.0284  0.0906 -0.3840
  454TIP3    H122777   5.029   0.328  15.395  0.5959 -0.3076 -1.0511
  454TIP3    H222778   5.109   0.201  15.409 -0.4480 -0.8489  0.1322
  455TIP3   OH222779   2.003   5.280  10.342  0.1813 -0.3543 -0.1252
  455TIP3    H122780   1.910   5.301  10.338 -0.0212 -0.6640  2.3172
  455TIP3    H222781   2.022   5.240  10.258 -1.7478  0.2544 -0.8812
  456TIP3   OH222782   5.260   0.061  14.309  0.3509  0.2331  0.2106
  456TIP3    H122783   5.330   0.024  14.363 -1.3390 -0.7272  1.8060
  456TIP3    H222784   5.259   0.154  14.333  0.7186  0.1494  0.5737
  457TIP3   OH222785   3.870   0.318   0.430  0.4034 -0.3594 -0.2969
  457TIP3    H122786   3.850   0.407   0.400  0.7946  0.2710  1.2837
  457TIP3    H222787   3.810   0.262   0.381 -0.3360  0.8425 -0.7768
  458TIP3   OH222788   4.568   6.109  11.359 -0.0554 -0.1686  0.0455
  458TIP3    H122789   4.532   6.185  11.405 -0.6342 -0.7418  0.5621
  458TIP3    H222790   4.521   6.107  11.276  1.0634  0.9282 -0.6285
  459TIP3   OH222791   2.003   2.134  16.248 -0.0430 -0.1467 -0.2275
  459TIP3    H122792   2.028   2.155  16.158  0.7815 -1.9269 -0.4515
  459TIP3    H222793   2.015   2.215  16.296  0.8769  0.4732 -1.4622
  460TIP3   OH222794   2.577   4.530  14.422 -0.1055  0.0377 -0.0118
  460TIP3    H122795   2.512   4.599  14.440 -0.0821 -0.8250  3.7647
  460TIP3    H222796   2.525   4.458  14.387 -0.9582 -0.0070  1.3041
  461TIP3   OH222797   6.300   0.106   2.525  0.6280 -0.5583 -0.0813
  461TIP3    H122798   6.292   0.012   2.544  0.1414  0.0301  2.7499
  461TIP3    H222799   6.210   0.136   2.515  0.7346 -0.1895  0.0686
  462TIP3   OH222800   3.198   2.064   6.088  0.3259  0.1969 -0.9683
  462TIP3    H122801   3.225   2.067   6.180 -1.4255  2.2954 -0.4738
  462TIP3    H222802   3.207   1.972   6.063  1.2049 -0.3279  1.1917
  463TIP3   OH222803   4.111   2.394  14.792  0.2591 -0.3816  0.1075
  463TIP3    H122804   4.167   2.471  14.804  1.0453 -0.9555  0.1369
  463TIP3    H222805   4.032   2.414  14.842  0.7314  0.1297  0.6537
  464TIP3   OH222806   6.695   3.864   6.042  0.0536 -0.2108 -0.1783
  464TIP3    H122807   6.650   3.940   6.077  0.2253  1.0651 -2.6889
  464TIP3    H222808   6.626   3.800   6.025 -0.2959  0.1188  0.0106
  465TIP3   OH222809   6.350   1.837  13.633 -0.4665 -0.0440 -0.1226
  465TIP3    H122810   6.349   1.745  13.658 -2.9927 -0.3277 -1.0631
  465TIP3    H222811   6.310   1.883  13.707 -0.9585  0.0297 -0.4250
  466TIP3   OH222812   6.357   5.944  11.412  0.5588  0.1255  0.5532
  466TIP3    H122813   6.282   5.993  11.446  2.4150  2.6368  1.1239
  466TIP3    H222814   6.393   5.901  11.490 -0.8477 -1.9430  0.1127
  467TIP3   OH222815   4.617   5.270   5.498  0.4063 -0.2739  0.6606
  467TIP3    H122816   4.536   5.321   5.505  1.0036  0.9552 -1.0325
  467TIP3    H222817   4.595   5.184   5.534 -1.8284 -0.1589 -0.3485
  468TIP3   OH222818   2.169   6.213   3.794 -0.1718 -0.3320 -0.3876
  468TIP3    H122819   2.245   6.193   3.740 -0.5467  1.4360 -1.6061
  468TIP3    H222820   2.106   6.251   3.733 -0.6867  1.4853  1.2524
  469TIP3   OH222821   5.989   4.501  14.030  0.2491 -0.0453 -0.6689
  469TIP3    H122822   6.047   4.478  13.957  0.6888  2.1795 -1.0506
  469TIP3    H222823   5.901   4.489  13.995  0.4531 -1.4718 -0.7326
  470TIP3   OH222824   4.876   1.783  13.081  0.2084  0.6733  0.5169
  470TIP3    H122825   4.947   1.846  13.096  2.0462 -1.2869  0.3414
  470TIP3    H222826   4.796   1.834  13.090  1.6629  3.2635 -0.6672
  471TIP3   OH222827   4.269   5.920  11.749 -0.0866  0.6130  0.1596
  471TIP3    H122828   4.236   5.895  11.662 -2.2901  0.7271  0.9175
  471TIP3    H222829   4.345   5.864  11.763 -1.1356 -1.1134 -0.8465
  472TIP3   OH222830   4.023   3.537   6.706  0.3300  0.8534 -0.1525
  472TIP3    H122831   4.004   3.553   6.613  0.2325 -1.8325 -0.6118
  472TIP3    H222832   4.116   3.513   6.708 -0.2247 -1.3548  0.1244
  473TIP3   OH222833   2.401   0.247   3.764 -0.2957  0.6106  0.3408
  473TIP3    H122834   2.423   0.305   3.691  0.4816 -0.5663 -0.3801
  473TIP3    H222835   2.360   0.171   3.723  1.1610 -0.5702  1.0020
  474TIP3   OH222836   5.751   4.346   1.037  0.1197 -0.0127  0.4787
  474TIP3    H122837   5.753   4.397   1.119 -1.0399  0.8250 -0.0054
  474TIP3    H222838   5.782   4.259   1.063  4.0179  1.4065  0.9490
  475TIP3   OH222839   4.029   6.412   5.081  0.5445 -0.4138 -0.2008
  475TIP3    H122840   3.975   6.389   5.156  2.0250  1.7366  1.5980
  475TIP3    H222841   4.007   6.347   5.014 -2.3329 -1.1090  1.3526
  476TIP3   OH222842   1.223   5.832   2.482 -0.7096 -0.5401  0.2963
  476TIP3    H122843   1.159   5.841   2.552 -0.4996  1.1049  0.2844
  476TIP3    H222844   1.230   5.919   2.443  1.2389 -0.7692  0.0499
  477TIP3   OH222845   5.021   0.566  12.910 -0.0578 -0.2679 -0.6594
  477TIP3    H122846   5.008   0.606  12.823 -0.5326 -0.2506 -0.5836
  477TIP3    H222847   5.016   0.639  12.971  0.3589 -0.2697 -0.6265
  478TIP3   OH222848   5.370   2.847  15.172  0.2789 -0.0582 -0.5512
  478TIP3    H122849   5.384   2.891  15.255  1.0252 -4.9143  2.0958
  478TIP3    H222850   5.458   2.842  15.133  0.3318  0.0763 -0.4500
  479TIP3   OH222851   3.047   5.150   4.161  0.7680  0.8045  0.1006
  479TIP3    H122852   3.089   5.153   4.247  0.3576  1.2767  0.2935
  479TIP3    H222853   3.075   5.231   4.119  1.1033  0.4918 -0.2769
  480TIP3   OH222854   0.514   1.889  15.628 -0.2602 -0.1331  0.2021
  480TIP3    H122855   0.518   1.843  15.712 -0.9551  0.8546  0.7895
  480TIP3    H222856   0.495   1.980  15.651 -3.3342 -0.3600 -1.1388
  481TIP3   OH222857   1.726   0.531   1.967 -0.2780  0.0722 -0.3398
  481TIP3    H122858   1.666   0.466   1.931 -0.7236  1.3424 -1.9414
  481TIP3    H222859   1.675   0.612   1.970  0.5143  0.5500  0.8866
  482TIP3   OH222860   5.794   4.586  13.415  0.5084 -0.1359  0.2282
  482TIP3    H122861   5.877   4.634  13.420  0.0715  0.9697 -2.2154
  482TIP3    H222862   5.806   4.527  13.340 -1.3364  0.9497 -0.9648
  483TIP3   OH222863   1.695   4.017  16.936  0.1911  0.1342 -0.0542
  483TIP3    H122864   1.614   4.015  16.885  0.1871 -1.7981 -0.0338
  483TIP3    H222865   1.690   4.097  16.988 -1.4287  0.3336 -0.5156
  484TIP3   OH222866   3.562   2.734  11.861  0.4968 -0.1251  0.3645
  484TIP3    H122867   3.619   2.794  11.813 -1.9073  1.8821 -0.0765
  484TIP3    H222868   3.572   2.650  11.816  0.7373  0.9472 -1.6280
  485TIP3   OH222869   3.735   0.887  14.212 -0.2263 -0.0503  0.1273
  485TIP3    H122870   3.804   0.821  14.208 -0.8998 -0.8847  1.7584
  485TIP3    H222871   3.662   0.843  14.255 -0.9274  1.5432  0.6219
  486TIP3   OH222872   0.187   3.209  12.409 -0.2940 -0.0758 -0.3126
  486TIP3    H122873   0.128   3.212  12.334  0.2037 -0.5937 -0.7315
  486TIP3    H222874   0.136   3.245  12.482 -0.5923  0.9762 -1.0269
  487TIP3   OH222875   6.405   0.631  11.850  0.1402 -0.1275  0.4547
  487TIP3    H122876   6.373   0.565  11.789 -1.4509  1.1215 -0.0858
  487TIP3    H222877   6.344   0.628  11.924  0.4175  0.3110  0.7079
  488TIP3   OH222878   0.152   0.082  15.786  0.2340 -0.1884  0.8183
  488TIP3    H122879   0.107   0.158  15.822  1.4539  0.1092  1.7441
  488TIP3    H222880   0.112   0.070  15.700  0.0579  1.5353  0.6290
  489TIP3   OH222881   3.735   3.182  16.959 -0.1241 -0.6337 -0.2246
  489TIP3    H122882   3.783   3.152  17.036  1.9023  1.9845 -0.3833
  489TIP3    H222883   3.648   3.203  16.992  0.6883  0.3727  1.4009
  490TIP3   OH222884   6.577   0.409   5.411 -0.0170 -0.2789 -0.1492
  490TIP3    H122885   6.484   0.390   5.402  0.1386 -0.1973 -2.1929
  490TIP3    H222886   6.609   0.417   5.321  2.0872 -0.8836  0.5050
  491TIP3   OH222887   2.964   2.230  13.759  0.0686  0.4557  0.4179
  491TIP3    H122888   2.897   2.163  13.768 -0.4099  1.0366  1.2382
  491TIP3    H222889   2.933   2.287  13.688  0.5508 -0.2708 -0.3828
  492TIP3   OH222890   6.386   3.120   2.643  0.2422 -0.2435  0.5222
  492TIP3    H122891   6.364   3.058   2.713  2.0956 -1.1863  0.2981
  492TIP3    H222892   6.390   3.066   2.564  0.3638  0.4222  0.0740
  493TIP3   OH222893   2.954   6.506   5.485  0.2638  0.0147 -0.4742
  493TIP3    H122894   2.946   6.536   5.394 -1.3852 -1.3321 -0.7744
  493TIP3    H222895   3.004   6.425   5.479  2.4657  1.2720  0.1061
  494TIP3   OH222896   4.681   3.860  15.956 -1.0116  0.5928 -0.3159
  494TIP3    H122897   4.769   3.874  15.920 -1.1313 -1.4850 -1.4991
  494TIP3    H222898   4.696   3.830  16.046 -0.5520  1.0780 -0.2266
  495TIP3   OH222899   0.769   6.646   3.185 -0.0569  0.0671 -0.6167
  495TIP3    H122900   0.725   6.685   3.109 -0.3427  0.6202 -0.1681
  495TIP3    H222901   0.731   6.558   3.191 -0.7213  0.3557 -0.5485
  496TIP3   OH222902   2.069   3.489   3.449  0.0511  0.6088 -0.5477
  496TIP3    H122903   1.984   3.511   3.487 -0.1760 -0.8096 -0.2004
  496TIP3    H222904   2.081   3.552   3.378 -0.4713  1.9554  0.5551
  497TIP3   OH222905   6.553   6.015   0.424 -0.4369  0.6291  0.1052
  497TIP3    H122906   6.642   5.982   0.408 -0.5237  0.4447  0.0021
  497TIP3    H222907   6.552   6.102   0.384 -0.7764  0.0125 -1.2438
  498TIP3   OH222908   6.315   6.060  14.411 -0.3248  0.4651  0.3922
  498TIP3    H122909   6.375   6.072  14.485  0.3906 -0.3897 -0.0366
  498TIP3    H222910   6.234   6.027  14.451  0.2314 -0.5066  0.7522
  499TIP3   OH222911   4.217   5.529   2.502  0.1627 -0.2684  0.5629
  499TIP3    H122912   4.188   5.554   2.414  0.4816 -3.7460 -0.6143
  499TIP3    H222913   4.296   5.582   2.517 -0.6062  1.2735 -0.7271
  500TIP3   OH222914   6.314   1.259   4.452  0.2156 -0.0710  0.1264
  500TIP3    H122915   6.276   1.311   4.381  0.8912  0.2285 -0.0275
  500TIP3    H222916   6.243   1.246   4.514  0.2247  1.6857  0.5274
  501TIP3   OH222917   5.291   2.160   5.192  0.0516 -0.3805 -0.1466
  501TIP3    H122918   5.261   2.090   5.134  1.3487  0.6702 -2.1408
  501TIP3    H222919   5.340   2.219   5.135 -0.7484  1.9987  1.5425
  502TIP3   OH222920   4.494   5.909   2.624  0.1414 -0.3983 -0.0372
  502TIP3    H122921   4.531   5.937   2.708  0.5758 -0.6842 -0.1318
  502TIP3    H222922   4.421   5.970   2.608  0.2795 -0.1239  0.3748
  503TIP3   OH222923   6.619   0.037   4.405  0.5159 -0.9502 -0.6544
  503TIP3    H122924   6.524   0.038   4.420 -0.0631  1.2519 -3.9311
  503TIP3    H222925   6.657   0.072   4.486 -1.8013  2.6279 -1.0308
  504TIP3   OH222926   2.350   1.163  15.624 -0.1243  0.1509 -0.0363
  504TIP3    H122927   2.332   1.168  15.530 -1.6027  0.4830  0.2549
  504TIP3    H222928   2.362   1.069  15.640 -1.5400 -0.0850 -0.2654
  505TIP3   OH222929   0.760   1.563  13.983 -0.8481 -0.4081 -0.2268
  505TIP3    H122930   0.684   1.608  14.020 -1.3473 -0.6351 -0.9747
  505TIP3    H222931   0.827   1.571  14.051 -1.4944 -0.0958  0.3877
  506TIP3   OH222932   1.628   5.494   3.627 -0.3656  0.5814  0.3097
  506TIP3    H122933   1.547   5.522   3.584 -1.0743  1.0257  1.9111
  506TIP3    H222934   1.608   5.495   3.720  1.1179 -0.5066  0.6645
  507TIP3   OH222935   1.014   3.680  13.078  0.2915 -0.3256 -0.1979
  507TIP3    H122936   0.987   3.682  13.170 -0.6913  0.3877 -0.4941
  507TIP3    H222937   1.108   3.659  13.081  0.6437  1.3557  1.0480
  508TIP3   OH222938   2.713   3.071  11.777 -0.3461  0.1258 -0.5927
  508TIP3    H122939   2.717   3.004  11.846  0.7396  0.5683 -0.2306
  508TIP3    H222940   2.755   3.030  11.701 -1.0771 -0.1686 -0.8476
  509TIP3   OH222941   3.297   4.371  13.962  0.3426  0.2810  0.0223
  509TIP3    H122942   3.241   4.441  13.928  0.6475  1.0915  1.1789
  509TIP3    H222943   3.360   4.415  14.018  1.7104 -0.7177 -0.7125
  510TIP3   OH222944   6.090   0.368   4.669  0.0080  0.5923 -0.4918
  510TIP3    H122945   5.999   0.392   4.685  0.0427 -1.1435  2.5832
  510TIP3    H222946   6.095   0.275   4.691  2.5228  0.6746 -0.5840
  511TIP3   OH222947   5.219   6.229  13.514  0.1734 -0.4831 -0.2489
  511TIP3    H122948   5.195   6.164  13.448  0.5987 -1.0594  0.1696
  511TIP3    H222949   5.226   6.180  13.596 -2.5426  0.5559  0.6942
  512TIP3   OH222950   6.062   2.058   4.889 -0.2910 -0.4498 -0.2207
  512TIP3    H122951   6.083   1.967   4.909 -0.7255  0.1535  3.1643
  512TIP3    H222952   5.967   2.065   4.902 -0.1604  0.6415  0.2527
  513TIP3   OH222953   1.156   0.971   5.973  0.0085  0.1681 -0.2393
  513TIP3    H122954   1.125   0.998   6.059 -0.3648 -1.8899  0.3024
  513TIP3    H222955   1.083   0.987   5.914  0.0680  1.0465 -0.0792
  514TIP3   OH222956   0.790   0.219  15.715 -0.1693 -0.2303 -0.0969
  514TIP3    H122957   0.802   0.124  15.702 -1.8687 -0.1667 -2.4949
  514TIP3    H222958   0.870   0.258  15.679 -0.4268 -0.6594 -1.1690
  515TIP3   OH222959   0.345   6.421   0.599  0.0477  0.3643 -0.2981
  515TIP3    H122960   0.348   6.326   0.607 -0.5966  0.4284  0.8253
  515TIP3    H222961   0.303   6.437   0.515  0.2726 -0.3433 -0.5509
  516TIP3   OH222962   1.474   0.457  14.894 -0.2269  0.4377  0.2872
  516TIP3    H122963   1.405   0.412  14.846 -0.4482 -0.4538  1.4059
  516TIP3    H222964   1.544   0.470  14.830 -0.0883 -1.6702 -0.0259
  517TIP3   OH222965   0.809   0.807  10.373  0.7621 -0.0057 -0.0634
  517TIP3    H122966   0.884   0.865  10.378  1.1079 -0.5702  1.5395
  517TIP3    H222967   0.827   0.739  10.438 -0.7494 -0.5930 -0.2442
  518TIP3   OH222968   6.707   4.418   2.405  0.4305 -0.2218 -0.3743
  518TIP3    H122969   6.717   4.370   2.487 -2.5821 -3.7585 -1.9215
  518TIP3    H222970   6.646   4.488   2.426 -0.7578 -1.4362  0.3281
  519TIP3   OH222971   4.660   4.533   3.099  0.2781  0.0581 -0.2173
  519TIP3    H122972   4.701   4.507   3.182  0.9185 -0.9455 -0.8456
  519TIP3    H222973   4.707   4.614   3.075  1.1951 -0.5269 -0.4125
  520TIP3   OH222974   3.196   1.312  13.215  0.2489 -0.1830 -0.2972
  520TIP3    H122975   3.153   1.275  13.138  0.2708 -0.9230  0.0421
  520TIP3    H222976   3.267   1.366  13.180 -0.2931  0.1949 -0.8219
  521TIP3   OH222977   1.231   3.703   2.411  0.4183 -0.2488  0.0926
  521TIP3    H122978   1.254   3.794   2.429 -0.2874  0.2968 -1.6378
  521TIP3    H222979   1.307   3.668   2.365  0.6332 -0.5045  0.6348
  522TIP3   OH222980   3.470   3.084  16.996 -0.3369  0.2944 -0.1670
  522TIP3    H122981   3.400   3.025  17.026  0.4059 -1.1774 -1.2843
  522TIP3    H222982   3.503   3.124  17.077 -0.9959 -0.6664  0.5947
  523TIP3   OH222983   5.334   3.439  16.733 -0.4088  0.5103  0.0615
  523TIP3    H122984   5.289   3.433  16.817  1.3665  1.3493  1.1035
  523TIP3    H222985   5.398   3.368  16.735  1.6278  2.2820  0.7014
  524TIP3   OH222986   5.697   1.780  12.881  0.3954 -0.3057  0.1448
  524TIP3    H122987   5.665   1.736  12.959 -0.4418  0.3563  0.1757
  524TIP3    H222988   5.689   1.715  12.812  1.3180 -0.9605  0.6383
  525TIP3   OH222989   3.794   6.607  15.055  0.4750  0.0867  0.1037
  525TIP3    H122990   3.841   6.599  15.138  0.0945  1.7162  0.4912
  525TIP3    H222991   3.768   6.517  15.034  0.0728 -0.2842  2.0468
  526TIP3   OH222992   0.447   0.126   1.528  0.2589  0.3067 -0.0675
  526TIP3    H122993   0.513   0.135   1.459  1.5562  3.2259  1.4972
  526TIP3    H222994   0.494   0.089   1.602 -0.4721 -0.0179  0.2427
  527TIP3   OH222995   0.209   5.722  16.964  0.3816  0.1999  0.1762
  527TIP3    H122996   0.243   5.803  17.001  1.2142  0.1261 -0.4255
  527TIP3    H222997   0.286   5.667  16.950 -0.0134 -0.1065 -0.8505
  528TIP3   OH222998   5.482   6.687  14.782 -0.2854 -0.1218 -0.7567
  528TIP3    H122999   5.443   6.733  14.856  1.4215 -0.6048  0.4843
  528TIP3    H223000   5.576   6.697  14.794  0.2330 -4.7725  0.1592
  529TIP3   OH223001   1.235   0.062   1.847 -0.0693 -0.4621 -0.1578
  529TIP3    H123002   1.209   0.045   1.937 -1.6896 -1.2509 -0.7478
  529TIP3    H223003   1.296  -0.009   1.826  1.2513  0.3912  0.6638
  530TIP3   OH223004   5.365   1.415   5.040  0.6335 -0.6388  0.3587
  530TIP3    H123005   5.299   1.346   5.043  1.7350 -1.7419  0.0592
  530TIP3    H223006   5.396   1.423   5.130 -0.0606  0.0333  0.5386
  531TIP3   OH223007   1.085   2.526   1.729 -0.3291 -0.5776 -0.1680
  531TIP3    H123008   1.046   2.509   1.815  1.3717 -0.3077  0.6859
  531TIP3    H223009   1.098   2.439   1.691  1.1961 -0.8384  0.9078
  532TIP3   OH223010   3.307   2.675   6.226  0.1330 -0.2781  0.0256
  532TIP3    H123011   3.319   2.599   6.283 -2.2712  0.2090  1.2204
  532TIP3    H223012   3.314   2.750   6.284 -2.7627  0.2148 -0.1846
  533TIP3   OH223013   2.507   2.310  13.415  0.0302 -0.1369 -0.1881
  533TIP3    H123014   2.505   2.243  13.347 -0.3385  0.5355 -0.8529
  533TIP3    H223015   2.443   2.375  13.386 -1.3464 -0.6156  1.6129
  534TIP3   OH223016   2.252   5.406  13.754  0.0368  0.6775 -0.2840
  534TIP3    H123017   2.163   5.413  13.788 -0.1971  0.7373 -0.9043
  534TIP3    H223018   2.263   5.313  13.732  0.0222  0.7287 -0.5040
  535TIP3   OH223019   3.197   6.685  11.914 -0.0667 -0.5439  0.0390
  535TIP3    H123020   3.275   6.686  11.859 -0.8347  1.7700 -1.0846
  535TIP3    H223021   3.226   6.721  11.998 -0.1044  1.2291 -0.6836
  536TIP3   OH223022   5.984   2.830  12.851  0.1645  0.2558 -0.1328
  536TIP3    H123023   6.009   2.911  12.807 -1.0391  1.1727  0.8218
  536TIP3    H223024   6.023   2.836  12.938 -3.1396  1.7090  1.3766
  537TIP3   OH223025   6.758   4.968   0.864 -0.1200  0.8389  0.0619
  537TIP3    H123026   6.722   4.880   0.877  1.3370  0.2662  0.3641
  537TIP3    H223027   6.850   4.952   0.841  0.1877  2.2951  0.2775
  538TIP3   OH223028   0.316   6.598   4.642 -0.4185 -0.0567  0.2292
  538TIP3    H123029   0.269   6.609   4.724 -0.2736  1.2962  0.1571
  538TIP3    H223030   0.390   6.659   4.648 -0.6113  0.3305 -1.0313
  539TIP3   OH223031   1.442   3.219  12.245  0.4335  0.1109  0.8215
  539TIP3    H123032   1.394   3.136  12.243  0.3546  0.1710  0.1946
  539TIP3    H223033   1.375   3.286  12.239  0.7104  0.1683 -2.2649
  540TIP3   OH223034   4.185   6.254  11.588  0.4638  0.0440  0.4208
  540TIP3    H123035   4.161   6.246  11.681 -0.0701  3.8852  0.6782
  540TIP3    H223036   4.276   6.283  11.589  1.7320 -3.6444 -0.3984
  541TIP3   OH223037   2.030   2.353  11.722 -0.0031  0.0388 -0.2532
  541TIP3    H123038   2.069   2.440  11.735 -0.0006  0.0028 -0.0115
  541TIP3    H223039   2.102   2.300  11.688 -0.1539  0.2778 -0.9639
  542TIP3   OH223040   2.191   0.818   3.548 -0.2662  0.4005  0.1187
  542TIP3    H123041   2.265   0.876   3.568 -1.6013  2.6615 -1.2889
  542TIP3    H223042   2.226   0.755   3.485  0.8218  0.5518  0.5623
  543TIP3   OH223043   4.351   4.772  15.326 -0.2403  0.4330  0.0778
  543TIP3    H123044   4.290   4.843  15.307 -0.7263 -0.0736 -0.2538
  543TIP3    H223045   4.387   4.795  15.412 -0.3279  1.1250 -0.0640
  544TIP3   OH223046   1.781   6.620   3.874  0.2014 -0.4497  0.4500
  544TIP3    H123047   1.819   6.702   3.842 -0.3444 -0.8098 -1.1771
  544TIP3    H223048   1.776   6.632   3.969  0.5731  1.2159  0.2891
  545TIP3   OH223049   2.160   3.272   0.507  0.0855  0.3597 -0.1038
  545TIP3    H123050   2.171   3.367   0.516  0.7536  0.1822  1.1725
  545TIP3    H223051   2.161   3.240   0.598  1.0917 -0.9902 -0.5723
  546TIP3   OH223052   2.682   1.567  15.067 -0.1808  0.2753 -0.3410
  546TIP3    H123053   2.758   1.526  15.108 -1.1058 -0.4780  0.6478
  546TIP3    H223054   2.631   1.494  15.032  0.5105  0.8831 -2.7630
  547TIP3   OH223055   0.318   5.013  14.244  0.2618 -0.0581 -0.4294
  547TIP3    H123056   0.320   4.935  14.299 -0.7872 -1.1850 -1.9378
  547TIP3    H223057   0.304   5.085  14.305  2.6329 -0.8629  1.1481
  548TIP3   OH223058   4.300   5.008   2.536  0.0503  0.5858 -0.1958
  548TIP3    H123059   4.269   5.097   2.523 -0.2416  0.8970  2.3679
  548TIP3    H223060   4.394   5.012   2.518  0.1999  1.6131  0.7720
  549TIP3   OH223061   0.184   3.767  12.001 -0.1617 -0.0915 -0.2020
  549TIP3    H123062   0.187   3.681  11.958 -0.4515  0.6438 -1.7281
  549TIP3    H223063   0.092   3.778  12.026 -0.5965  0.7356 -2.0587
  550TIP3   OH223064   4.179   1.410  12.391 -0.3210  0.1863  0.0849
  550TIP3    H123065   4.235   1.454  12.456  0.8967 -0.1358 -0.7219
  550TIP3    H223066   4.199   1.317  12.402 -2.0303 -0.0751  0.9973
  551TIP3   OH223067   6.266   5.656  15.119 -0.3778 -0.1488  0.1278
  551TIP3    H123068   6.229   5.669  15.206  0.3107  2.6322  0.0699
  551TIP3    H223069   6.360   5.648  15.133 -0.1375  1.4475 -0.4189
  552TIP3   OH223070   2.840   1.187   5.095 -0.0217  0.6970 -0.2104
  552TIP3    H123071   2.841   1.258   5.159  1.2013  0.7058 -0.2315
  552TIP3    H223072   2.920   1.137   5.112 -0.9461 -0.7723 -0.1040
  553TIP3   OH223073   3.943   4.305   3.438  0.3087  0.0430  0.1806
  553TIP3    H123074   3.946   4.292   3.533  2.1309 -0.6989  0.0449
  553TIP3    H223075   4.018   4.362   3.419  0.4887 -0.5560 -0.9316
  554TIP3   OH223076   5.512   3.372   5.214  0.2566 -0.6945  0.0306
  554TIP3    H123077   5.527   3.402   5.304  0.6786 -1.7338  0.3017
  554TIP3    H223078   5.442   3.429   5.182 -0.7580 -1.1264  1.4306
  555TIP3   OH223079   5.383   0.338  14.146 -0.0957  0.1101  0.2243
  555TIP3    H123080   5.473   0.313  14.166  0.1491  1.4206  0.7865
  555TIP3    H223081   5.347   0.368  14.229 -0.8466  0.2015 -0.1303
  556TIP3   OH223082   6.624   0.135  12.664  0.3600  0.0227  0.6276
  556TIP3    H123083   6.617   0.053  12.615  1.9545  0.2038  0.0649
  556TIP3    H223084   6.544   0.138  12.717 -0.0954 -1.4987  0.0625
  557TIP3   OH223085   0.525   6.187   1.193  0.1639 -0.3832 -0.5909
  557TIP3    H123086   0.574   6.188   1.110 -0.7529 -0.1340 -1.1400
  557TIP3    H223087   0.475   6.269   1.191  0.9608  0.1388  0.7134
  558TIP3   OH223088   4.265   2.916  12.694  0.0691  0.1016 -0.8338
  558TIP3    H123089   4.227   2.970  12.764 -0.7462  0.9480 -1.9200
  558TIP3    H223090   4.356   2.944  12.689 -0.0750  0.5969 -0.6590
  559TIP3   OH223091   2.455   1.109   3.152 -0.1309  0.7436 -0.0785
  559TIP3    H123092   2.382   1.135   3.095  0.0459  0.2684 -0.5262
  559TIP3    H223093   2.446   1.015   3.161 -0.4422  0.8754  1.0835
  560TIP3   OH223094   4.994   4.933   4.802 -0.0417 -0.2864 -0.1582
  560TIP3    H123095   4.950   4.865   4.852 -0.6232 -0.8176 -1.3805
  560TIP3    H223096   5.021   4.891   4.721  1.0843  0.5144 -0.2280
  561TIP3   OH223097   3.594   1.881  14.422 -0.4300  0.7755 -0.0263
  561TIP3    H123098   3.661   1.826  14.382  1.3855  1.4938  1.9409
  561TIP3    H223099   3.536   1.904  14.350  0.1661 -1.6695 -1.3528
  562TIP3   OH223100   3.808   2.575  12.112  0.2946 -0.3717 -0.2241
  562TIP3    H123101   3.848   2.581  12.199  0.6041  0.0000 -0.3911
  562TIP3    H223102   3.715   2.560  12.130  0.3308 -0.1383  0.1753
  563TIP3   OH223103   2.675   5.489  11.573 -0.1010  0.2150  0.0723
  563TIP3    H123104   2.640   5.569  11.535 -0.0904  0.7705  1.2354
  563TIP3    H223105   2.761   5.513  11.606  1.1346 -0.9866 -2.1563
  564TIP3   OH223106   1.855   1.437   4.388 -0.6867  0.4026  0.4547
  564TIP3    H123107   1.929   1.486   4.425 -0.6924  1.1047 -0.4339
  564TIP3    H223108   1.841   1.478   4.303 -0.2825 -1.5911 -0.5902
  565TIP3   OH223109   1.547   5.941  13.581  0.5147  0.2205 -0.3384
  565TIP3    H123110   1.560   5.850  13.555 -0.3769  0.0805 -0.3135
  565TIP3    H223111   1.598   5.950  13.661  0.9318 -0.1442 -0.5575
  566TIP3   OH223112   6.604   1.585  11.057 -0.1501 -0.3002  0.7438
  566TIP3    H123113   6.590   1.556  10.966 -1.1908 -0.0050  0.8012
  566TIP3    H223114   6.563   1.516  11.110 -1.2824  0.5059  0.9284
  567TIP3   OH223115   0.063   0.916  12.158 -0.1644 -0.0006 -0.3936
  567TIP3    H123116   0.037   0.825  12.146 -0.7191 -0.1969  2.0493
  567TIP3    H223117  -0.010   0.966  12.121 -1.6673 -0.5722  1.6718
  568TIP3   OH223118   1.734   6.698   6.080 -0.2467 -0.3864 -0.3892
  568TIP3    H123119   1.745   6.749   6.160 -1.8181  0.0261 -0.4148
  568TIP3    H223120   1.665   6.635   6.102  0.2021 -1.0989 -1.0258
  569TIP3   OH223121   6.337   2.915   5.223 -0.1526 -0.4040  0.0550
  569TIP3    H123122   6.352   3.008   5.211 -0.9276 -0.1917  0.6842
  569TIP3    H223123   6.417   2.873   5.193 -0.0809  0.4176 -0.9180
  570TIP3   OH223124   4.439   3.722  14.253 -0.0340  0.3374 -0.2816
  570TIP3    H123125   4.412   3.798  14.202  2.3978  0.7851 -0.9633
  570TIP3    H223126   4.522   3.748  14.292  0.0337 -1.4050  0.7620
  571TIP3   OH223127   4.023   0.240   4.176 -0.2270  0.5165 -0.2320
  571TIP3    H123128   4.067   0.216   4.257  0.5492  0.1119 -0.7677
  571TIP3    H223129   4.019   0.336   4.178 -0.4332  0.4924  0.3955
  572TIP3   OH223130   3.411   2.616  17.147  0.1992  0.0872 -0.4519
  572TIP3    H123131   3.454   2.531  17.136  1.7000  0.9087 -1.1217
  572TIP3    H223132   3.385   2.641  17.058  3.0014  1.9608 -0.7944
  573TIP3   OH223133   3.714   5.973  13.397 -0.3879 -0.1819  0.2656
  573TIP3    H123134   3.661   6.000  13.472  1.4677 -3.1367  2.7093
  573TIP3    H223135   3.804   5.990  13.423  0.1569  0.9585 -2.2470
  574TIP3   OH223136   6.586   5.853  14.489 -0.6146  0.2184 -0.3576
  574TIP3    H123137   6.567   5.874  14.398 -0.0742 -1.5205 -0.8909
  574TIP3    H223138   6.502   5.829  14.527 -0.6346 -0.3424 -0.7576
  575TIP3   OH223139   4.562   4.008  11.530  0.0574 -0.1741 -0.4932
  575TIP3    H123140   4.524   4.007  11.617  0.6512  0.7494 -0.2212
  575TIP3    H223141   4.582   4.100  11.513 -0.4216 -0.2993 -1.7585
  576TIP3   OH223142   2.259   3.912   3.820 -0.4276 -0.0252  0.1117
  576TIP3    H123143   2.208   3.887   3.897 -0.5119  0.1187  0.1014
  576TIP3    H223144   2.334   3.852   3.821 -0.1611  0.3144  0.5852
  577TIP3   OH223145   1.029   3.698  14.722  0.3062  0.0410  0.0394
  577TIP3    H123146   1.115   3.708  14.764  0.5864 -0.8260 -0.3138
  577TIP3    H223147   0.987   3.783  14.734  1.6444  0.8477 -0.7468
  578TIP3   OH223148   6.340   3.531  11.599  0.4697  0.0543 -0.1114
  578TIP3    H123149   6.375   3.620  11.594 -0.8052  0.5237 -0.9502
  578TIP3    H223150   6.338   3.512  11.693  1.8812  0.4460  0.0055
  579TIP3   OH223151   6.479   5.204  16.825  0.3238 -0.5104  0.0344
  579TIP3    H123152   6.508   5.290  16.794  0.8801 -1.4436 -2.1396
  579TIP3    H223153   6.539   5.183  16.897  0.9342  0.3974 -0.2001
  580TIP3   OH223154   5.208   5.552   5.907  0.2912 -0.1071 -0.5668
  580TIP3    H123155   5.234   5.643   5.916  0.2504 -0.1919  0.3939
  580TIP3    H223156   5.239   5.527   5.820 -0.2596  1.0092 -1.0978
  581TIP3   OH223157   5.419   4.889  11.705 -0.5367  0.5265 -1.2462
  581TIP3    H123158   5.335   4.930  11.726  0.1118  2.4171 -2.2069
  581TIP3    H223159   5.477   4.962  11.683  1.8741 -0.5791  1.0420
  582TIP3   OH223160   4.361   4.969   4.871 -0.6460 -0.2565  0.4787
  582TIP3    H123161   4.284   5.025   4.857  0.3788  1.2754  0.7682
  582TIP3    H223162   4.422   5.026   4.918  0.4624 -1.6259  0.7013
  583TIP3   OH223163   3.006   3.448  13.028 -0.3816 -0.1612 -0.7501
  583TIP3    H123164   2.910   3.457  13.032 -0.4434 -0.6329 -1.0389
  583TIP3    H223165   3.020   3.377  12.965  0.1509 -0.2664 -0.5147
  584TIP3   OH223166   1.168   3.167  14.951  0.3905 -0.1809 -0.4717
  584TIP3    H123167   1.158   3.260  14.971  0.0854 -0.5123  0.9433
  584TIP3    H223168   1.101   3.149  14.885 -0.3675  0.3278  0.1630
  585TIP3   OH223169   2.735   6.041  13.325  0.4599  0.5003 -0.0738
  585TIP3    H123170   2.641   6.059  13.330  0.3065 -0.6186  1.3204
  585TIP3    H223171   2.756   6.045  13.231 -0.9332  0.9172 -0.3713
  586TIP3   OH223172   0.068   0.309   4.961  0.2846 -0.2967 -0.2755
  586TIP3    H123173   0.107   0.283   4.878  1.6619 -0.6802  0.4794
  586TIP3    H223174   0.008   0.237   4.983  0.3967 -0.4976 -0.6241
  587TIP3   OH223175   5.617   4.700  16.919 -0.0176  0.2315  0.8016
  587TIP3    H123176   5.541   4.758  16.922  1.1347  1.7925  0.6331
  587TIP3    H223177   5.682   4.743  16.975  1.1391 -0.4787  0.0314
  588TIP3   OH223178   5.873   2.045  11.722  0.4222 -0.1533  0.1571
  588TIP3    H123179   5.804   2.029  11.786  1.4219 -1.5888  0.8911
  588TIP3    H223180   5.837   2.114  11.665 -2.1364 -1.7636 -0.2637
  589TIP3   OH223181   0.374   5.027   3.972 -0.0057 -0.1693 -0.6154
  589TIP3    H123182   0.393   4.936   3.995 -0.5682 -0.7958 -2.5465
  589TIP3    H223183   0.415   5.078   4.042 -0.8526 -1.9418  1.2490
  590TIP3   OH223184   3.660   0.110   2.901 -0.5931 -0.2373  0.0379
  590TIP3    H123185   3.617   0.170   2.962  1.2028 -1.0575  2.1797
  590TIP3    H223186   3.735   0.160   2.867 -0.5826 -0.3794 -0.1481
  591TIP3   OH223187   2.943   3.708  17.085 -0.3633  0.6852 -0.0034
  591TIP3    H123188   2.852   3.682  17.076 -0.4091  0.1772  1.8324
  591TIP3    H223189   2.945   3.766  17.161  0.2263  3.7860 -2.2822
  592TIP3   OH223190   2.562   0.223   0.088 -0.5153  0.9138 -0.1416
  592TIP3    H123191   2.593   0.313   0.076  1.6433  0.3883  1.2641
  592TIP3    H223192   2.530   0.221   0.179  2.0065 -0.4344  0.7562
  593TIP3   OH223193   5.904   4.346  12.467 -0.4169  0.6086 -0.3081
  593TIP3    H123194   5.941   4.272  12.515  1.4992  0.8155 -1.3890
  593TIP3    H223195   5.901   4.417  12.531  1.7833  0.7812 -0.3530
  594TIP3   OH223196   1.906   2.661  16.076  0.2731 -0.6973  0.2115
  594TIP3    H123197   1.967   2.587  16.082  1.2426  0.1280  0.6424
  594TIP3    H223198   1.819   2.620  16.078  0.7951 -1.8225  0.5697
  595TIP3   OH223199   1.174   5.961  11.178 -0.3669 -0.0734 -0.1455
  595TIP3    H123200   1.105   6.007  11.225  0.3624  0.2671  0.6143
  595TIP3    H223201   1.136   5.876  11.156 -1.4602  0.6135 -0.8899
  596TIP3   OH223202   2.812   5.102  13.082 -0.5728  0.0672  0.0229
  596TIP3    H123203   2.738   5.069  13.132  1.1493 -1.9793  1.2775
  596TIP3    H223204   2.773   5.161  13.018 -2.9389  1.8581  2.9926
  597TIP3   OH223205   2.549   2.159  13.682  0.3824 -0.0703  0.2244
  597TIP3    H123206   2.558   2.220  13.610  0.1754  0.6849  0.8325
  597TIP3    H223207   2.493   2.089  13.649  0.2365  0.3069 -0.3131
  598TIP3   OH223208   1.091   1.801  13.895 -0.0737 -0.1120 -0.0321
  598TIP3    H123209   1.156   1.822  13.829  0.4071 -1.7419 -0.0878
  598TIP3    H223210   1.116   1.715  13.928 -3.2510 -1.6733 -1.3999
  599TIP3   OH223211   3.076   0.897   4.717  0.0162 -0.0235  0.6220
  599TIP3    H123212   3.054   0.849   4.797  0.4533  0.0267  0.7766
  599TIP3    H223213   3.017   0.862   4.651 -0.9165  0.5256  1.1574
  600TIP3   OH223214   2.648   4.997   4.921 -0.4868  0.3554  0.4253
  600TIP3    H123215   2.694   5.054   4.982 -1.9298  0.3871  1.5052
  600TIP3    H223216   2.559   5.032   4.916 -0.8579 -0.6455 -0.3826
  601TIP3   OH223217   3.134   5.417  14.820  0.1517  0.4618 -0.2309
  601TIP3    H123218   3.118   5.493  14.764 -3.3550  0.7216  1.0024
  601TIP3    H223219   3.091   5.345  14.774  0.6926 -0.1082  0.1675
  602TIP3   OH223220   2.100   1.290   0.657 -0.1079  0.0877 -0.3982
  602TIP3    H123221   2.045   1.360   0.693  0.2005 -0.6382  1.5728
  602TIP3    H223222   2.043   1.243   0.597 -1.0608  0.5305  0.1348
  603TIP3   OH223223   6.586   4.701   3.316  0.2290 -0.2628  0.2164
  603TIP3    H123224   6.586   4.606   3.299  1.0976 -0.1026 -0.6743
  603TIP3    H223225   6.595   4.708   3.411  2.5649 -1.0477  0.0874
  604TIP3   OH223226   0.610   0.699   4.665 -0.2785 -0.3852  0.3357
  604TIP3    H123227   0.655   0.638   4.605  0.6825 -0.6446  1.3159
  604TIP3    H223228   0.537   0.648   4.699  0.5182 -0.9895  1.1446
  605TIP3   OH223229   2.504   1.156   1.262  0.0893 -0.2044  0.2445
  605TIP3    H123230   2.509   1.240   1.308 -3.0586  0.8187 -1.1065
  605TIP3    H223231   2.460   1.097   1.324 -1.1364  0.2445 -0.1767
  606TIP3   OH223232   0.550   1.321  14.893 -0.0349 -0.5606  0.2569
  606TIP3    H123233   0.461   1.316  14.929 -0.2036 -0.3715 -0.1239
  606TIP3    H223234   0.561   1.413  14.869  0.4809 -0.4724  0.8308
  607TIP3   OH223235   4.421   6.468  14.666  0.1230  0.3204  0.5113
  607TIP3    H123236   4.466   6.552  14.676 -0.8051  0.8215  0.6067
  607TIP3    H223237   4.390   6.467  14.576  1.0726 -0.4049  0.1896
  608TIP3   OH223238   5.649   5.968   0.824  0.0994  0.1071  0.5598
  608TIP3    H123239   5.611   5.961   0.737 -0.3024  2.2091  0.5340
  608TIP3    H223240   5.730   5.918   0.819  0.2546  0.4897 -1.1401
  609TIP3   OH223241   6.064   6.194   1.706  0.6612  0.6393  0.4701
  609TIP3    H123242   6.086   6.189   1.613  0.4850  2.0088  0.3467
  609TIP3    H223243   6.088   6.283   1.732  0.4365  0.3593  1.6653
  610TIP3   OH223244   1.225   0.304  11.551  0.3874  0.3549 -0.6505
  610TIP3    H123245   1.189   0.386  11.517  0.2160  0.8123  0.5728
  610TIP3    H223246   1.165   0.236  11.519 -1.3536  1.0528  0.9837
  611TIP3   OH223247   1.584   1.760   6.335  0.3801 -0.4991 -0.0644
  611TIP3    H123248   1.617   1.779   6.423  0.9520 -0.8421 -0.1995
  611TIP3    H223249   1.538   1.839   6.309  1.0493 -0.0320  0.1564
  612TIP3   OH223250   6.343   6.392  14.279 -0.3508 -0.2733 -0.2743
  612TIP3    H123251   6.431   6.394  14.243 -0.3890 -1.8077 -0.5197
  612TIP3    H223252   6.356   6.383  14.374 -0.2475  0.9964 -0.1649
  613TIP3   OH223253   6.659   3.828  15.131  0.3064 -0.0844 -0.0741
  613TIP3    H123254   6.742   3.800  15.170  0.9893 -0.9380 -2.0957
  613TIP3    H223255   6.680   3.913  15.092 -0.0639  0.1984  0.3363
  614TIP3   OH223256   0.343   1.444  17.079 -0.4166 -0.4998  0.0513
  614TIP3    H123257   0.429   1.446  17.037  0.2515  2.2508  1.4725
  614TIP3    H223258   0.348   1.370  17.140  0.7651 -0.6336 -0.1918
  615TIP3   OH223259   5.947   5.677  11.957  0.0430 -0.3775  0.8118
  615TIP3    H123260   6.019   5.738  11.940  0.9931 -2.0439 -1.4740
  615TIP3    H223261   5.984   5.591  11.939 -1.8989 -1.4478  1.8206
  616TIP3   OH223262   6.474   3.009   5.487 -0.0261  0.2761 -0.3760
  616TIP3    H123263   6.413   2.936   5.496 -1.0378  1.2584  0.8551
  616TIP3    H223264   6.520   2.992   5.405 -1.6156 -0.7374 -1.0733
  617TIP3   OH223265   2.467   6.670  16.112 -0.3210 -0.6808 -0.0873
  617TIP3    H123266   2.411   6.596  16.134 -0.2788 -1.0381 -1.1706
  617TIP3    H223267   2.410   6.747  16.122 -1.0097 -1.0394 -1.2023
  618TIP3   OH223268   0.649   2.507   5.767 -0.0975  0.2671 -0.1909
  618TIP3    H123269   0.591   2.469   5.701  0.6688  0.8481 -1.2094
  618TIP3    H223270   0.595   2.512   5.846 -0.6284 -1.6908 -0.3822
  619TIP3   OH223271   3.654   3.412  12.293  0.0853 -0.5335  0.0014
  619TIP3    H123272   3.711   3.383  12.222 -1.1143 -0.9567 -0.8194
  619TIP3    H223273   3.574   3.361  12.281 -0.9341  0.9464  0.3666
  620TIP3   OH223274   1.488   2.183   3.649 -0.4790  0.2601 -0.3803
  620TIP3    H123275   1.429   2.109   3.633  0.3987 -1.0830  2.2228
  620TIP3    H223276   1.574   2.151   3.622 -0.4720  1.2348 -1.5648
  621TIP3   OH223277   2.865   0.303   3.181  0.1600  0.7369 -0.7520
  621TIP3    H123278   2.856   0.208   3.187 -0.7396  0.8717  0.0769
  621TIP3    H223279   2.831   0.325   3.094 -1.9585  0.5732  0.0265
  622TIP3   OH223280   6.332   2.184  14.788  0.4812 -0.0418 -0.4121
  622TIP3    H123281   6.267   2.253  14.773  1.1475  0.1839 -2.4886
  622TIP3    H223282   6.402   2.203  14.725  2.1344 -0.8271  1.1262
  623TIP3   OH223283   4.903   5.232  11.963  0.2838 -0.2402 -0.2510
  623TIP3    H123284   4.992   5.266  11.972  1.5114 -3.5819  1.2120
  623TIP3    H223285   4.859   5.262  12.042 -0.1794  2.0519 -1.3265
  624TIP3   OH223286   1.613   1.744   2.809 -0.1856  0.2276  0.1914
  624TIP3    H123287   1.586   1.746   2.901  0.4043  0.3922  0.3695
  624TIP3    H223288   1.709   1.739   2.813 -0.1934 -0.4402 -0.4143
  625TIP3   OH223289   3.776   0.833  17.158  0.1358 -0.5796 -0.3093
  625TIP3    H123290   3.730   0.855  17.078  0.0585 -1.6459 -0.5582
  625TIP3    H223291   3.773   0.738  17.163 -1.1469 -0.4632  1.7172
  626TIP3   OH223292   0.458   2.416  13.796 -0.0254  0.4211  0.2386
  626TIP3    H123293   0.437   2.502  13.831 -0.8467  0.5955 -0.6565
  626TIP3    H223294   0.504   2.433  13.714 -0.9243  0.0079 -0.3573
  627TIP3   OH223295   3.041   2.019   1.184  0.6153 -0.2992 -0.4108
  627TIP3    H123296   2.999   1.993   1.102  1.2971  0.5078 -1.0238
  627TIP3    H223297   3.129   1.983   1.178  2.1634  3.5301 -2.0461
  628TIP3   OH223298   1.071   2.287  11.745  0.7588 -0.6746  0.2642
  628TIP3    H123299   1.079   2.194  11.765  1.3015 -0.3933  1.3888
  628TIP3    H223300   0.980   2.298  11.717  1.3732 -2.0160 -2.4972
  629TIP3   OH223301   5.092   4.790   4.154 -0.1829  0.1769  0.0642
  629TIP3    H123302   5.059   4.737   4.227  0.3118 -0.6415 -0.2973
  629TIP3    H223303   5.023   4.785   4.088  0.2567 -0.7748 -0.3292
  630TIP3   OH223304   5.942   5.926   5.628  0.0550 -0.0205 -0.0969
  630TIP3    H123305   5.978   5.862   5.566 -0.7781 -0.5102 -0.0838
  630TIP3    H223306   6.011   5.938   5.693  0.5664 -0.2191 -0.6041
  631TIP3   OH223307   0.133   0.676  12.536  0.2527  0.3009 -0.0756
  631TIP3    H123308   0.198   0.646  12.472 -0.1500  0.4209 -0.5464
  631TIP3    H223309   0.140   0.614  12.608 -0.0734 -0.5212 -0.7339
  632TIP3   OH223310   5.258   0.941   6.355  0.0506  0.5590 -0.0589
  632TIP3    H123311   5.343   0.899   6.366  0.2476  1.2502  1.2271
  632TIP3    H223312   5.228   0.958   6.445 -0.4145  2.3391 -0.5279
  633TIP3   OH223313   6.062   4.843   0.147 -0.1109 -0.6318 -0.1218
  633TIP3    H123314   6.068   4.753   0.181  0.5802 -1.0773 -1.3792
  633TIP3    H223315   5.976   4.873   0.174  0.1837 -1.1936  1.4766
  634TIP3   OH223316   6.113   2.948   4.454  0.9381  0.7985 -0.3238
  634TIP3    H123317   6.032   2.993   4.432  0.5226  0.7948  1.1974
  634TIP3    H223318   6.110   2.936   4.549  1.3503 -1.8132 -0.5902
  635TIP3   OH223319   3.117   4.149   1.594  0.3013  0.6565 -0.0286
  635TIP3    H123320   3.149   4.084   1.531  0.8946  0.7152  0.2054
  635TIP3    H223321   3.130   4.233   1.550  2.2603  0.8163  0.8049
  636TIP3   OH223322   2.131   4.163  17.091 -0.5401  0.2159  0.0562
  636TIP3    H123323   2.154   4.247  17.052  3.4290 -0.1718  1.3756
  636TIP3    H223324   2.162   4.098  17.027 -1.3887 -0.2913  0.1557
  637TIP3   OH223325   5.501   1.698   1.732  0.4773 -0.1109  0.3376
  637TIP3    H123326   5.456   1.782   1.737  0.4486 -0.1492  0.7476
  637TIP3    H223327   5.588   1.720   1.698  0.2473 -0.0037 -0.1970
  638TIP3   OH223328   6.364   1.009   1.187  0.2596  0.0912  0.1144
  638TIP3    H123329   6.346   0.925   1.146  2.0039  0.9746 -2.6475
  638TIP3    H223330   6.459   1.012   1.195  0.2726  2.0803 -0.5108
  639TIP3   OH223331   1.050   1.842  15.177  0.4737 -0.3715  0.0033
  639TIP3    H123332   0.992   1.838  15.101 -0.0009 -1.9565  0.4468
  639TIP3    H223333   1.080   1.933  15.178 -1.2677  0.2403 -0.7705
  640TIP3   OH223334   5.646   3.715  12.968  0.0700 -0.4671  0.0323
  640TIP3    H123335   5.551   3.705  12.971  0.1402 -1.3244 -0.5605
  640TIP3    H223336   5.679   3.627  12.952  0.9829 -0.2164  0.5082
  641TIP3   OH223337   1.528   5.815   2.887 -0.2837 -0.4359  1.2259
  641TIP3    H123338   1.613   5.835   2.927 -0.9067  0.0925  2.3286
  641TIP3    H223339   1.467   5.819   2.960 -1.4608  0.4955  0.2044
  642TIP3   OH223340   5.971   1.773  16.385 -0.6517  0.0773  0.1411
  642TIP3    H123341   5.889   1.747  16.342 -0.5684  0.6056 -0.3396
  642TIP3    H223342   5.997   1.695  16.434 -1.9240  0.2080  1.0510
  643TIP3   OH223343   5.114   5.525  14.284 -0.3359  0.1058  0.1069
  643TIP3    H123344   5.020   5.511  14.291 -0.3402  0.5513  1.0944
  643TIP3    H223345   5.123   5.592  14.216 -0.9282  2.0199  1.8541
  644TIP3   OH223346   5.979   0.887   6.450 -0.3876 -0.5185 -0.5176
  644TIP3    H123347   5.996   0.949   6.520 -0.6562 -1.1543  0.1094
  644TIP3    H223348   6.065   0.851   6.429  0.0805  1.5073 -2.2535
  645TIP3   OH223349   2.441   1.560  13.781  0.0800  0.2447 -0.4641
  645TIP3    H123350   2.376   1.491  13.767 -0.9243  1.3590 -1.3905
  645TIP3    H223351   2.412   1.604  13.862  1.0934 -0.8112  0.4959
  646TIP3   OH223352   6.002   2.481  15.007 -0.0830 -0.2394 -0.0448
  646TIP3    H123353   5.953   2.519  14.934  0.4274 -0.6726 -0.6205
  646TIP3    H223354   6.080   2.443  14.966 -0.4640 -1.6877  0.5504
  647TIP3   OH223355   4.017   1.410  16.303 -0.0991 -0.3780  0.3754
  647TIP3    H123356   4.050   1.331  16.345 -0.5917 -0.5053  0.5273
  647TIP3    H223357   3.933   1.385  16.266 -0.2242  0.0530  0.3546
  648TIP3   OH223358   3.809   1.861  13.868 -0.3457 -0.0661  0.3886
  648TIP3    H123359   3.723   1.834  13.900  0.4541 -1.5025  1.3651
  648TIP3    H223360   3.825   1.807  13.791 -0.4758  0.4735 -0.0203
  649TIP3   OH223361   4.064   4.547   4.387 -0.2425 -0.3506 -0.1686
  649TIP3    H123362   4.050   4.461   4.348  1.0090 -0.5605 -0.1720
  649TIP3    H223363   3.976   4.583   4.399 -0.7011 -0.8932 -1.8260
  650TIP3   OH223364   0.516   5.321   0.974 -0.1171  0.1522  0.3978
  650TIP3    H123365   0.472   5.243   1.010  1.3182 -0.8852 -0.0763
  650TIP3    H223366   0.594   5.331   1.027  0.0144  0.9216  0.0586
  651TIP3   OH223367   0.668   1.786   1.498 -0.2393  0.4336  0.3416
  651TIP3    H123368   0.641   1.695   1.483  0.3854  0.3753 -0.4326
  651TIP3    H223369   0.763   1.783   1.497 -0.2190  1.1393  0.1266
  652TIP3   OH223370   6.699   1.485  16.135  0.1227 -0.2355 -0.4953
  652TIP3    H123371   6.784   1.465  16.095  0.1113 -0.9244 -0.1857
  652TIP3    H223372   6.704   1.578  16.156  0.7849 -0.2572 -0.5196
  653TIP3   OH223373   1.907   0.885  16.574 -0.1317  0.6668 -0.0157
  653TIP3    H123374   1.956   0.852  16.498 -1.0806 -0.1889 -0.2689
  653TIP3    H223375   1.974   0.904  16.640  0.5079 -0.9003 -0.1981
  654TIP3   OH223376   4.778   0.978   3.064  0.5762  0.8077 -0.3775
  654TIP3    H123377   4.762   1.048   3.128  0.9799  0.0257  0.5918
  654TIP3    H223378   4.692   0.960   3.027  0.3309  1.2597 -0.0444
  655TIP3   OH223379   3.276   6.143  14.256 -0.3557  0.2752  0.2456
  655TIP3    H123380   3.204   6.152  14.192  0.2550  0.6171 -0.4035
  655TIP3    H223381   3.334   6.078  14.217  0.4500  1.0993  0.0466
  656TIP3   OH223382   2.632   2.688   2.350  0.2870 -0.0042  0.0270
  656TIP3    H123383   2.680   2.758   2.393  2.1508 -1.7671  0.8812
  656TIP3    H223384   2.590   2.640   2.421 -2.1203  1.0145 -0.6459
  657TIP3   OH223385   5.108   3.188   2.321  0.4603 -0.3664  0.1227
  657TIP3    H123386   5.162   3.135   2.264  0.7215 -0.6448  0.6268
  657TIP3    H223387   5.148   3.180   2.407  1.2452  1.6354 -0.0185
  658TIP3   OH223388   3.953   6.053  13.522  0.4718 -0.4453 -0.5169
  658TIP3    H123389   3.929   6.060  13.615 -0.1366 -0.1650 -0.6905
  658TIP3    H223390   3.980   5.962  13.511 -1.5263 -1.0829 -0.5254
  659TIP3   OH223391   3.646   3.050   2.325 -0.2862 -0.3886 -0.0619
  659TIP3    H123392   3.631   3.122   2.264 -0.1158  1.6504  2.2299
  659TIP3    H223393   3.566   2.997   2.320 -0.4623  0.0104 -1.6706
  660TIP3   OH223394   3.020   3.220   4.941  0.3359  0.9887  0.1023
  660TIP3    H123395   2.960   3.146   4.934  0.2795  0.8515  1.7254
  660TIP3    H223396   3.066   3.222   4.858 -1.1999  0.4671 -0.7790
  661TIP3   OH223397   1.325   5.614  14.914 -0.1244 -0.7833  0.1986
  661TIP3    H123398   1.245   5.564  14.930 -0.8053  0.7597  1.8094
  661TIP3    H223399   1.313   5.651  14.826 -1.3822 -0.2536  0.5793
  662TIP3   OH223400   5.485   6.777  12.824 -0.1571  0.5844  0.4879
  662TIP3    H123401   5.476   6.681  12.829 -0.1359  0.6292  1.4376
  662TIP3    H223402   5.577   6.790  12.800 -0.2410  0.3641  0.0283
  663TIP3   OH223403   2.959   4.598  15.933  0.5603  0.1912  0.3444
  663TIP3    H123404   2.942   4.507  15.909 -0.4808  0.5534 -0.3251
  663TIP3    H223405   2.934   4.603  16.025 -3.9925  0.9262 -0.8306
  664TIP3   OH223406   5.037   3.404   1.025 -0.1008  0.7007  0.2540
  664TIP3    H123407   4.948   3.432   1.046 -1.5388 -2.9898 -0.4288
  664TIP3    H223408   5.057   3.447   0.942 -1.8165  0.4777 -0.2951
  665TIP3   OH223409   4.004   1.870   5.603  0.1684  0.1284 -0.8491
  665TIP3    H123410   3.967   1.822   5.529 -2.5489 -2.7468  2.2257
  665TIP3    H223411   3.966   1.958   5.595  1.0190  0.2964 -3.5691
  666TIP3   OH223412   4.356   3.602  13.989 -0.4287  0.2183 -0.2590
  666TIP3    H123413   4.419   3.667  14.020  0.8027 -0.3662 -1.5385
  666TIP3    H223414   4.286   3.604  14.055  2.1010 -0.9575  2.5629
  667TIP3   OH223415   3.396   3.405  12.479 -0.4368  0.8706  0.2517
  667TIP3    H123416   3.333   3.434  12.413  0.6210  1.4480 -0.5173
  667TIP3    H223417   3.479   3.400  12.432 -0.3467 -2.3141  0.6245
  668TIP3   OH223418   3.878   5.668  16.698  0.5985 -0.2575 -0.3787
  668TIP3    H123419   3.806   5.705  16.749  1.7930  1.9113 -0.2283
  668TIP3    H223420   3.870   5.574  16.711 -2.2013 -0.0595 -0.3519
  669TIP3   OH223421   4.252   3.745  15.924 -0.0434 -0.1385 -0.2241
  669TIP3    H123422   4.176   3.692  15.899  0.7166  0.0623 -3.2313
  669TIP3    H223423   4.327   3.699  15.887  1.0798  0.8519  0.7548
  670TIP3   OH223424   0.950   0.757  12.770 -0.2626 -0.2554  0.0989
  670TIP3    H123425   0.856   0.752  12.757 -0.3324  0.1081  0.4389
  670TIP3    H223426   0.988   0.709  12.696 -0.7217 -0.7628  0.1931
  671TIP3   OH223427   0.800   5.128  13.658 -0.1308 -0.1597  0.3432
  671TIP3    H123428   0.711   5.165  13.662 -0.8181 -1.6642 -0.8238
  671TIP3    H223429   0.857   5.205  13.659 -1.4172  0.8199  1.4980
  672TIP3   OH223430   3.607   6.540   0.177  0.1906 -0.3262  0.5753
  672TIP3    H123431   3.558   6.500   0.105 -0.5231 -0.3498  1.0688
  672TIP3    H223432   3.642   6.465   0.226 -0.1718 -0.3290  0.8319
  673TIP3   OH223433   3.471   0.227   3.078 -0.0709 -0.1768  0.3132
  673TIP3    H123434   3.375   0.229   3.074 -0.1690  1.2419  2.5076
  673TIP3    H223435   3.495   0.308   3.123  2.0526 -1.4713  1.6067
  674TIP3   OH223436   4.822   0.358  14.460  0.0331  0.0643  0.1772
  674TIP3    H123437   4.824   0.453  14.445  1.8814 -0.2916 -2.1200
  674TIP3    H223438   4.796   0.321  14.375 -2.7379 -1.4142  1.6125
  675TIP3   OH223439   1.008   0.581   6.397  0.0285  0.1586  0.1441
  675TIP3    H123440   1.022   0.574   6.491  1.4432 -0.7468 -0.1042
  675TIP3    H223441   1.018   0.491   6.365 -1.3659  0.3046 -0.7598
  676TIP3   OH223442   5.674   1.888   3.470 -0.8546 -0.1923 -0.6191
  676TIP3    H123443   5.621   1.815   3.438 -0.6574 -1.2101  1.3052
  676TIP3    H223444   5.761   1.873   3.434 -0.4935 -1.6340  0.8065
  677TIP3   OH223445   4.054   3.579   6.429 -0.1126  0.2208  0.3835
  677TIP3    H123446   4.120   3.517   6.397 -1.2997 -0.9774  0.2099
  677TIP3    H223447   3.997   3.594   6.353 -2.1521 -1.5744  1.4882
  678TIP3   OH223448   5.457   1.600  15.917  0.5571  0.3543  0.2550
  678TIP3    H123449   5.470   1.583  16.010 -0.5992  0.0688  0.3696
  678TIP3    H223450   5.529   1.659  15.893  3.1082 -2.5213  0.4431
  679TIP3   OH223451   5.184   4.852  16.733 -0.0042  0.2226  0.6432
  679TIP3    H123452   5.190   4.882  16.642 -1.1548  2.3356  1.2381
  679TIP3    H223453   5.118   4.782  16.730 -0.6215  0.8261 -0.0223
  680TIP3   OH223454   2.523   4.608  11.562  0.4926  0.5893 -0.9290
  680TIP3    H123455   2.478   4.528  11.539 -0.4814  0.4154  1.4141
  680TIP3    H223456   2.454   4.674  11.571  0.7727  0.5974  1.5502
  681TIP3   OH223457   2.018   3.865  14.485 -0.0260  0.3444  0.2714
  681TIP3    H123458   2.047   3.940  14.432  1.3051 -0.9674 -0.8699
  681TIP3    H223459   1.922   3.871  14.484  0.0683  2.3507  0.6722
  682TIP3   OH223460   5.577   1.131  12.663 -0.5540  0.4389  0.0196
  682TIP3    H123461   5.639   1.110  12.592 -0.6860  1.4079 -0.3849
  682TIP3    H223462   5.633   1.154  12.737 -0.3336 -3.5202  1.2119
  683TIP3   OH223463   1.163   1.706   0.250 -0.6859 -0.2519  0.8248
  683TIP3    H123464   1.257   1.693   0.236 -0.2637  1.4043  1.9999
  683TIP3    H223465   1.150   1.688   0.343 -1.4880 -0.1290  0.7392
  684TIP3   OH223466   2.153   1.741   5.449 -0.3600 -0.0288 -0.0490
  684TIP3    H123467   2.220   1.809   5.462 -1.5282  0.8841  1.2624
  684TIP3    H223468   2.099   1.775   5.377  0.2948 -0.5487 -0.7927
  685TIP3   OH223469   4.168   1.408   2.447  0.3441  0.2140 -0.2867
  685TIP3    H123470   4.146   1.453   2.365 -1.4799  0.6623  0.4181
  685TIP3    H223471   4.205   1.477   2.503 -0.6703  0.4458  0.1127
  686TIP3   OH223472   0.246   2.201  12.698  0.4280 -0.0390 -0.1386
  686TIP3    H123473   0.213   2.144  12.628  1.6649  1.5573 -2.0813
  686TIP3    H223474   0.186   2.276  12.698 -0.2695 -0.5878  1.3368
  687TIP3   OH223475   3.003   0.209   0.097 -0.8081  0.3355 -0.4224
  687TIP3    H123476   2.985   0.296   0.134 -0.3023  0.3422 -0.1806
  687TIP3    H223477   3.087   0.184   0.137 -0.2479  0.3508 -1.5909
  688TIP3   OH223478   5.845   0.691  16.003 -0.2525  0.3708  0.1071
  688TIP3    H123479   5.905   0.735  16.064 -3.3558  2.8877  1.5083
  688TIP3    H223480   5.854   0.598  16.024  1.3578  0.8928  1.9343
  689TIP3   OH223481   0.531   4.999   5.600 -0.3071  0.0641 -0.4623
  689TIP3    H123482   0.604   5.006   5.538 -1.3004  1.7175 -1.4645
  689TIP3    H223483   0.475   5.073   5.580 -0.7210  0.5672  2.3680
  690TIP3   OH223484   5.392   3.056   3.192 -0.6244  0.0313 -0.1661
  690TIP3    H123485   5.477   3.079   3.154 -0.6990  0.5756 -0.0081
  690TIP3    H223486   5.392   2.960   3.195  1.1251  0.0742  2.3541
  691TIP3   OH223487   3.679   2.847   4.431 -0.0038  0.2748 -0.2346
  691TIP3    H123488   3.616   2.797   4.379 -0.9000 -0.7660  1.7830
  691TIP3    H223489   3.762   2.802   4.419 -0.6904 -1.3867  1.1118
  692TIP3   OH223490   3.358   3.496  14.659 -0.1662  0.1078  0.0471
  692TIP3    H123491   3.335   3.435  14.589 -2.2314  0.1699  0.6222
  692TIP3    H223492   3.285   3.490  14.721  1.0521  0.9432  1.6017
  693TIP3   OH223493   6.013   5.927   1.023  0.3739 -0.4876 -0.0020
  693TIP3    H123494   6.031   5.875   1.102  1.6394 -0.7291 -0.4432
  693TIP3    H223495   6.098   5.962   0.997 -0.2118  0.4682 -0.6551
  694TIP3   OH223496   4.343   4.529   5.359  0.3968 -0.7997 -0.0907
  694TIP3    H123497   4.308   4.522   5.270  0.9331 -1.1887 -0.2762
  694TIP3    H223498   4.306   4.455   5.406  0.5124 -0.8854 -0.1328
  695TIP3   OH223499   1.992   5.634   4.343  0.5864  0.1850 -0.3467
  695TIP3    H123500   1.964   5.701   4.281  0.9715 -0.1452 -0.8873
  695TIP3    H223501   1.937   5.558   4.324  1.0795 -0.1014 -0.6695
  696TIP3   OH223502   0.302   0.889  10.315  0.9174  0.0536 -0.0441
  696TIP3    H123503   0.246   0.820  10.277 -0.1450  0.9941 -0.2197
  696TIP3    H223504   0.391   0.857  10.304  0.4458 -1.1510 -0.4194
  697TIP3   OH223505   5.318   1.661   5.564  0.1180  0.4245 -0.2304
  697TIP3    H123506   5.268   1.742   5.549 -1.3434 -0.0707  1.6878
  697TIP3    H223507   5.253   1.598   5.593  1.1920 -1.6011 -2.1216
  698TIP3   OH223508   5.458   1.546  12.874  0.0214  0.5360 -0.3925
  698TIP3    H123509   5.400   1.565  12.948 -0.4876 -0.2511 -0.5945
  698TIP3    H223510   5.519   1.480  12.909  1.3336  1.9580  0.0805
  699TIP3   OH223511   4.176   5.167   0.572  0.1631  0.4624  0.3554
  699TIP3    H123512   4.212   5.210   0.495  1.3734 -0.2848  0.4915
  699TIP3    H223513   4.113   5.230   0.608 -0.1077  0.9768 -0.9944
  700TIP3   OH223514   6.242   5.713   3.874 -0.2436  0.0555 -0.2156
  700TIP3    H123515   6.330   5.721   3.835  0.2658 -0.9300  0.7026
  700TIP3    H223516   6.203   5.638   3.829  0.0313 -0.5601  0.5556
  701TIP3   OH223517   3.066   0.898  11.166  0.3617  0.2097 -0.0278
  701TIP3    H123518   3.081   0.839  11.092  0.7150  0.6066 -0.2734
  701TIP3    H223519   2.971   0.913  11.165  0.3476  0.1052 -0.3178
  702TIP3   OH223520   3.408   2.836  13.685 -0.1020  0.4685  0.0676
  702TIP3    H123521   3.461   2.894  13.740 -0.1811 -0.8201  1.5433
  702TIP3    H223522   3.457   2.830  13.603  1.7493 -0.2171  1.1874
  703TIP3   OH223523   0.797   3.640   4.072 -0.5308  0.2192  0.3988
  703TIP3    H123524   0.867   3.684   4.023 -0.3247  2.0069  2.2304
  703TIP3    H223525   0.816   3.547   4.061  1.6346  0.6554  0.1140
  704TIP3   OH223526   5.249   0.120  14.050 -0.0558 -0.9366  0.1360
  704TIP3    H123527   5.240   0.073  14.133  0.1388  1.6561  1.6697
  704TIP3    H223528   5.311   0.190  14.069 -1.2960  0.7254 -1.7394
  705TIP3   OH223529   5.880   2.068   5.321  0.2893  0.0566 -0.1020
  705TIP3    H123530   5.854   1.976   5.321 -0.1045  0.1644  1.4977
  705TIP3    H223531   5.916   2.083   5.408  2.6981  0.7725 -1.1873
  706TIP3   OH223532   2.761   3.804   0.104 -0.0992  0.8088  0.4351
  706TIP3    H123533   2.814   3.814   0.183 -2.7887  2.7648  2.0741
  706TIP3    H223534   2.683   3.757   0.133 -0.3028 -0.1021 -1.4766
  707TIP3   OH223535   3.789   2.572  15.627 -0.2983 -0.1929  0.1484
  707TIP3    H123536   3.833   2.642  15.579  0.2426 -0.3149  0.4619
  707TIP3    H223537   3.733   2.529  15.562 -0.2612  0.2212 -0.1583
  708TIP3   OH223538   5.265   1.819  14.400  0.5223  0.2844  0.2974
  708TIP3    H123539   5.267   1.725  14.384  0.5082  0.4471 -0.6942
  708TIP3    H223540   5.243   1.857  14.315 -0.8496  1.0998  0.9972
  709TIP3   OH223541   0.819   6.777   4.291  0.3629 -0.1984  0.5637
  709TIP3    H123542   0.844   6.702   4.345 -0.1074 -0.1547  0.8447
  709TIP3    H223543   0.890   6.840   4.303 -1.5688  1.4501  4.3081
  710TIP3   OH223544   0.907   3.316  17.113 -0.0577 -0.0488  0.5391
  710TIP3    H123545   0.864   3.372  17.177  0.6376 -0.6196  1.5207
  710TIP3    H223546   0.875   3.228  17.132 -1.0617 -0.0104 -0.9247
  711TIP3   OH223547   2.254   1.229  12.244  0.1893  0.0222  0.0545
  711TIP3    H123548   2.186   1.253  12.307  0.5744 -1.1291  0.9190
  711TIP3    H223549   2.306   1.162  12.288 -0.3397 -1.7785 -1.9829
  712TIP3   OH223550   2.040   2.841   5.115 -0.0437  0.8080 -0.0718
  712TIP3    H123551   2.134   2.859   5.118  0.9082 -3.4197 -1.5305
  712TIP3    H223552   2.021   2.826   5.022 -1.6587 -0.7437  0.4804
  713TIP3   OH223553   4.337   3.645  12.325 -0.4167  0.0530  0.1964
  713TIP3    H123554   4.321   3.697  12.403 -0.9445  0.0874  0.0664
  713TIP3    H223555   4.259   3.657  12.271 -0.3928 -0.5846  0.0073
  714TIP3   OH223556   1.309   3.728   4.407  0.1547  0.2155  0.2584
  714TIP3    H123557   1.306   3.649   4.460  1.4816 -1.5009 -2.1162
  714TIP3    H223558   1.223   3.769   4.419 -1.4832 -2.8815 -0.3567
  715TIP3   OH223559   0.083   6.673  14.408 -0.0922  0.4617 -0.4596
  715TIP3    H123560  -0.004   6.709  14.390  0.3224  1.5059 -0.4490
  715TIP3    H223561   0.079   6.646  14.500 -0.2326  1.0424 -0.2891
  716TIP3   OH223562   3.399   0.353   0.382 -0.1408  0.3896 -0.1541
  716TIP3    H123563   3.337   0.317   0.319 -0.8405 -0.4429  0.9895
  716TIP3    H223564   3.460   0.281   0.399  0.8209  1.0305 -0.8624
  717TIP3   OH223565   3.109   0.854   0.713  0.5645 -0.1177  0.0281
  717TIP3    H123566   3.018   0.829   0.730  0.9577 -1.3654  0.3278
  717TIP3    H223567   3.117   0.942   0.750 -0.7033  0.2872 -0.6202
  718TIP3   OH223568   0.453   2.558  13.078  0.0510  0.6533 -0.0614
  718TIP3    H123569   0.365   2.569  13.041 -0.0978  0.2824  0.1869
  718TIP3    H223570   0.438   2.534  13.169  0.4214  2.5054  0.5212
  719TIP3   OH223571   3.737   3.661  14.679  0.1414 -0.1116 -0.1643
  719TIP3    H123572   3.699   3.617  14.755 -0.8825 -1.3957 -1.3947
  719TIP3    H223573   3.663   3.680  14.623  0.8702  1.0358 -0.7611
  720TIP3   OH223574   6.717   0.365   0.827 -0.3261  0.6148  0.3181
  720TIP3    H123575   6.780   0.377   0.756  0.8446 -0.2564  1.2019
  720TIP3    H223576   6.635   0.344   0.782  0.9611 -2.4587 -0.7610
  721TIP3   OH223577   6.542   2.901   2.528  0.1130  0.3811 -0.8040
  721TIP3    H123578   6.473   2.834   2.530  0.0599  0.3893 -1.7406
  721TIP3    H223579   6.618   2.855   2.493  0.6888  0.2872  0.5509
  722TIP3   OH223580   2.159   2.070  15.366  0.2922 -0.6176  0.4295
  722TIP3    H123581   2.238   2.017  15.379  0.0990 -1.0528 -0.1419
  722TIP3    H223582   2.156   2.128  15.442  0.9098 -0.9190  0.6865
  723TIP3   OH223583   4.312   2.035   2.599 -0.2045 -0.0929  0.3489
  723TIP3    H123584   4.371   2.075   2.663 -0.9546 -0.0106  1.0038
  723TIP3    H223585   4.268   1.965   2.648  0.1581 -0.8792 -0.4396
  724TIP3   OH223586   5.874   4.398   5.836  0.1397 -0.8128 -0.2260
  724TIP3    H123587   5.868   4.443   5.752 -3.0354 -2.1910 -0.7954
  724TIP3    H223588   5.918   4.316   5.816  1.8747  0.0337  0.0030
  725TIP3   OH223589   6.124   3.457   2.240  0.1776  0.5456 -0.4476
  725TIP3    H123590   6.054   3.405   2.281  0.8637  0.2247  0.3238
  725TIP3    H223591   6.094   3.469   2.149 -0.6692  0.0301 -0.2465
  726TIP3   OH223592   1.730   1.344  12.870 -0.2690 -0.1033 -0.2465
  726TIP3    H123593   1.672   1.310  12.802  0.9466 -0.1526 -1.2734
  726TIP3    H223594   1.816   1.348  12.829  0.5595 -0.4672  1.3956
  727TIP3   OH223595   4.617   6.217   3.125 -0.0619 -0.1255 -0.0910
  727TIP3    H123596   4.544   6.247   3.070 -0.7610 -1.2768  0.1928
  727TIP3    H223597   4.695   6.248   3.080 -0.6363 -0.9096 -1.6807
  728TIP3   OH223598   3.492   3.220   2.172  0.2586 -0.1870 -0.5785
  728TIP3    H123599   3.528   3.295   2.125  0.0951 -0.1256 -0.6082
  728TIP3    H223600   3.429   3.259   2.234 -0.2919 -0.3484 -1.0334
  729TIP3   OH223601   1.421   4.265   2.314  0.2692 -0.4724  0.0152
  729TIP3    H123602   1.436   4.284   2.407  4.0228  1.0002 -0.8152
  729TIP3    H223603   1.455   4.177   2.301  0.2355 -0.4726 -0.0725
  730TIP3   OH223604   5.818   1.533   2.572 -0.2007 -0.3410  0.3026
  730TIP3    H123605   5.906   1.500   2.554  0.0641  0.4010  0.2452
  730TIP3    H223606   5.808   1.525   2.667  0.5515  1.1253  0.5128
  731TIP3   OH223607   4.249   6.421  10.772  0.2687 -0.0582  0.7220
  731TIP3    H123608   4.344   6.427  10.780  0.2681  1.1067  0.0185
  731TIP3    H223609   4.222   6.508  10.742 -0.6329 -1.4457 -2.6556
  732TIP3   OH223610   4.250   3.790  15.400 -0.3522 -0.0136 -0.3095
  732TIP3    H123611   4.264   3.734  15.324  4.8982  1.0481 -0.3429
  732TIP3    H223612   4.292   3.743  15.472 -1.2560  1.0975  0.9744
  733TIP3   OH223613   2.913   4.722  15.015 -0.3613  0.2288 -0.0127
  733TIP3    H123614   2.974   4.733  15.089 -0.7625  1.1356  0.1918
  733TIP3    H223615   2.970   4.705  14.940  0.0068 -2.0838  0.7236
  734TIP3   OH223616   4.830   3.129   1.706  0.4246  0.4029  0.0782
  734TIP3    H123617   4.821   3.222   1.685  1.8955  0.2704 -1.1616
  734TIP3    H223618   4.746   3.091   1.679  0.2389  1.1743 -0.4600
  735TIP3   OH223619   2.917   3.225  13.221 -0.2431 -0.4611  0.2418
  735TIP3    H123620   2.939   3.298  13.163 -2.8735  0.6771  0.5866
  735TIP3    H223621   2.920   3.262  13.309 -0.1943 -1.1346  0.5253
  736TIP3   OH223622   2.624   1.543  11.156 -0.2977 -0.0742 -0.7350
  736TIP3    H123623   2.694   1.508  11.101 -0.5131  0.9491 -1.6942
  736TIP3    H223624   2.607   1.630  11.120 -0.4829  0.6019  0.9514
  737TIP3   OH223625   0.220   0.448  16.723 -0.2444 -0.7448  0.0099
  737TIP3    H123626   0.280   0.435  16.650 -0.7473  0.0385 -0.5475
  737TIP3    H223627   0.155   0.509  16.690 -0.6086 -0.5691  1.0404
  738TIP3   OH223628   4.189   3.945   0.784  0.0631  0.2975  0.7683
  738TIP3    H123629   4.095   3.955   0.766 -0.2298 -0.1960  1.9313
  738TIP3    H223630   4.228   3.925   0.699 -1.2414 -1.9767  0.6718
  739TIP3   OH223631   4.258   2.157  15.302 -0.4078 -0.0526 -0.3873
  739TIP3    H123632   4.270   2.070  15.339  1.2830  0.0681 -0.6116
  739TIP3    H223633   4.168   2.158  15.270 -0.3272 -1.8311 -0.6895
  740TIP3   OH223634   2.208   4.658   4.161 -1.4232  0.0241 -0.2288
  740TIP3    H123635   2.208   4.738   4.213 -0.0869 -0.1307  0.0213
  740TIP3    H223636   2.126   4.614   4.183 -0.7482 -0.1642  1.9560
  741TIP3   OH223637   2.742   2.601   1.340  0.2789  0.0697 -0.0960
  741TIP3    H123638   2.806   2.591   1.269 -0.7993 -1.7414 -0.8602
  741TIP3    H223639   2.753   2.691   1.370  2.4493  0.1102 -0.9222
  742TIP3   OH223640   1.532   2.469  17.169  0.4873 -0.7551 -0.0518
  742TIP3    H123641   1.486   2.450  17.251 -0.1572 -0.1952 -0.2691
  742TIP3    H223642   1.600   2.403  17.163 -1.5014 -2.8140 -0.6576
  743TIP3   OH223643   0.747   3.712   2.690 -0.8024 -0.0662 -0.1871
  743TIP3    H123644   0.747   3.791   2.636 -3.4857  0.8475  1.1006
  743TIP3    H223645   0.815   3.727   2.755 -0.8063  0.8580 -0.3932
  744TIP3   OH223646   0.194   4.395  11.863 -0.2205 -0.1568  0.0061
  744TIP3    H123647   0.133   4.375  11.935 -0.5918 -1.0229 -0.5414
  744TIP3    H223648   0.168   4.482  11.834  1.0157  0.9365  2.0195
  745TIP3   OH223649   5.066   4.179   4.699 -0.1879  0.2202 -0.0930
  745TIP3    H123650   5.100   4.094   4.672 -1.1955 -0.3095  0.2910
  745TIP3    H223651   4.973   4.177   4.674 -0.5759  0.6183  1.2999
  746TIP3   OH223652   0.354   3.334   5.611 -0.2489  0.5761 -0.5400
  746TIP3    H123653   0.356   3.263   5.546 -1.7020  1.3071 -1.4093
  746TIP3    H223654   0.380   3.293   5.693 -0.2935 -0.7953 -1.2049
  747TIP3   OH223655   5.289   0.094   4.150 -0.7552 -0.4809  0.0250
  747TIP3    H123656   5.283   0.090   4.246  1.6882 -0.4082  0.2028
  747TIP3    H223657   5.327   0.009   4.125  3.4618  1.4181 -0.4131
  748TIP3   OH223658   2.186   6.276   1.467 -0.9505  0.0834 -0.9591
  748TIP3    H123659   2.273   6.299   1.496 -1.6533  0.1062  1.2039
  748TIP3    H223660   2.187   6.180   1.461 -0.4145  0.1522 -2.2047
  749TIP3   OH223661   4.316   1.448  16.457  0.9097 -0.0572 -0.4416
  749TIP3    H123662   4.248   1.382  16.468  1.0418 -0.2336 -0.6915
  749TIP3    H223663   4.304   1.507  16.532  0.3749  0.0118 -0.5799
  750TIP3   OH223664   2.707   5.624   3.051 -0.3600  0.0833  0.5522
  750TIP3    H123665   2.633   5.647   2.996  0.2302 -1.5844 -0.9959
  750TIP3    H223666   2.774   5.690   3.031 -0.7160  0.4164  0.4674
  751TIP3   OH223667   1.960   0.486   2.097  0.3964  0.6514 -0.4255
  751TIP3    H123668   1.868   0.506   2.077  1.0279  1.2437 -2.9004
  751TIP3    H223669   1.997   0.570   2.125  0.8158  0.9787 -1.9538
  752TIP3   OH223670   0.765   2.398  14.988  0.0232  0.3162  0.2157
  752TIP3    H123671   0.711   2.468  15.027  1.7133  1.8262 -0.1113
  752TIP3    H223672   0.778   2.425  14.897  1.3933  0.0259  0.3112
  753TIP3   OH223673   5.166   1.893   5.455  0.1431  0.0846  0.1168
  753TIP3    H123674   5.187   1.985   5.440  1.1306 -0.1872 -0.1833
  753TIP3    H223675   5.078   1.882   5.418  0.3441  0.7158 -0.5546
  754TIP3   OH223676   6.504   0.932   0.131  0.9424 -0.3595  0.1985
  754TIP3    H123677   6.441   0.926   0.204  0.2120 -1.3603 -0.5015
  754TIP3    H223678   6.539   1.021   0.137 -1.9563  0.9059 -0.5472
  755TIP3   OH223679   1.387   5.872  16.074 -0.1563 -0.1030 -0.4562
  755TIP3    H123680   1.453   5.822  16.122  0.3483  1.2038  0.2414
  755TIP3    H223681   1.434   5.950  16.043 -0.6130 -0.6612 -2.6309
  756TIP3   OH223682   3.571   3.916  12.779  0.3756 -0.4262 -0.0446
  756TIP3    H123683   3.475   3.922  12.769  0.3911 -1.9216 -1.3615
  756TIP3    H223684   3.601   3.890  12.692  2.2159  2.2468 -0.2622
  757TIP3   OH223685   4.650   2.082   2.541  0.1832 -0.2553 -0.3296
  757TIP3    H123686   4.612   2.128   2.466 -0.6387 -0.5237 -0.0770
  757TIP3    H223687   4.692   2.151   2.593 -0.5261  0.1257 -0.2603
  758TIP3   OH223688   2.366   5.501   5.917  0.3360 -0.2893 -0.0275
  758TIP3    H123689   2.315   5.582   5.915  1.7757  0.6142 -1.6557
  758TIP3    H223690   2.330   5.452   5.991  0.5726  2.5763  2.1031
  759TIP3   OH223691   5.758   6.494   5.672  0.1457 -0.2340  0.1708
  759TIP3    H123692   5.800   6.414   5.705 -1.0437 -0.9443  0.0150
  759TIP3    H223693   5.669   6.489   5.706 -0.3689  0.2838 -1.0664
  760TIP3   OH223694   6.033   3.120   5.316 -0.7827  0.8464  0.5130
  760TIP3    H123695   6.075   3.039   5.346 -0.4659  1.6462  2.3453
  760TIP3    H223696   5.944   3.094   5.292 -0.4255 -0.1855  0.3176
  761TIP3   OH223697   0.809   5.114  15.114  0.0461 -0.1457  0.8383
  761TIP3    H123698   0.844   5.141  15.200 -0.4561 -1.3699  1.4395
  761TIP3    H223699   0.716   5.136  15.118  0.4484  1.8132 -0.2306
  762TIP3   OH223700   6.306   0.244   1.955 -0.8651 -0.2203 -0.9351
  762TIP3    H123701   6.308   0.300   1.878 -1.4653  1.0778 -0.0371
  762TIP3    H223702   6.242   0.286   2.013  0.9805 -0.0990  1.0699
  763TIP3   OH223703   4.105   4.758   1.184  0.2262  0.3023  0.0575
  763TIP3    H123704   4.047   4.734   1.112  1.9242 -1.0793 -0.8752
  763TIP3    H223705   4.072   4.844   1.212 -1.9926 -0.2493 -0.7095
  764TIP3   OH223706   3.953   5.069  15.662 -0.1992  0.0202  0.1659
  764TIP3    H123707   3.860   5.091  15.652 -0.4003 -0.6383  0.5010
  764TIP3    H223708   3.954   4.973  15.667  0.1234  0.1268  3.5299
  765TIP3   OH223709   3.573   3.189  11.873 -0.4970  0.5975  0.1381
  765TIP3    H123710   3.603   3.143  11.794  1.0194  1.0451  0.4345
  765TIP3    H223711   3.509   3.130  11.912 -0.1374 -0.3104 -0.6271
  766TIP3   OH223712   3.361   5.904  11.811 -0.1009 -0.2271 -0.2213
  766TIP3    H123713   3.330   5.958  11.884 -0.1941 -1.1024  0.3924
  766TIP3    H223714   3.451   5.884  11.834 -0.3174 -1.0063 -0.0533
  767TIP3   OH223715   1.962   2.995   0.771 -0.1818  0.0146 -0.5806
  767TIP3    H123716   1.899   2.966   0.706  0.1950 -1.0829 -0.4745
  767TIP3    H223717   1.936   3.084   0.793 -1.2181 -0.1589 -1.1084
  768TIP3   OH223718   3.307   1.187   1.793 -0.6536  0.2106  0.0752
  768TIP3    H123719   3.216   1.214   1.806 -1.1915 -0.9578 -1.0994
  768TIP3    H223720   3.300   1.099   1.756  1.0118 -0.5971  1.6437
  769TIP3   OH223721   4.402   5.336   0.655 -0.0984  0.2847  0.0610
  769TIP3    H123722   4.420   5.332   0.561 -0.3407  0.3014  0.0132
  769TIP3    H223723   4.455   5.266   0.693 -0.1250  0.1722 -0.1084
  770TIP3   OH223724   6.621   4.055   0.445 -0.4504  0.3901 -0.1696
  770TIP3    H123725   6.602   4.004   0.366  1.1298  0.1224 -0.3825
  770TIP3    H223726   6.716   4.054   0.452 -0.5335  1.2721  1.1831
  771TIP3   OH223727   1.264   4.523   5.810 -0.2653  0.0117  1.1250
  771TIP3    H123728   1.249   4.614   5.784 -0.4682 -0.4742 -0.4858
  771TIP3    H223729   1.359   4.512   5.802 -0.3682 -0.2422  0.2268
  772TIP3   OH223730   1.989   6.006   3.822 -0.1350  0.4794  0.5171
  772TIP3    H123731   1.953   6.064   3.889 -1.0879  1.2392 -0.6349
  772TIP3    H223732   2.065   6.054   3.787  0.2053  0.1983  0.8681
  773TIP3   OH223733   4.221   6.511  12.716  0.1884 -0.6291 -0.2148
  773TIP3    H123734   4.263   6.593  12.688 -0.6000  0.6366  2.1266
  773TIP3    H223735   4.254   6.497  12.805 -3.2202 -0.3596  1.1634
  774TIP3   OH223736   3.925   2.751   6.130  0.2977  0.3721  0.4844
  774TIP3    H123737   3.873   2.760   6.209 -0.0318  1.1236  0.1799
  774TIP3    H223738   4.014   2.774   6.157 -0.0545  1.9994  0.3311
  775TIP3   OH223739   4.747   3.612   2.202 -0.0999  0.5053 -0.0708
  775TIP3    H123740   4.809   3.601   2.130  1.3083  0.0874  1.1772
  775TIP3    H223741   4.702   3.694   2.183  0.4833  0.5613 -1.2531
  776TIP3   OH223742   3.362   5.523  17.014  0.5486 -0.1293 -0.6399
  776TIP3    H123743   3.415   5.586  16.964  1.2575 -0.0978  0.1461
  776TIP3    H223744   3.284   5.574  17.040  1.0700  0.3984 -0.0933
  777TIP3   OH223745   1.194   0.304  13.818 -0.6438 -0.5039 -0.2539
  777TIP3    H123746   1.104   0.304  13.850 -1.0634 -1.1841 -1.3979
  777TIP3    H223747   1.243   0.353  13.884 -1.4702 -1.8803  1.4338
  778TIP3   OH223748   2.013   4.020   2.887  0.0471 -0.0650 -0.4001
  778TIP3    H123749   1.955   4.027   2.963  2.0753 -0.6279  1.2256
  778TIP3    H223750   2.070   4.096   2.894  1.9151 -1.4925  0.0851
  779TIP3   OH223751   2.402   3.558   1.712  0.1521 -0.2007  0.0438
  779TIP3    H123752   2.359   3.643   1.711 -1.8476 -1.2062 -0.5454
  779TIP3    H223753   2.387   3.522   1.624 -1.9570 -2.5836  1.3152
  780TIP3   OH223754   3.868   1.099   3.973 -0.0894 -0.1788  0.1096
  780TIP3    H123755   3.861   1.009   3.941 -0.8622  0.3801 -1.3422
  780TIP3    H223756   3.905   1.090   4.061  2.1840 -1.7444 -0.9558
  781TIP3   OH223757   2.542   5.542   3.809  0.1804  0.3174 -0.2561
  781TIP3    H123758   2.506   5.630   3.796 -3.4726 -1.2024 -0.9150
  781TIP3    H223759   2.517   5.519   3.898 -0.9107 -0.8982 -0.8517
  782TIP3   OH223760   5.906   5.210  14.928  0.7510 -0.1452 -0.5322
  782TIP3    H123761   5.945   5.275  14.986  0.0272  0.0920 -0.3016
  782TIP3    H223762   5.876   5.260  14.852 -1.3242  0.0574  0.3992
  783TIP3   OH223763   1.205   5.051  13.508 -0.7798 -0.2195  0.3678
  783TIP3    H123764   1.122   5.036  13.463 -0.1969  1.8389 -1.4813
  783TIP3    H223765   1.206   4.986  13.579 -2.7382 -2.0412 -1.2028
  784TIP3   OH223766   0.492   5.013  13.516  0.2323  0.0514  0.8232
  784TIP3    H123767   0.461   4.923  13.503  2.7038 -0.8403  0.9805
  784TIP3    H223768   0.497   5.023  13.611 -0.1430  0.3922  0.8074
  785TIP3   OH223769   3.683   3.469   0.100  0.0319  0.2270  0.7506
  785TIP3    H123770   3.735   3.550   0.102  1.0652 -0.3994 -0.3076
  785TIP3    H223771   3.669   3.448   0.193  0.3957  1.2111  1.0374
  786TIP3   OH223772   2.290   1.287  15.850 -0.0511  0.0239  0.1423
  786TIP3    H123773   2.334   1.372  15.840  0.4100 -0.2145  0.0938
  786TIP3    H223774   2.319   1.237  15.774  0.3596 -0.4665  0.6127
  787TIP3   OH223775   5.718   4.661  15.198 -0.0992 -0.2939  0.2184
  787TIP3    H123776   5.748   4.744  15.160 -0.8183  0.0678  0.4294
  787TIP3    H223777   5.626   4.676  15.219  0.3592 -0.3769  2.4305
  788TIP3   OH223778   6.571   3.470  15.785  0.0780  0.2687  0.3465
  788TIP3    H123779   6.494   3.525  15.801  0.1935  0.2247  1.0408
  788TIP3    H223780   6.642   3.532  15.770 -0.3726  0.3297 -1.7462
  789TIP3   OH223781   0.014   3.364  12.623  0.6809 -0.1844  0.2021
  789TIP3    H123782   0.047   3.439  12.573  2.7742  0.0628  1.8477
  789TIP3    H223783  -0.070   3.343  12.583  0.9187  1.8761 -1.4749
  790TIP3   OH223784   2.927   4.580   3.556  0.5162 -0.6926 -0.4068
  790TIP3    H123785   2.977   4.509   3.594 -0.8687 -1.6450 -0.3214
  790TIP3    H223786   2.901   4.634   3.631 -2.2208 -2.5731  0.1027
  791TIP3   OH223787   6.757   1.080   4.546 -0.2892 -0.3167  0.4036
  791TIP3    H123788   6.769   1.067   4.452  0.2735  1.2544  0.2499
  791TIP3    H223789   6.693   1.150   4.553 -0.7607 -0.8161  1.2037
  792TIP3   OH223790   6.268   5.839  13.367  0.2072  0.0044  0.0585
  792TIP3    H123791   6.295   5.765  13.313 -0.8136 -0.8656  0.7146
  792TIP3    H223792   6.339   5.903  13.357  0.9346 -0.9082 -0.7914
  793TIP3   OH223793   0.666   6.284  12.659 -0.0163  0.1520 -0.1802
  793TIP3    H123794   0.596   6.348  12.664 -0.0577  0.1747 -0.9571
  793TIP3    H223795   0.641   6.227  12.586  0.4819 -0.1911 -0.0874
  794TIP3   OH223796   4.615   0.120  12.101  0.3434 -0.8847  0.1312
  794TIP3    H123797   4.642   0.062  12.172 -0.3617 -1.0242  0.2932
  794TIP3    H223798   4.622   0.208  12.138  0.5239 -0.9254  0.1906
  795TIP3   OH223799   0.132   4.568   2.244 -0.3167 -0.3995 -0.4764
  795TIP3    H123800   0.208   4.520   2.277  0.4260  0.2024 -1.3047
  795TIP3    H223801   0.070   4.567   2.318  1.1636  0.5839  0.8187
  796TIP3   OH223802   6.499   4.880  16.815  0.4440  0.0440 -0.4225
  796TIP3    H123803   6.471   4.960  16.859 -0.0686 -0.1113 -0.4597
  796TIP3    H223804   6.590   4.868  16.841  0.7807  1.0946 -1.0832
  797TIP3   OH223805   4.138   1.799  17.072  0.0715  0.6327  0.5536
  797TIP3    H123806   4.121   1.828  16.982  1.3123 -1.5530 -0.4292
  797TIP3    H223807   4.173   1.876  17.116 -0.7070  1.7791 -0.7955
  798TIP3   OH223808   4.543   5.521  13.932 -0.1157 -0.5117  0.1214
  798TIP3    H123809   4.620   5.522  13.990  2.3754  0.3006 -3.0090
  798TIP3    H223810   4.502   5.607  13.946  0.4689 -0.3134  0.6661
  799TIP3   OH223811   0.455   1.442  12.846  0.2066 -0.5474 -0.0102
  799TIP3    H123812   0.453   1.348  12.831  0.8104 -0.5236 -0.2378
  799TIP3    H223813   0.545   1.460  12.874  0.1321 -0.0179 -0.1117
  800TIP3   OH223814   5.873   5.283  13.584  0.2187  0.2115 -0.2141
  800TIP3    H123815   5.962   5.301  13.613 -0.6339  1.3762  1.7256
  800TIP3    H223816   5.842   5.214  13.642 -0.7425  1.0114  0.2249
  801TIP3   OH223817   3.984   4.128   3.888 -0.0872  0.1865  0.1807
  801TIP3    H123818   4.059   4.080   3.924 -0.2076 -0.3395 -0.2751
  801TIP3    H223819   3.916   4.119   3.955  0.4584  1.1960  0.8809
  802TIP3   OH223820   1.888   3.615  15.626 -0.1037 -0.8851  0.1371
  802TIP3    H123821   1.938   3.645  15.550  2.2859 -1.3495  1.4756
  802TIP3    H223822   1.861   3.526  15.603 -0.1682 -0.6946 -0.5349
  803TIP3   OH223823   5.983   1.914  12.130 -0.5593 -0.2789  0.2293
  803TIP3    H123824   6.042   1.972  12.179  0.3151  0.7060 -1.9429
  803TIP3    H223825   6.030   1.831  12.125  0.2157  0.2029 -0.6199
  804TIP3   OH223826   0.137   2.312  17.113 -0.2609 -0.4901 -0.0516
  804TIP3    H123827   0.163   2.220  17.120 -1.7717 -0.8881  0.5624
  804TIP3    H223828   0.048   2.315  17.148  0.0783  1.3605  0.7311
  805TIP3   OH223829   2.729   1.714   0.088  0.3810 -0.1953  0.5043
  805TIP3    H123830   2.740   1.806   0.112  0.6427  0.3065 -1.4545
  805TIP3    H223831   2.761   1.665   0.164  2.4169  1.3275  0.6579
  806TIP3   OH223832   2.181   5.418  16.885 -0.8355 -0.2918  0.4165
  806TIP3    H123833   2.226   5.335  16.899  1.5458  0.7966 -0.5602
  806TIP3    H223834   2.205   5.444  16.796 -2.1712  1.0719  0.4295
  807TIP3   OH223835   5.647   1.935  11.858 -0.4146 -0.0640 -0.5377
  807TIP3    H123836   5.600   1.990  11.921 -1.7466 -2.3123  0.5204
  807TIP3    H223837   5.578   1.883  11.817  0.8165 -0.9965 -1.4370
  808TIP3   OH223838   4.633   4.957   1.082  0.2051  0.4740  0.2200
  808TIP3    H123839   4.542   4.930   1.086  0.2781  0.1935 -0.0703
  808TIP3    H223840   4.650   4.994   1.169  0.3513 -1.1818  0.9253
  809TIP3   OH223841   3.143   4.681   3.845 -0.0129  0.1205  0.0332
  809TIP3    H123842   3.123   4.588   3.834 -0.1870 -0.2245  2.9898
  809TIP3    H223843   3.079   4.726   3.789 -1.1220 -1.4675  0.0030
  810TIP3   OH223844   0.517   4.983   2.537 -0.1660 -0.2510 -0.4208
  810TIP3    H123845   0.509   5.016   2.448  0.0135 -0.4754 -0.5208
  810TIP3    H223846   0.441   5.019   2.583  1.2108  2.1824  0.0573
  811TIP3   OH223847   4.660   4.540  13.244 -0.3712  0.6727 -0.0642
  811TIP3    H123848   4.754   4.534  13.262 -0.3604  1.0923  0.0108
  811TIP3    H223849   4.650   4.621  13.195 -0.8686  1.2801  1.0400
  812TIP3   OH223850   3.634   1.450   4.868 -0.0764  0.7519  0.1245
  812TIP3    H123851   3.716   1.416   4.906 -0.3991 -0.7720 -0.4925
  812TIP3    H223852   3.578   1.467   4.943  0.3841  0.6560  0.4935
  813TIP3   OH223853   4.879   4.476   0.074  0.5789  0.4836  0.1685
  813TIP3    H123854   4.805   4.536   0.077  1.5764  1.7182  0.7738
  813TIP3    H223855   4.848   4.397   0.117 -0.3698  1.0074  0.4584
  814TIP3   OH223856   5.536   4.094  12.282  0.2681 -0.4535 -0.7602
  814TIP3    H123857   5.452   4.050  12.267  0.4829 -1.2907  0.3945
  814TIP3    H223858   5.512   4.179  12.318 -0.0984 -1.2135  0.9024
  815TIP3   OH223859   2.262   1.083   4.890 -0.2569  0.1825 -0.7880
  815TIP3    H123860   2.291   1.017   4.953 -0.2973  0.5557 -0.3746
  815TIP3    H223861   2.277   1.043   4.804  0.7579  0.0652 -0.5586
  816TIP3   OH223862   2.182   0.386   3.614 -0.2557  0.3047 -0.6030
  816TIP3    H123863   2.175   0.293   3.594  0.3292  0.4983 -1.7374
  816TIP3    H223864   2.214   0.389   3.704 -1.8785 -0.5867  0.0152
  817TIP3   OH223865   4.628   4.395   5.688 -0.2764 -0.2876  0.1359
  817TIP3    H123866   4.570   4.364   5.618 -0.0830 -1.0873  0.3261
  817TIP3    H223867   4.674   4.470   5.650  0.7249 -1.4703 -1.0149
  818TIP3   OH223868   4.657   6.496   1.998 -0.5202 -0.8285 -0.3025
  818TIP3    H123869   4.679   6.580   1.960 -0.9085 -1.1167 -1.1870
  818TIP3    H223870   4.677   6.505   2.091 -2.2384  0.8318 -0.0724
  819TIP3   OH223871   6.117   6.562  11.394  0.2914 -0.5929  0.0318
  819TIP3    H123872   6.103   6.579  11.301  1.2091 -2.9888 -0.5791
  819TIP3    H223873   6.039   6.598  11.437 -0.0322  0.7381 -1.6239
  820TIP3   OH223874   0.122   5.860   3.265  0.6570  0.3462  0.0954
  820TIP3    H123875   0.215   5.883   3.263  1.0516 -1.1550  0.7380
  820TIP3    H223876   0.103   5.847   3.358  0.4951 -2.0625 -0.2497
  821TIP3   OH223877   3.653   3.823  12.544 -0.3409  0.2829 -0.3964
  821TIP3    H123878   3.717   3.834  12.473 -0.6966  2.4763 -0.4032
  821TIP3    H223879   3.571   3.803  12.499 -0.3503  0.6887 -0.5642
  822TIP3   OH223880   5.450   0.214  13.534 -0.1557  0.1085 -0.2420
  822TIP3    H123881   5.495   0.239  13.453 -0.4557 -0.8222 -0.7044
  822TIP3    H223882   5.359   0.204  13.508 -0.3240  0.2268  0.3065
  823TIP3   OH223883   5.136   0.954  13.635 -0.0453  0.5518 -0.5378
  823TIP3    H123884   5.223   0.949  13.594  0.6023  0.1318  0.8352
  823TIP3    H223885   5.078   0.910  13.573  1.0235 -0.6585 -0.7147
  824TIP3   OH223886   0.996   4.588  16.361  0.3176  0.1936  0.0420
  824TIP3    H123887   1.048   4.546  16.292  1.7797  0.8290  0.7472
  824TIP3    H223888   1.006   4.682  16.345 -2.3887  0.3309 -1.1164
  825TIP3   OH223889   5.908   5.195  15.543  0.2248 -0.4703 -0.0415
  825TIP3    H123890   5.916   5.194  15.447 -0.8139  1.1366 -0.1692
  825TIP3    H223891   5.976   5.255  15.572  0.0834 -0.4048  0.1582
  826TIP3   OH223892   2.710   4.811  11.631 -0.1861  0.2346 -0.0252
  826TIP3    H123893   2.671   4.849  11.552 -1.8613 -0.7022  0.3376
  826TIP3    H223894   2.684   4.719  11.629 -0.1562  0.1806  1.5711
  827TIP3   OH223895   0.844   5.870  16.052 -0.0478  0.1634  0.2753
  827TIP3    H123896   0.874   5.891  15.963 -0.1020 -0.6357  0.0695
  827TIP3    H223897   0.886   5.936  16.107  1.1043 -0.1872 -0.1689
  828TIP3   OH223898   4.902   2.683  11.802 -0.1868 -0.1507  0.0823
  828TIP3    H123899   4.958   2.744  11.754 -1.7124 -0.2789 -1.9219
  828TIP3    H223900   4.852   2.738  11.862  0.8962  0.1555  0.7145
  829TIP3   OH223901   0.119   5.495   2.290  0.2519  0.5691 -0.4230
  829TIP3    H123902   0.028   5.525   2.280  0.1136  0.0839 -0.6182
  829TIP3    H223903   0.120   5.408   2.250  0.6362  0.2790  0.2184
  830TIP3   OH223904   1.258   6.098   5.580 -0.0534 -0.1437 -0.9038
  830TIP3    H123905   1.164   6.082   5.590  0.2976 -0.5980  2.2077
  830TIP3    H223906   1.264   6.180   5.532 -2.0253 -0.3648 -1.5657
  831TIP3   OH223907   1.346   6.077  16.555 -0.3179  0.2020 -0.4553
  831TIP3    H123908   1.360   6.140  16.485 -0.5441 -0.9652 -1.5534
  831TIP3    H223909   1.307   6.000  16.513  0.8596 -1.0657  0.6919
  832TIP3   OH223910   4.511   0.700   4.771  0.3653  0.6353  0.0854
  832TIP3    H123911   4.539   0.652   4.849  1.4429 -0.2197 -0.8086
  832TIP3    H223912   4.539   0.790   4.786  0.9209  0.3904  0.5099
  833TIP3   OH223913   2.947   4.199   1.838 -0.0230  0.2330  0.0930
  833TIP3    H123914   2.996   4.164   1.763 -1.1795  0.5001 -0.8052
  833TIP3    H223915   2.855   4.186   1.814 -0.3995  0.0404  1.6114
  834TIP3   OH223916   3.325   2.930  15.653 -0.2547 -0.0056  0.0393
  834TIP3    H123917   3.264   2.963  15.587  0.0103  1.2591  0.4180
  834TIP3    H223918   3.293   2.842  15.673 -1.2903  0.2169 -0.5985
  835TIP3   OH223919   3.195   4.055  17.079 -0.0031  0.7769 -0.0359
  835TIP3    H123920   3.263   4.040  17.013  0.3525 -0.0510  0.5093
  835TIP3    H223921   3.115   4.064  17.028  0.3752  0.8463 -0.6340
  836TIP3   OH223922   5.227   4.006  13.946 -0.7039  0.1113 -0.2030
  836TIP3    H123923   5.272   3.921  13.947 -1.6269 -0.3923 -0.6441
  836TIP3    H223924   5.287   4.065  13.901 -1.1943 -0.9719 -2.3526
  837TIP3   OH223925   5.746   6.216  15.991  0.3273 -0.1189 -0.0759
  837TIP3    H123926   5.784   6.303  16.000 -0.0868  0.0256  0.3284
  837TIP3    H223927   5.735   6.203  15.897  2.2270 -0.5379 -0.2494
  838TIP3   OH223928   1.688   2.219   2.982  0.1546 -0.3115  0.4084
  838TIP3    H123929   1.732   2.240   2.899  0.2707  1.8437  0.9949
  838TIP3    H223930   1.596   2.208   2.958  0.0113  1.3558  0.1276
  839TIP3   OH223931   0.378   5.675   3.316 -0.3325 -0.8723 -0.1559
  839TIP3    H123932   0.418   5.733   3.251  2.8846 -2.0470  0.6504
  839TIP3    H223933   0.311   5.628   3.268  2.2992 -2.0583 -2.8475
  840TIP3   OH223934   1.674   6.060  11.879 -0.2283 -0.2395  0.6683
  840TIP3    H123935   1.748   6.070  11.938 -0.5066  0.5450  0.8840
  840TIP3    H223936   1.597   6.067  11.936 -0.5200  1.3752  0.1065
  841TIP3   OH223937   3.703   5.653  15.439  0.1660  0.3762  0.3231
  841TIP3    H123938   3.767   5.722  15.456 -0.0117  0.6005  0.0743
  841TIP3    H223939   3.705   5.599  15.518 -0.3729  1.1988  0.9015
  842TIP3   OH223940   6.207   3.373   0.892 -0.2110  0.2117  0.0117
  842TIP3    H123941   6.150   3.450   0.894 -2.1878 -1.1365 -1.6393
  842TIP3    H223942   6.296   3.408   0.884 -1.2305  2.2976 -2.8682
  843TIP3   OH223943   1.870   6.628   5.867  0.3133  0.3165 -0.0424
  843TIP3    H123944   1.941   6.574   5.901  0.4752  1.3706  1.3854
  843TIP3    H223945   1.824   6.659   5.946 -0.7922  0.8672 -0.8913
  844TIP3   OH223946   3.847   5.428  13.135 -0.4733 -0.4171  0.3749
  844TIP3    H123947   3.801   5.408  13.054 -1.0544  1.1739  0.2810
  844TIP3    H223948   3.876   5.343  13.169 -2.4659 -1.3360 -0.1781
  845TIP3   OH223949   2.474   0.918   1.665  0.5291  0.1320 -0.5286
  845TIP3    H123950   2.397   0.862   1.660 -0.7647  1.7616  0.7554
  845TIP3    H223951   2.510   0.901   1.752 -0.4067  1.9652  0.2297
  846TIP3   OH223952   4.538   1.968  13.763 -0.1397  0.3471 -0.1110
  846TIP3    H123953   4.517   2.029  13.692  0.3102 -0.3844 -0.8904
  846TIP3    H223954   4.627   1.991  13.789  1.4129 -2.2114 -2.8248
  847TIP3   OH223955   4.952   6.588   4.077  0.3723  0.3276 -0.0426
  847TIP3    H123956   5.013   6.597   4.151 -0.2936  3.3455  0.1965
  847TIP3    H223957   4.884   6.529   4.110  1.7303 -0.9436  0.6024
  848TIP3   OH223958   5.049   6.383   5.825  0.4168  0.1289 -0.3327
  848TIP3    H123959   5.042   6.472   5.861 -0.9589  0.0402 -0.3654
  848TIP3    H223960   5.024   6.326   5.897 -0.4660 -0.1422 -0.8442
  849TIP3   OH223961   4.651   0.433  12.141 -0.3289  0.2215  0.0962
  849TIP3    H123962   4.678   0.478  12.221 -0.6203 -1.5343  1.2318
  849TIP3    H223963   4.730   0.387  12.112 -0.6379 -0.4534  0.3076
  850TIP3   OH223964   2.420   1.565  13.185  0.3169  0.0778  0.0534
  850TIP3    H123965   2.498   1.543  13.236  0.7148 -0.6583 -0.8499
  850TIP3    H223966   2.366   1.486  13.188  0.2897  0.0671 -0.5509
  851TIP3   OH223967   0.669   3.516  14.938  0.3430  0.0808 -0.5789
  851TIP3    H123968   0.630   3.478  15.017 -0.3931  1.2896 -0.3489
  851TIP3    H223969   0.764   3.511  14.952  0.2761 -2.2051 -0.8150
  852TIP3   OH223970   6.129   4.865   0.793  0.2748 -0.7838  0.5140
  852TIP3    H123971   6.196   4.834   0.732  0.7496  0.4324  0.4012
  852TIP3    H223972   6.170   4.856   0.879  0.5185 -0.1967  0.4585
  853TIP3   OH223973   1.784   3.246   1.794 -0.3998 -0.1390 -0.3679
  853TIP3    H123974   1.794   3.225   1.701  1.6430 -1.8328  0.1880
  853TIP3    H223975   1.707   3.197   1.822 -1.3232  0.7766 -1.2611
  854TIP3   OH223976   4.971   3.384   6.327  0.1510 -0.3478  0.0857
  854TIP3    H123977   5.058   3.378   6.287  0.1358 -2.1309  0.2625
  854TIP3    H223978   4.979   3.454   6.392  0.9116  0.7971 -1.2244
  855TIP3   OH223979   6.094   1.990  12.373  0.1692 -0.2813  0.1409
  855TIP3    H123980   6.182   2.006  12.338 -0.2474  0.0129 -0.7779
  855TIP3    H223981   6.108   1.926  12.444  0.7368 -2.8914 -2.2290
  856TIP3   OH223982   5.295   5.462  14.728  0.6844 -0.4279 -0.1074
  856TIP3    H123983   5.207   5.460  14.767  0.0009 -0.8234 -1.6513
  856TIP3    H223984   5.283   5.433  14.638  2.2564  0.5113 -0.6515
  857TIP3   OH223985   5.541   1.791  13.170 -0.1894  0.4350  0.0104
  857TIP3    H123986   5.541   1.695  13.174 -0.6005  0.3676 -1.2584
  857TIP3    H223987   5.590   1.818  13.247  2.3219 -0.9030 -1.0303
  858TIP3   OH223988   4.175   1.013  16.659 -0.0691  0.3737  0.5304
  858TIP3    H123989   4.165   0.933  16.710  1.2123  2.1963  3.7893
  858TIP3    H223990   4.204   1.078  16.722  0.3510  3.0737 -2.3272
  859TIP3   OH223991   4.160   4.415  16.268  0.3716 -0.1355 -0.0820
  859TIP3    H123992   4.227   4.469  16.310  0.5149 -1.8651  2.0012
  859TIP3    H223993   4.208   4.341  16.232 -0.2697 -0.7257  0.2682
  860TIP3   OH223994   2.404   0.296  16.602  0.2776 -0.3995  0.2163
  860TIP3    H123995   2.378   0.282  16.693 -1.4653  0.4640 -0.1158
  860TIP3    H223996   2.322   0.317  16.557  1.3943  1.1408 -1.1620
  861TIP3   OH223997   1.413   6.688  14.234 -0.4182  0.2148  0.4692
  861TIP3    H123998   1.322   6.711  14.254  0.0846  1.9835  0.7673
  861TIP3    H223999   1.416   6.682  14.139 -0.3100  2.5086  0.3106
  862TIP3   OH224000   6.420   3.660  12.745  0.0394  0.1057 -0.4687
  862TIP3    H124001   6.511   3.662  12.773 -0.0220  0.7114 -0.2897
  862TIP3    H224002   6.400   3.567  12.733  0.1857 -0.1446  1.1444
  863TIP3   OH224003   3.658   6.274  10.938 -0.2628 -0.0589  0.2705
  863TIP3    H124004   3.731   6.214  10.954  0.9542  1.2974 -0.0558
  863TIP3    H224005   3.633   6.305  11.025  0.2044  0.2164  0.3107
  864TIP3   OH224006   5.008   1.353  16.093 -0.1626  0.4232  0.0145
  864TIP3    H124007   5.022   1.294  16.019  0.4990 -1.2298  1.4314
  864TIP3    H224008   5.063   1.429  16.073  1.5703 -0.8759 -0.2208
  865TIP3   OH224009   1.678   2.507  16.063 -0.0156 -0.2876 -0.1169
  865TIP3    H124010   1.703   2.481  15.974  1.8763 -0.1016  0.3347
  865TIP3    H224011   1.638   2.429  16.101 -1.8642 -0.0381 -1.4880
  866TIP3   OH224012   4.792   2.583   4.623  0.4250  0.2716 -0.1624
  866TIP3    H124013   4.776   2.677   4.619 -1.3589  0.0191  0.5536
  866TIP3    H224014   4.857   2.572   4.692  1.4759  1.0711 -1.0108
  867TIP3   OH224015   2.155   0.745  11.344  0.9164 -0.0639 -0.3077
  867TIP3    H124016   2.237   0.789  11.323  0.9196 -0.0463 -0.2602
  867TIP3    H224017   2.117   0.722  11.259  0.3853  1.0156 -0.3721
  868TIP3   OH224018   2.814   4.266   4.272 -0.1085  0.2681 -0.1919
  868TIP3    H124019   2.784   4.289   4.185 -0.1757  0.0416 -0.2287
  868TIP3    H224020   2.738   4.283   4.329 -0.3003 -0.2692 -0.2805
  869TIP3   OH224021   4.447   3.846  13.042  0.1726 -0.6358 -0.1151
  869TIP3    H124022   4.422   3.817  13.130 -0.4186 -0.6775 -0.2955
  869TIP3    H224023   4.511   3.916  13.057  0.1093 -0.6770  0.3440
  870TIP3   OH224024   6.267   1.575   0.407 -0.4563  0.1696  0.3091
  870TIP3    H124025   6.249   1.601   0.316 -1.2336  1.2939  0.7766
  870TIP3    H224026   6.338   1.632   0.434  1.9162 -2.2669 -0.5726
  871TIP3   OH224027   2.537   0.247  14.347  0.1772  0.1172  0.3000
  871TIP3    H124028   2.575   0.295  14.421  0.0512 -0.2817  0.6272
  871TIP3    H224029   2.576   0.160  14.352 -0.4081 -0.1441  0.3476
  872TIP3   OH224030   4.688   2.941  15.466 -0.1920 -0.2522  0.7015
  872TIP3    H124031   4.678   2.877  15.395 -1.0076 -0.2419  0.8096
  872TIP3    H224032   4.767   2.990  15.442 -0.4782 -0.2233 -0.2160
  873TIP3   OH224033   2.109   2.233  16.028  0.2443  0.0935  0.2002
  873TIP3    H124034   2.076   2.240  15.938  1.6142 -0.4577 -0.3580
  873TIP3    H224035   2.100   2.322  16.063  1.0014  0.6448 -0.9494
  874TIP3   OH224036   1.680   4.885  13.570  0.3099  0.3787  0.0622
  874TIP3    H124037   1.757   4.841  13.606  0.3967  0.1921 -0.3487
  874TIP3    H224038   1.609   4.863  13.631  0.6364  0.7699  0.5841
  875TIP3   OH224039   1.009   0.106   0.281 -0.6463 -0.0205  0.0631
  875TIP3    H124040   0.982   0.073   0.366 -2.8007 -0.7605 -0.8674
  875TIP3    H224041   1.009   0.201   0.291 -2.2684 -0.0595  0.4883
  876TIP3   OH224042   6.105   1.793   4.913  0.7571 -0.7464  0.0965
  876TIP3    H124043   6.062   1.757   4.991  1.1076  0.0443  0.6715
  876TIP3    H224044   6.129   1.717   4.861 -0.4278 -1.2394  0.2573
  877TIP3   OH224045   3.032   0.876  11.599  0.0606 -0.1097  0.0132
  877TIP3    H124046   2.997   0.965  11.608 -0.4151 -0.4281  1.6525
  877TIP3    H224047   3.125   0.888  11.580 -0.1369  0.7466 -0.4147
  878TIP3   OH224048   1.326   1.599   5.518  0.0181  0.2144  0.0062
  878TIP3    H124049   1.302   1.676   5.466  0.7873  0.2615 -0.2800
  878TIP3    H224050   1.242   1.562   5.546 -0.3901  0.3812 -0.9820
  879TIP3   OH224051   6.129   4.486  15.999 -0.5321  0.1695 -0.3155
  879TIP3    H124052   6.138   4.394  16.024  0.0291  0.4818  0.6688
  879TIP3    H224053   6.217   4.522  16.013 -1.2907  1.3750  1.4923
  880TIP3   OH224054   4.935   3.735  13.505 -0.6208 -0.1278  0.2393
  880TIP3    H124055   4.891   3.679  13.440  0.2032 -2.1723  1.4055
  880TIP3    H224056   5.028   3.719  13.492 -0.3643  0.9773  0.6157
  881TIP3   OH224057   4.856   4.424  15.260 -0.1140  0.2119  0.1145
  881TIP3    H124058   4.875   4.421  15.167  1.7461  0.1519  0.4636
  881TIP3    H224059   4.929   4.376  15.301  0.5472  2.5484  1.7830
  882TIP3   OH224060   0.067   2.981  14.798  0.3216  0.0413  0.4566
  882TIP3    H124061   0.150   3.027  14.810  0.2485 -0.0201  1.2053
  882TIP3    H224062   0.016   3.038  14.742  0.6940  0.2976  0.3724
  883TIP3   OH224063   0.646   0.169   2.035  0.2701  0.3837 -0.1447
  883TIP3    H124064   0.599   0.196   2.113 -0.1229  0.5312 -0.4333
  883TIP3    H224065   0.637   0.242   1.974  0.4007  0.1839 -0.4053
  884TIP3   OH224066   1.830   1.793  13.145 -0.0715 -0.5937  0.3236
  884TIP3    H124067   1.741   1.797  13.108  0.3923 -0.4305 -0.7947
  884TIP3    H224068   1.835   1.707  13.186 -0.3739 -1.0503 -0.5786
  885TIP3   OH224069   1.955   0.255   4.044 -0.1243 -0.3086  0.4891
  885TIP3    H124070   2.027   0.318   4.035 -2.3334  2.2298 -0.1199
  885TIP3    H224071   1.983   0.196   4.115  1.6013  1.9538  1.7615
  886TIP3   OH224072   5.691   1.530  16.979  0.1212  0.1418  0.3591
  886TIP3    H124073   5.688   1.560  17.070 -0.6638  0.0968  0.3495
  886TIP3    H224074   5.608   1.561  16.941 -0.4631 -1.5882  0.2109
  887TIP3   OH224075   2.772   3.634   2.079  0.4929  0.1297  0.3297
  887TIP3    H124076   2.768   3.603   2.169  0.8197 -1.4161 -0.1702
  887TIP3    H224077   2.683   3.621   2.045  0.6887 -0.5000  0.0489
  888TIP3   OH224078   1.289   0.213  16.072 -0.8453 -0.6518 -0.1333
  888TIP3    H124079   1.340   0.201  16.152 -0.9232  1.4532  0.2473
  888TIP3    H224080   1.201   0.183  16.095 -0.3936 -1.9682 -0.0600
  889TIP3   OH224081   5.376   5.720   2.477  0.1075  0.0628 -0.2087
  889TIP3    H124082   5.419   5.803   2.496 -1.7477  0.7211  1.2941
  889TIP3    H224083   5.364   5.720   2.382  2.5805  0.2535 -0.5390
  890TIP3   OH224084   6.628   1.578  14.904  0.1768  0.3590  0.2527
  890TIP3    H124085   6.705   1.635  14.913  0.4977 -0.0950  0.3765
  890TIP3    H224086   6.614   1.542  14.992  0.9039 -0.9502 -0.1513
  891TIP3   OH224087   2.324   0.731   2.824 -0.8138  0.0549 -0.0314
  891TIP3    H124088   2.385   0.672   2.868 -0.8268 -0.1363 -0.2658
  891TIP3    H224089   2.239   0.686   2.830 -0.8000 -0.0079 -0.3214
  892TIP3   OH224090   4.628   0.644   6.328 -0.3577 -0.3351 -0.5418
  892TIP3    H124091   4.560   0.682   6.273  0.0150 -1.4010 -1.7592
  892TIP3    H224092   4.654   0.715   6.386  0.3230  1.2858 -2.7711
  893TIP3   OH224093   2.982   5.592  16.254  0.2276  0.1502  0.2484
  893TIP3    H124094   2.990   5.655  16.326 -0.3812 -0.6648  1.0337
  893TIP3    H224095   3.062   5.605  16.203 -0.2524  2.1082 -0.0569
  894TIP3   OH224096   4.720   5.711   0.802  0.0453 -0.3370 -0.4693
  894TIP3    H124097   4.646   5.745   0.752  0.0144  1.0891  0.5354
  894TIP3    H224098   4.748   5.784   0.856 -0.1290 -1.9427  1.8624
  895TIP3   OH224099   2.017   6.159  14.175  0.1585 -0.2568 -0.1326
  895TIP3    H124100   2.048   6.247  14.154 -0.1555  0.1980  1.2205
  895TIP3    H224101   1.934   6.174  14.222 -0.2546 -1.2982 -0.5187
  896TIP3   OH224102   2.114   0.404   1.246 -0.1426 -0.2114  0.1767
  896TIP3    H124103   2.194   0.388   1.196  0.6091 -1.4568  1.7213
  896TIP3    H224104   2.139   0.384   1.336 -2.4510 -1.4897  0.5483
  897TIP3   OH224105   3.243   3.912  16.310  0.5306  0.0148  0.2335
  897TIP3    H124106   3.245   4.005  16.335  0.8169  0.0534  0.0758
  897TIP3    H224107   3.234   3.914  16.214 -1.5686 -0.1279  0.3889
  898TIP3   OH224108   1.437   1.344  12.452 -0.2560 -0.4694  0.3831
  898TIP3    H124109   1.506   1.410  12.451  0.1187 -0.8609  0.4629
  898TIP3    H224110   1.410   1.335  12.361 -0.9288  0.4384  0.4755
  899TIP3   OH224111   6.367   3.381   2.722  0.6973 -0.3601 -0.5786
  899TIP3    H124112   6.346   3.430   2.643 -1.4073 -0.1887  0.0586
  899TIP3    H224113   6.373   3.290   2.692 -0.3359 -0.3314 -0.9186
  900TIP3   OH224114   3.100   0.213   0.494  0.4620 -0.2865 -0.1969
  900TIP3    H124115   3.090   0.291   0.440 -0.3669  0.4651  1.0448
  900TIP3    H224116   3.124   0.246   0.580  0.8008 -1.4407  0.1620
  901TIP3   OH224117   0.164   6.362   3.831  0.0784 -0.5055 -0.0291
  901TIP3    H124118   0.098   6.431   3.845  1.9658  1.4278 -0.2909
  901TIP3    H224119   0.147   6.298   3.900 -2.3485 -0.2810 -0.3691
  902TIP3   OH224120   4.824   1.799   4.465  0.5755 -0.8629 -0.1518
  902TIP3    H124121   4.892   1.805   4.532  1.6077  0.1325 -1.2817
  902TIP3    H224122   4.748   1.763   4.512  1.8294 -1.8944  1.1264
  903TIP3   OH224123   2.896   2.769  13.742  0.1600  0.4208  0.5505
  903TIP3    H124124   2.963   2.831  13.712  0.9619 -1.1519 -1.0006
  903TIP3    H224125   2.937   2.721  13.814  0.9185 -0.8689 -0.7079
  904TIP3   OH224126   6.054   6.523   2.099 -0.3754  0.0391  0.2291
  904TIP3    H124127   6.091   6.610   2.113  0.2019 -0.3168  0.9461
  904TIP3    H224128   5.960   6.536   2.104 -0.2525  0.3534  1.9516
  905TIP3   OH224129   0.770   3.083  12.983 -0.3365  0.7360  0.5286
  905TIP3    H124130   0.750   3.003  12.935 -1.9925  0.4796  1.6165
  905TIP3    H224131   0.685   3.125  12.996  0.4105  2.1914  0.8132
  906TIP3   OH224132   0.591   5.130  12.328 -0.1086 -0.4556  0.2315
  906TIP3    H124133   0.584   5.134  12.232 -2.2533 -0.2607  0.3764
  906TIP3    H224134   0.513   5.175  12.360 -0.2046 -1.8419  2.0654
  907TIP3   OH224135   6.641   6.178   3.475  0.0197  0.4242 -0.1327
  907TIP3    H124136   6.641   6.239   3.401  0.2889 -1.6360 -1.9084
  907TIP3    H224137   6.730   6.143   3.477 -0.2732 -0.2914  0.5119
  908TIP3   OH224138   4.880   0.516   6.131  0.3702  0.2304  0.3767
  908TIP3    H124139   4.945   0.587   6.132  0.6856 -0.0388  4.4806
  908TIP3    H224140   4.931   0.437   6.116  0.2401  0.5762 -2.2000
  909TIP3   OH224141   2.427   4.286  14.940  0.2246  0.2566 -0.6666
  909TIP3    H124142   2.516   4.251  14.948  0.6479  1.5189  0.4437
  909TIP3    H224143   2.435   4.362  14.883 -0.1863  0.2093 -0.7906
  910TIP3   OH224144   2.321   4.860   3.903  0.0855  0.4037 -0.4698
  910TIP3    H124145   2.242   4.868   3.955  0.6892 -1.2620  0.7763
  910TIP3    H224146   2.392   4.887   3.962  0.7459 -1.2006 -0.4780
  911TIP3   OH224147   0.250   3.100   6.529  0.1192  0.2213  0.5866
  911TIP3    H124148   0.268   3.034   6.596  1.3362  0.2736  0.3071
  911TIP3    H224149   0.300   3.072   6.453 -2.0156 -0.3741 -0.6533
  912TIP3   OH224150   1.213   4.668   3.301 -0.2346 -0.1256 -0.5720
  912TIP3    H124151   1.302   4.702   3.307  0.0311 -0.7633 -0.8910
  912TIP3    H224152   1.223   4.574   3.293 -0.9576 -0.2448 -0.1381
  913TIP3   OH224153   2.399   4.299  14.387 -0.0948  0.3242  0.5020
  913TIP3    H124154   2.464   4.241  14.427  0.0270  0.8763  1.1203
  913TIP3    H224155   2.327   4.241  14.362  0.4144 -0.2182  0.2766
  914TIP3   OH224156   3.263   6.134   0.325 -0.6026  0.1960  0.0952
  914TIP3    H124157   3.344   6.145   0.275 -0.4103  3.7832  1.1252
  914TIP3    H224158   3.197   6.184   0.276 -0.9996  1.6057  2.0474
  915TIP3   OH224159   1.121   3.186   0.543  0.4977  0.4150 -0.2702
  915TIP3    H124160   1.133   3.246   0.617  0.2904  0.7894 -0.5347
  915TIP3    H224161   1.117   3.099   0.582  1.7437  0.4870  0.0445
  916TIP3   OH224162   3.162   6.018  10.501 -0.3309 -0.1637  0.1630
  916TIP3    H124163   3.124   5.951  10.558  1.4962 -0.9775  0.4465
  916TIP3    H224164   3.255   5.995  10.495  0.5862  2.9608  1.1857
  917TIP3   OH224165   6.525   3.139   4.200  0.4287 -0.3380  0.1313
  917TIP3    H124166   6.533   3.054   4.243 -1.1369 -1.3981 -1.5630
  917TIP3    H224167   6.479   3.193   4.263  0.1998 -1.1718  0.6946
  918TIP3   OH224168   4.676   3.863   3.359  0.5816 -0.4957  1.0658
  918TIP3    H124169   4.754   3.879   3.306  0.0429 -3.0244 -0.5995
  918TIP3    H224170   4.692   3.779   3.401 -0.6900 -0.3932  1.7838
  919TIP3   OH224171   1.178   4.977  15.016  0.0313  0.6264 -0.9205
  919TIP3    H124172   1.204   5.041  15.083  1.4510  0.1149 -0.9646
  919TIP3    H224173   1.169   5.028  14.936 -4.1866  1.7099  0.1123
  920TIP3   OH224174   6.016   5.444   5.086  0.6264  0.0126  0.1593
  920TIP3    H124175   5.977   5.357   5.086  1.3946 -0.3691  2.8568
  920TIP3    H224176   5.942   5.504   5.079  0.0158 -0.8012 -0.5459
  921TIP3   OH224177   3.621   1.489  17.135 -0.2585 -0.4023 -0.8584
  921TIP3    H124178   3.662   1.514  17.218 -2.4440 -0.6825  0.3390
  921TIP3    H224179   3.665   1.408  17.110  0.0957 -0.5719  0.2852
  922TIP3   OH224180   6.777   4.263  14.345  0.1962 -0.2675  0.2385
  922TIP3    H124181   6.789   4.249  14.251 -0.9988  0.1279  0.0168
  922TIP3    H224182   6.749   4.355  14.353  2.9511  0.5382  1.2302
  923TIP3   OH224183   6.604   3.168  17.141  0.1135  0.1986 -0.3958
  923TIP3    H124184   6.650   3.086  17.128  0.3983 -0.3097  3.3632
  923TIP3    H224185   6.673   3.232  17.157 -0.2828  0.0456  2.1266
  924TIP3   OH224186   0.730   4.799   4.915  0.4187  0.1146 -0.3741
  924TIP3    H124187   0.779   4.718   4.925  0.3968  0.2864  1.3382
  924TIP3    H224188   0.666   4.798   4.987 -0.7521  0.8287 -1.3794
  925TIP3   OH224189   5.401   5.605  10.933 -0.2762 -0.3906 -0.7191
  925TIP3    H124190   5.483   5.581  10.890  0.1378 -1.1119  0.4351
  925TIP3    H224191   5.418   5.691  10.971 -0.3735 -0.1125 -1.3093
  926TIP3   OH224192   6.725   4.239  12.997 -0.5084  0.3649 -0.7670
  926TIP3    H124193   6.810   4.277  12.976 -0.2501  0.4591  0.3723
  926TIP3    H224194   6.744   4.173  13.063 -1.2583  0.0095 -0.8963
  927TIP3   OH224195   6.669   0.048   0.967  0.4707  0.0407 -0.0582
  927TIP3    H124196   6.618  -0.026   1.000  0.4742  0.1692  0.2381
  927TIP3    H224197   6.635   0.062   0.878  0.5520 -0.3888 -0.1589
  928TIP3   OH224198   4.523   4.049   5.892  0.0032 -0.1939  0.0773
  928TIP3    H124199   4.562   3.968   5.927 -0.0926  0.5933  2.0392
  928TIP3    H224200   4.449   4.019   5.840 -0.0185 -1.3729  0.7679
  929TIP3   OH224201   2.098   1.126   3.736  0.3360  0.2029  0.4523
  929TIP3    H124202   2.124   1.140   3.645  1.8265 -1.2774  0.6315
  929TIP3    H224203   2.174   1.156   3.787 -0.5421  1.1476  1.2220
  930TIP3   OH224204   3.084   5.254   0.971 -0.5138  0.0047 -0.6646
  930TIP3    H124205   3.140   5.292   0.903  0.2987 -0.2960 -0.1697
  930TIP3    H224206   3.011   5.216   0.923  1.0699 -1.9971 -1.5770
  931TIP3   OH224207   2.428   2.368   3.456  0.0389 -0.2225  0.0695
  931TIP3    H124208   2.362   2.354   3.524 -2.5985  0.4138 -2.2636
  931TIP3    H224209   2.443   2.463   3.457  0.4126 -0.2796  0.0981
  932TIP3   OH224210   6.261   1.051   1.465  0.2683 -0.6166  0.4296
  932TIP3    H124211   6.278   1.032   1.373  0.8842 -0.5347  0.5242
  932TIP3    H224212   6.320   1.123   1.487 -0.4434 -0.0997  0.6782
  933TIP3   OH224213   0.790   0.177   3.679  0.3449  0.0791 -0.0138
  933TIP3    H124214   0.829   0.237   3.616  0.2963 -0.1386 -0.2539
  933TIP3    H224215   0.750   0.108   3.625 -0.2056  0.2016  0.2319
  934TIP3   OH224216   0.351   3.626  15.793  0.2973 -0.4994  0.1442
  934TIP3    H124217   0.270   3.602  15.839  0.4209 -0.3498  0.4404
  934TIP3    H224218   0.401   3.676  15.857 -0.2174  1.0814 -0.6509
  935TIP3   OH224219   5.628   5.437  11.906 -0.1473 -0.2957 -0.6655
  935TIP3    H124220   5.539   5.407  11.887 -0.1556 -0.7423  0.0562
  935TIP3    H224221   5.675   5.358  11.932  0.7235 -0.2240 -1.9542
  936TIP3   OH224222   1.167   1.484  12.147  0.4298  0.1157  0.2947
  936TIP3    H124223   1.162   1.483  12.052  0.5300 -1.8636  0.2715
  936TIP3    H224224   1.177   1.576  12.171  1.6169  0.5219 -1.6746
  937TIP3   OH224225   1.774   4.594  15.512 -0.0882 -0.1556 -0.5901
  937TIP3    H124226   1.834   4.520  15.520 -0.5344 -0.4141  0.4686
  937TIP3    H224227   1.710   4.581  15.582 -0.0300  1.3761 -0.2384
  938TIP3   OH224228   5.464   3.647   5.261  0.3053  0.1369  0.5140
  938TIP3    H124229   5.472   3.662   5.355  0.5550  0.1091  0.4979
  938TIP3    H224230   5.555   3.639   5.230  0.1808 -2.4711  0.7102
  939TIP3   OH224231   5.116   3.841  11.429  0.4309 -0.2266 -0.0072
  939TIP3    H124232   5.035   3.834  11.480 -0.2344  1.7251 -0.7261
  939TIP3    H224233   5.096   3.795  11.347 -0.5268  1.5623 -0.8116
  940TIP3   OH224234   0.890   1.610  13.736 -0.0581 -0.1548 -0.3373
  940TIP3    H124235   0.981   1.599  13.763 -0.3782 -0.6442  0.5696
  940TIP3    H224236   0.840   1.614  13.818 -0.9293 -0.6514 -0.8253
  941TIP3   OH224237   1.321   4.813  14.750  0.0837  0.0972  0.0016
  941TIP3    H124238   1.274   4.730  14.746  2.9053 -1.4987 -1.6007
  941TIP3    H224239   1.253   4.879  14.740 -1.9452 -2.0926 -1.3772
  942TIP3   OH224240   2.570   3.962  17.176 -0.5653  0.1585 -0.2488
  942TIP3    H124241   2.505   3.959  17.246  0.2428 -2.8608  0.4353
  942TIP3    H224242   2.654   3.954  17.221  0.0530 -0.0919 -1.4342
  943TIP3   OH224243   3.444   5.350  13.322 -0.1064  0.0742 -0.1367
  943TIP3    H124244   3.493   5.428  13.298 -0.9138  0.3866 -0.7986
  943TIP3    H224245   3.424   5.307  13.239 -1.6502  0.3856  0.0465
  944TIP3   OH224246   4.281   4.208   0.826  0.0761  0.7661  0.3857
  944TIP3    H124247   4.266   4.116   0.804  0.2584  1.0427 -0.9130
  944TIP3    H224248   4.376   4.218   0.822  0.0407  1.0642  0.2910
  945TIP3   OH224249   4.345   1.954  10.971  0.1037 -0.1336  0.2406
  945TIP3    H124250   4.297   1.910  10.900  1.6494 -1.2430 -0.1671
  945TIP3    H224251   4.407   1.887  11.002  0.1548  0.6909  1.9309
  946TIP3   OH224252   0.078   6.661  12.724 -0.2949 -0.0041  0.6101
  946TIP3    H124253   0.141   6.732  12.715  1.9119 -1.9435  0.2016
  946TIP3    H224254   0.076   6.619  12.638 -1.2477 -0.7044  0.9665
  947TIP3   OH224255   5.201   3.306  11.543 -0.2067 -0.6686  0.2684
  947TIP3    H124256   5.243   3.374  11.596 -0.9996 -0.8498  1.1470
  947TIP3    H224257   5.273   3.256  11.506  0.3596 -0.3580  0.9389
  948TIP3   OH224258   4.827   1.069   1.403  0.1900 -0.3589  0.6770
  948TIP3    H124259   4.881   1.136   1.360 -0.2461  1.0572  2.2769
  948TIP3    H224260   4.890   1.011   1.446  0.5828 -1.1214 -0.8964
  949TIP3   OH224261   3.446   1.827   2.438  0.7476 -0.3175 -0.1601
  949TIP3    H124262   3.464   1.823   2.344  2.9611  3.1603  0.0484
  949TIP3    H224263   3.522   1.785   2.479  0.8264  0.1125  0.1382
  950TIP3   OH224264   1.983   3.734   4.113 -0.4471 -0.3583  0.1510
  950TIP3    H124265   1.982   3.755   4.206  0.2803 -1.5639  0.4485
  950TIP3    H224266   1.891   3.715   4.092 -0.6338  0.0584  0.5875
  951TIP3   OH224267   4.842   3.120  13.829  0.1439  0.5562 -0.5067
  951TIP3    H124268   4.795   3.188  13.782 -0.5065 -0.1530 -0.9015
  951TIP3    H224269   4.848   3.152  13.919 -0.1007  1.1605 -0.7075
  952TIP3   OH224270   6.016   3.062   2.053 -0.3174 -0.3334  0.2834
  952TIP3    H124271   6.106   3.030   2.039 -0.4061  0.0901 -1.4113
  952TIP3    H224272   6.012   3.083   2.146  1.5877  0.3532  0.2363
  953TIP3   OH224273   6.174   0.661  14.826 -0.0957  0.3189  0.1978
  953TIP3    H124274   6.233   0.639  14.754 -0.2408 -0.2506  0.2492
  953TIP3    H224275   6.181   0.588  14.887 -0.7933  0.2751  0.2386
  954TIP3   OH224276   4.684   2.357  16.274  0.1508 -0.1143  0.2422
  954TIP3    H124277   4.590   2.358  16.289  0.3978  1.1598  1.8037
  954TIP3    H224278   4.712   2.271  16.307 -0.3281 -0.1228  0.6404
  955TIP3   OH224279   1.352   6.561  12.209 -0.2881  0.2826 -0.2290
  955TIP3    H124280   1.281   6.553  12.145 -0.0791  0.2849 -0.4657
  955TIP3    H224281   1.309   6.588  12.290 -0.4763  0.9338 -0.5420
  956TIP3   OH224282   5.085   1.023   0.509  0.0924  0.9171  0.0576
  956TIP3    H124283   5.123   0.935   0.511 -3.8346 -0.9313 -1.2237
  956TIP3    H224284   5.072   1.046   0.601  1.3310  0.2182  0.4066
  957TIP3   OH224285   6.459   6.122   0.805  0.5259  0.8016 -0.3837
  957TIP3    H124286   6.543   6.165   0.791  1.3838 -0.7991 -0.2266
  957TIP3    H224287   6.481   6.031   0.823 -1.2931  0.1456 -1.3345
  958TIP3   OH224288   2.098   0.507  16.993  0.4201 -0.6564 -0.4903
  958TIP3    H124289   2.024   0.451  16.969 -0.7475  0.4551  0.4887
  958TIP3    H224290   2.076   0.593  16.958  0.1931  0.2097  1.6888
  959TIP3   OH224291   1.678   0.778   2.586  0.1326 -0.3243 -0.1372
  959TIP3    H124292   1.589   0.807   2.565 -0.2423 -0.7743  0.8137
  959TIP3    H224293   1.677   0.762   2.680  1.1607 -0.5563 -0.1572
  960TIP3   OH224294   0.412   1.220   0.956 -0.3564  0.1541  0.1039
  960TIP3    H124295   0.355   1.289   0.990 -0.9119 -0.0857 -0.3262
  960TIP3    H224296   0.471   1.265   0.896  0.1015  0.4511  0.7750
  961TIP3   OH224297   3.023   1.227  11.258  0.2538  0.0223  0.7266
  961TIP3    H124298   3.063   1.143  11.281  1.9703  0.4151 -0.7320
  961TIP3    H224299   2.945   1.203  11.208 -0.5540 -0.7335  2.3419
  962TIP3   OH224300   6.582   3.869   4.466 -0.1346 -0.0556 -0.4922
  962TIP3    H124301   6.505   3.925   4.464  0.8383  1.3744  0.6175
  962TIP3    H224302   6.567   3.803   4.399 -1.9501  0.6926 -0.8252
  963TIP3   OH224303   3.847   4.734  17.047  0.1876  0.2268 -0.3592
  963TIP3    H124304   3.765   4.685  17.047  0.1909  0.2220  0.2988
  963TIP3    H224305   3.856   4.766  16.957  0.0810 -0.8078 -0.7392
  964TIP3   OH224306   3.244   0.555   4.563  0.2329  0.4277 -0.3457
  964TIP3    H124307   3.207   0.531   4.648  2.0485 -0.5213  0.2214
  964TIP3    H224308   3.214   0.486   4.504  0.7625 -0.1380  0.0310
  965TIP3   OH224309   3.237   0.346  15.044 -0.1187 -0.5935  0.0353
  965TIP3    H124310   3.209   0.412  15.108 -0.8748 -0.2401 -0.6395
  965TIP3    H224311   3.324   0.375  15.017  0.5287 -1.1736  1.4651
  966TIP3   OH224312   1.504   3.103   3.042 -0.5175  0.3439  0.1799
  966TIP3    H124313   1.441   3.172   3.020  1.1270  2.4209  1.7969
  966TIP3    H224314   1.558   3.093   2.964 -0.5019  1.2048  0.0740
  967TIP3   OH224315   4.291   0.761   4.491  0.0236 -0.1139  0.4141
  967TIP3    H124316   4.266   0.842   4.535  0.2593 -0.5055  1.2777
  967TIP3    H224317   4.363   0.787   4.432 -0.9623  0.6009 -0.4984
  968TIP3   OH224318   2.643   1.402  14.831  0.0609 -0.1884  0.0932
  968TIP3    H124319   2.611   1.332  14.888  0.8706  0.1907  1.0228
  968TIP3    H224320   2.565   1.430  14.782 -1.1297  0.8951  2.5072
  969TIP3   OH224321   0.628   1.449  13.607  0.0623  0.3354  0.0074
  969TIP3    H124322   0.701   1.409  13.560 -0.1555 -0.6092  0.4465
  969TIP3    H224323   0.631   1.541  13.583  2.4510  0.6595  1.3263
  970TIP3   OH224324   1.440   4.036  15.048 -0.3960 -0.6225  0.2098
  970TIP3    H124325   1.481   3.956  15.014  0.0013  0.2062 -1.3399
  970TIP3    H224326   1.445   4.098  14.975 -2.6693  0.1217  0.6293
  971TIP3   OH224327   1.283   2.190  15.340  0.3521  0.1583 -0.2390
  971TIP3    H124328   1.359   2.158  15.389  0.3654  0.6117  0.0338
  971TIP3    H224329   1.319   2.259  15.284  0.3120 -0.2587 -0.7830
  972TIP3   OH224330   0.109   5.501  16.695 -0.5368 -0.0911  0.5239
  972TIP3    H124331   0.187   5.535  16.740 -1.1565  2.1210 -0.0063
  972TIP3    H224332   0.127   5.515  16.602 -0.4794 -1.9936  0.2395
  973TIP3   OH224333   3.529   1.770  13.896 -0.5354  0.1675 -0.5839
  973TIP3    H124334   3.518   1.865  13.898 -1.5124  0.0969 -2.2125
  973TIP3    H224335   3.515   1.745  13.805 -1.5311 -1.7072  0.0461
  974TIP3   OH224336   3.145   5.408   0.739  0.1155  0.5473 -0.3636
  974TIP3    H124337   3.151   5.501   0.718  0.5245  1.1779  2.2932
  974TIP3    H224338   3.058   5.382   0.710 -1.1238  2.4937  1.4709
  975TIP3   OH224339   5.975   6.413  16.243  0.3905  0.2810 -0.0291
  975TIP3    H124340   5.938   6.441  16.160 -1.0560 -0.9486  0.1719
  975TIP3    H224341   5.990   6.319  16.232  2.3858  0.5422  0.3055
  976TIP3   OH224342   5.769   1.406  14.133 -0.6614  0.0348  0.0747
  976TIP3    H124343   5.747   1.411  14.226  1.7900  0.9943  0.6478
  976TIP3    H224344   5.749   1.315  14.109 -1.7701 -0.0949  1.4166
  977TIP3   OH224345   2.423   3.942   0.182  0.2587  0.2247  0.2127
  977TIP3    H124346   2.490   3.962   0.247 -0.4779  2.6021  0.2804
  977TIP3    H224347   2.426   3.846   0.174  2.0244  0.0926  1.9283
  978TIP3   OH224348   4.376   4.487  12.158  0.2417  0.0635 -0.4155
  978TIP3    H124349   4.366   4.396  12.187  1.3704 -0.3284 -1.2068
  978TIP3    H224350   4.467   4.492  12.128 -0.3529  0.9588 -2.1182
  979TIP3   OH224351   4.986   5.561   5.597  0.3155  0.0311 -0.1596
  979TIP3    H124352   4.989   5.642   5.648  0.8247  0.4636 -0.8677
  979TIP3    H224353   4.930   5.502   5.648  1.3396  0.2293  1.2307
  980TIP3   OH224354   5.327   3.281  14.021  0.1161  0.2879 -0.4747
  980TIP3    H124355   5.270   3.206  14.005 -0.5798  0.5168  0.8018
  980TIP3    H224356   5.301   3.346  13.956 -2.0080  0.8664  0.8849
  981TIP3   OH224357   2.378   1.489  15.110 -0.4293 -0.3882  0.1819
  981TIP3    H124358   2.346   1.415  15.059  0.7665  0.4191 -1.8065
  981TIP3    H224359   2.372   1.564  15.050  0.2990  0.7229  1.4660
  982TIP3   OH224360   2.628   1.542   3.205  0.2900 -0.6479  0.1018
  982TIP3    H124361   2.627   1.475   3.137 -1.7491  1.4564 -2.0379
  982TIP3    H224362   2.703   1.597   3.183 -1.1653  0.8360 -1.3562
  983TIP3   OH224363   6.630   1.895  17.202 -0.1844  0.2343 -0.2712
  983TIP3    H124364   6.611   1.983  17.234 -0.8431 -0.1159  0.3071
  983TIP3    H224365   6.709   1.869  17.249 -1.5244 -0.5397  1.6168
  984TIP3   OH224366   3.499   2.515   0.663 -0.2912  0.1957  0.3815
  984TIP3    H124367   3.457   2.581   0.719 -0.7437 -0.1305  0.4269
  984TIP3    H224368   3.432   2.448   0.651 -0.4700  0.6386 -1.2051
  985TIP3   OH224369   4.237   4.304  13.749  0.8172  0.3314  0.0163
  985TIP3    H124370   4.180   4.376  13.723  1.2989  0.7576  0.1226
  985TIP3    H224371   4.184   4.225  13.737  0.5642  0.6358 -0.9141
  986TIP3   OH224372   0.152   1.380   3.339  0.1328 -0.0594 -0.6174
  986TIP3    H124373   0.108   1.454   3.296 -0.6776 -0.4628 -0.5065
  986TIP3    H224374   0.166   1.317   3.268  0.4241  0.0160 -0.6276
  987TIP3   OH224375   3.527   2.041  16.640 -0.0353  0.2102 -0.7627
  987TIP3    H124376   3.522   2.070  16.730 -0.6928 -1.0857 -0.3664
  987TIP3    H224377   3.620   2.020  16.627  0.2654  1.5010 -0.7584
  988TIP3   OH224378   2.548   0.605  16.084  0.2789 -0.2977  0.7368
  988TIP3    H124379   2.600   0.544  16.135 -1.4463  0.0857  3.0534
  988TIP3    H224380   2.474   0.553  16.052 -1.2335  0.4802  2.7785
  989TIP3   OH224381   0.663   2.483  16.117 -0.0901 -0.4449  0.2086
  989TIP3    H124382   0.634   2.568  16.149 -0.3126 -0.5271  0.2276
  989TIP3    H224383   0.623   2.420  16.177  0.0542 -0.5632  0.1801
  990TIP3   OH224384   5.158   4.026   3.442 -0.4334 -0.5228 -0.2665
  990TIP3    H124385   5.079   4.048   3.392  1.2889  0.1756 -2.7697
  990TIP3    H224386   5.205   3.964   3.387  0.4524 -1.4468  1.5056
  991TIP3   OH224387   6.770   1.816  14.189  0.4868  0.2420  0.2599
  991TIP3    H124388   6.855   1.856  14.208 -0.2433  0.9008  2.2546
  991TIP3    H224389   6.740   1.860  14.109  0.7840  1.9693  1.0730
  992TIP3   OH224390   3.581   0.653   3.789 -0.3697 -0.1053  0.3448
  992TIP3    H124391   3.607   0.586   3.852  0.1965 -1.4032 -1.2471
  992TIP3    H224392   3.517   0.706   3.836  0.2494 -0.8800  2.1035
  993TIP3   OH224393   5.402   1.186   2.806 -0.6873 -0.3406  0.1349
  993TIP3    H124394   5.377   1.229   2.888 -2.6551 -1.4275  0.1460
  993TIP3    H224395   5.442   1.104   2.833  1.7527  0.7878  0.0725
  994TIP3   OH224396   3.099   5.435  15.597 -0.2013  0.1119  0.1685
  994TIP3    H124397   3.172   5.481  15.638 -0.4287 -0.0666  0.7735
  994TIP3    H224398   3.020   5.475  15.633 -0.4102  0.3258 -0.5067
  995TIP3   OH224399   4.148   0.777   0.348  0.4817 -0.1324 -0.3415
  995TIP3    H124400   4.175   0.687   0.332 -0.3006 -0.3554 -0.4439
  995TIP3    H224401   4.068   0.787   0.296  1.1184  0.9310 -1.1303
  996TIP3   OH224402   3.094   1.951  12.529 -0.0450  0.3396  0.2748
  996TIP3    H124403   3.056   1.873  12.568 -1.2605  0.7130 -0.1579
  996TIP3    H224404   3.179   1.923  12.496 -0.7061 -0.9214 -0.3534
  997TIP3   OH224405   2.279   4.438  15.636  0.0631 -0.7822  0.1417
  997TIP3    H124406   2.348   4.497  15.606 -0.4192  0.0215  0.5767
  997TIP3    H224407   2.325   4.358  15.662  0.4277 -1.7358 -3.2439
  998TIP3   OH224408   5.674   5.065  15.267 -0.0762 -0.8512 -0.1151
  998TIP3    H124409   5.611   5.094  15.333 -0.1133  0.9248 -0.8867
  998TIP3    H224410   5.624   5.066  15.185  0.3317 -1.7203 -0.3748
  999TIP3   OH224411   3.806   4.253  12.286  0.4052  0.1003  0.2024
  999TIP3    H124412   3.863   4.265  12.361 -0.2575  0.8175  0.6012
  999TIP3    H224413   3.738   4.320  12.296 -0.8234 -1.0863  0.0350
 1000TIP3   OH224414   3.077   3.102   4.692  0.0575  0.3236 -0.0516
 1000TIP3    H124415   3.029   3.038   4.744  0.9122 -1.2400 -1.1453
 1000TIP3    H224416   3.039   3.095   4.604  0.2311  1.2449 -0.2015
 1001TIP3   OH224417   5.476   4.025  13.791 -0.4592  0.1602  0.0074
 1001TIP3    H124418   5.532   4.048  13.865  0.4827 -1.2832 -0.2237
 1001TIP3    H224419   5.514   3.944  13.756 -1.0928  0.6150 -1.8368
 1002TIP3   OH224420   3.257   6.483  16.836 -0.2500  0.2309 -0.0292
 1002TIP3    H124421   3.171   6.519  16.817 -0.6135 -0.1735  0.8618
 1002TIP3    H224422   3.262   6.405  16.781 -1.0484 -0.5735  1.0213
 1003TIP3   OH224423   6.407   1.417   1.922 -0.1450  0.3950  0.4056
 1003TIP3    H124424   6.337   1.482   1.914  2.4947  3.2304 -0.4882
 1003TIP3    H224425   6.439   1.427   2.012 -0.5605 -0.5683  0.6667
 1004TIP3   OH224426   4.803   0.598   5.382  0.7304 -0.1652  0.2341
 1004TIP3    H124427   4.830   0.609   5.291  1.0577 -0.3317  0.3095
 1004TIP3    H224428   4.843   0.672   5.428  0.5891 -0.0967  0.2473
 1005TIP3   OH224429   3.530   5.223   5.589 -0.2390  0.6112  0.0536
 1005TIP3    H124430   3.440   5.211   5.621 -1.2377  0.1751 -2.7328
 1005TIP3    H224431   3.583   5.164   5.643 -1.8448 -0.1428  0.8394
 1006TIP3   OH224432   5.590   4.780   4.093  0.3838 -0.4749  0.0412
 1006TIP3    H124433   5.622   4.723   4.162  1.1603  0.9155  0.8454
 1006TIP3    H224434   5.576   4.864   4.136  0.1631  0.2032 -1.3339
 1007TIP3   OH224435   4.608   5.289   2.280  0.4069  0.1973 -0.0763
 1007TIP3    H124436   4.642   5.295   2.191  0.4023  0.0437 -0.0895
 1007TIP3    H224437   4.521   5.328   2.275 -0.2525 -1.2565 -0.5040
 1008TIP3   OH224438   1.345   1.738   3.861  0.5157 -0.4420 -0.3517
 1008TIP3    H124439   1.330   1.832   3.851 -0.8349 -0.6866 -0.8187
 1008TIP3    H224440   1.344   1.704   3.772 -1.1407 -1.1852 -0.0711
 1009TIP3   OH224441   1.059   1.628   5.219  0.3613  0.3840  0.0752
 1009TIP3    H124442   1.053   1.601   5.311  0.0265 -1.3452 -0.4367
 1009TIP3    H224443   1.052   1.546   5.170  0.9586  1.2511 -1.4801
 1010TIP3   OH224444   5.728   0.890   3.093 -0.4528  0.1536  0.2338
 1010TIP3    H124445   5.686   0.842   3.164 -0.1179  0.5120  0.6684
 1010TIP3    H224446   5.797   0.941   3.134 -0.5999  0.7755 -0.2701
 1011TIP3   OH224447   4.619   6.231   2.547 -0.1996 -0.7376 -0.5687
 1011TIP3    H124448   4.597   6.252   2.456  2.2390 -2.4282 -1.6102
 1011TIP3    H224449   4.672   6.305   2.577 -1.0694 -0.1428 -0.4909
 1012TIP3   OH224450   0.319   2.529  12.700  0.3154 -0.1339 -0.5082
 1012TIP3    H124451   0.356   2.452  12.656  0.8737 -1.5405  2.3109
 1012TIP3    H224452   0.392   2.591  12.704  1.0968 -1.0996  0.8641
 1013TIP3   OH224453   1.534   4.409  12.225 -0.2568 -0.5206  0.2395
 1013TIP3    H124454   1.546   4.447  12.138  0.3354 -1.0466  0.0898
 1013TIP3    H224455   1.562   4.318  12.216 -2.4924 -1.2544  0.3736
 1014TIP3   OH224456   2.224   3.899   0.375  0.1550 -0.3587  0.5862
 1014TIP3    H124457   2.251   3.980   0.418 -0.3058  0.1500 -0.0791
 1014TIP3    H224458   2.270   3.901   0.291 -0.8501 -0.1716  0.0366
 1015TIP3   OH224459   0.696   2.516  16.562 -0.3377  0.7081 -0.3215
 1015TIP3    H124460   0.735   2.602  16.547 -0.6967  0.9726  0.2634
 1015TIP3    H224461   0.632   2.529  16.632  1.1841 -0.4710  1.3371
 1016TIP3   OH224462   4.481   3.164  16.276 -0.0502 -0.5300  0.1659
 1016TIP3    H124463   4.473   3.238  16.216  1.4848  0.0566  0.6711
 1016TIP3    H224464   4.391   3.146  16.304 -0.8779 -1.3701 -2.9318
 1017TIP3   OH224465   0.427   5.555   6.117 -0.3375  0.0984  0.1979
 1017TIP3    H124466   0.444   5.475   6.067  4.8131  1.3489 -0.3509
 1017TIP3    H224467   0.389   5.615   6.053 -1.5982 -0.9593 -0.0802
 1018TIP3   OH224468   1.021   5.952   5.302 -0.3258 -0.6395  0.7084
 1018TIP3    H124469   1.028   6.041   5.337  0.9248 -0.4806  0.0694
 1018TIP3    H224470   1.031   5.896   5.379  0.8456 -0.2588  0.8390
 1019TIP3   OH224471   4.265   2.896  13.075  0.1066 -0.3626 -0.0385
 1019TIP3    H124472   4.298   2.985  13.083  0.8944 -0.8085  2.0283
 1019TIP3    H224473   4.181   2.905  13.030 -0.4129  1.5393  1.2743
 1020TIP3   OH224474   4.629   2.107   0.003  0.3481  0.3326 -0.1468
 1020TIP3    H124475   4.698   2.126   0.066 -0.3455 -1.4760  1.2000
 1020TIP3    H224476   4.674   2.107  -0.082  1.9861 -0.7324  0.6930
 1021TIP3   OH224477   5.667   5.239   2.434  0.3722  0.3153  0.4292
 1021TIP3    H124478   5.633   5.279   2.354 -1.2324  1.1328  1.4753
 1021TIP3    H224479   5.747   5.194   2.407  0.0094  0.8188 -1.5654
 1022TIP3   OH224480   3.881   2.948  13.956 -0.1415 -0.0649  0.5628
 1022TIP3    H124481   3.896   2.874  14.015  0.1402 -2.1502 -2.0179
 1022TIP3    H224482   3.951   2.940  13.890 -1.7072  0.9318 -1.2576
 1023TIP3   OH224483   4.428   2.129  16.315  0.2682  0.4190  0.4254
 1023TIP3    H124484   4.379   2.138  16.233  1.0386  0.8277 -0.0041
 1023TIP3    H224485   4.410   2.210  16.362  0.4508  0.5246  0.3147
 1024TIP3   OH224486   2.288   3.567  11.706 -0.3481  0.0744 -0.2892
 1024TIP3    H124487   2.341   3.641  11.679  0.3445 -0.7850 -1.3489
 1024TIP3    H224488   2.217   3.605  11.758  0.5932  1.3534  0.0749
 1025TIP3   OH224489   2.488   6.045  10.728 -0.4507 -0.3017  0.1893
 1025TIP3    H124490   2.410   6.003  10.765  0.1650  0.2413  2.2138
 1025TIP3    H224491   2.458   6.132  10.703 -0.1959  0.4496  2.3685
 1026TIP3   OH224492   1.191   2.071   3.166  0.2358 -0.5203 -0.4803
 1026TIP3    H124493   1.247   1.994   3.176  0.3397 -0.5165 -1.0327
 1026TIP3    H224494   1.104   2.041   3.190  0.3386 -0.7257 -0.3705
 1027TIP3   OH224495   5.643   6.334   0.474 -0.3030  0.7602  0.4321
 1027TIP3    H124496   5.689   6.340   0.558 -1.4054  0.6735  1.0447
 1027TIP3    H224497   5.697   6.275   0.422  1.1530  1.9077  0.5676
 1028TIP3   OH224498   0.505   4.057  11.993  0.6995  0.1151 -0.1407
 1028TIP3    H124499   0.579   4.038  12.051  1.7172  1.6552 -0.8843
 1028TIP3    H224500   0.429   4.061  12.051  1.2607 -1.0025  0.7024
 1029TIP3   OH224501   1.132   4.240   5.538 -0.1628  0.5393  1.0444
 1029TIP3    H124502   1.128   4.331   5.509 -1.3171  0.1634 -0.0520
 1029TIP3    H224503   1.201   4.239   5.604  2.0725  1.5861 -1.1748
 1030TIP3   OH224504   6.284   4.814  11.799 -0.3383  0.3566 -0.0727
 1030TIP3    H124505   6.286   4.778  11.710  0.8896  0.0409  0.0713
 1030TIP3    H224506   6.254   4.904  11.788  3.0210  1.4176 -1.2192
 1031TIP3   OH224507   4.495   3.859   0.595  0.3823 -0.1589 -0.1260
 1031TIP3    H124508   4.522   3.946   0.566 -2.4658  0.5809 -0.7444
 1031TIP3    H224509   4.568   3.827   0.648  1.7945  2.2678 -0.5397
 1032TIP3   OH224510   5.396   5.367   3.956 -0.7199  0.2790  0.9018
 1032TIP3    H124511   5.301   5.368   3.945 -0.6727 -3.2491 -0.8014
 1032TIP3    H224512   5.410   5.322   4.039 -0.5585 -1.1510  0.1268
 1033TIP3   OH224513   2.091   5.838   0.675 -0.7626 -0.2596 -0.1566
 1033TIP3    H124514   2.144   5.914   0.650 -2.4181  0.7979 -0.5105
 1033TIP3    H224515   2.001   5.866   0.663 -1.4179 -2.1786  0.0477
 1034TIP3   OH224516   4.961   6.522   2.062  0.2157 -0.0949  0.0451
 1034TIP3    H124517   5.036   6.579   2.081  0.8980 -0.8339 -0.3834
 1034TIP3    H224518   4.884   6.576   2.083  0.8232  1.2019 -0.9649
 1035TIP3   OH224519   6.713   2.150  13.789 -0.5114  0.4731 -0.0867
 1035TIP3    H124520   6.778   2.215  13.761 -1.0941  1.1230  0.0399
 1035TIP3    H224521   6.667   2.126  13.709  0.4631 -0.6348 -0.3118
 1036TIP3   OH224522   4.723   2.357   4.816  0.0378 -0.6582 -0.3657
 1036TIP3    H124523   4.730   2.378   4.723 -0.6320 -1.3195 -0.5703
 1036TIP3    H224524   4.633   2.379   4.839  0.0987 -0.8240  0.0364
 1037TIP3   OH224525   2.011   1.341   6.472  0.0127  0.1616  0.0810
 1037TIP3    H124526   2.037   1.432   6.465 -1.5837  0.4920 -2.2080
 1037TIP3    H224527   1.931   1.343   6.525 -0.6131  0.2479 -0.8424
 1038TIP3   OH224528   5.652   5.614   1.320 -0.4320  0.0472  0.1501
 1038TIP3    H124529   5.590   5.655   1.260 -0.6862  1.2886  1.2143
 1038TIP3    H224530   5.602   5.602   1.401 -0.1559 -1.7792  0.0663
 1039TIP3   OH224531   4.287   0.244  14.220 -0.2094 -0.1991 -0.3813
 1039TIP3    H124532   4.377   0.252  14.252 -0.2030  1.3401 -0.7550
 1039TIP3    H224533   4.251   0.332  14.230 -1.6437 -0.7918 -0.3310
 1040TIP3   OH224534   2.470   1.256  14.058  0.2772 -0.0965 -0.7957
 1040TIP3    H124535   2.558   1.292  14.045  0.1935  0.8391  1.0213
 1040TIP3    H224536   2.415   1.333  14.076 -0.1492 -0.9724  1.8527
 1041TIP3   OH224537   2.421   5.179   4.533 -0.0784 -0.1757  0.0555
 1041TIP3    H124538   2.357   5.245   4.559 -0.7380 -0.8654  0.2213
 1041TIP3    H224539   2.394   5.153   4.445  0.7399  0.4556 -0.3811
 1042TIP3   OH224540   1.307   4.041   4.631  0.5352  0.3289 -0.2869
 1042TIP3    H124541   1.375   3.973   4.622  0.4932  0.1007  1.0588
 1042TIP3    H224542   1.306   4.084   4.546  1.3833 -0.6000 -0.7863
 1043TIP3   OH224543   5.267   2.522   4.683 -0.3283 -0.0873  0.1428
 1043TIP3    H124544   5.281   2.436   4.643 -1.0736 -0.7493  1.2714
 1043TIP3    H224545   5.349   2.541   4.728 -0.4872 -0.6566  0.6895
 1044TIP3   OH224546   0.639   4.787   3.257 -0.1767  0.2613  0.2402
 1044TIP3    H124547   0.565   4.743   3.298  0.6861 -0.7145  0.7766
 1044TIP3    H224548   0.600   4.862   3.211 -1.4745 -0.1997  0.5679
 1045TIP3   OH224549   2.070   1.465  10.739  0.3965 -0.6769 -0.4050
 1045TIP3    H124550   2.100   1.478  10.829 -0.2073 -1.2408 -0.1175
 1045TIP3    H224551   1.975   1.466  10.745  0.3566 -0.3938 -1.0883
 1046TIP3   OH224552   3.007   6.543  11.377 -0.1493  0.5206 -0.1581
 1046TIP3    H124553   2.936   6.521  11.317  0.5072 -0.9976 -0.3883
 1046TIP3    H224554   3.003   6.476  11.445  2.0060 -0.4406 -0.9651
 1047TIP3   OH224555   3.680   0.036  10.300 -0.5535 -0.4700  0.2012
 1047TIP3    H124556   3.724   0.048  10.216  1.1334 -0.1016  1.1004
 1047TIP3    H224557   3.635   0.119  10.316  0.3155 -0.0105  0.3128
 1048TIP3   OH224558   5.049   4.940   2.651  0.7533 -0.1546 -0.0591
 1048TIP3    H124559   5.098   4.911   2.575 -1.0224  1.5503 -1.9296
 1048TIP3    H224560   4.960   4.908   2.636  0.1159  1.2224  0.6690
 1049TIP3   OH224561   0.809   1.100  12.669 -0.0849  0.0752 -0.2294
 1049TIP3    H124562   0.828   1.192  12.653  1.3080 -0.0140  0.8502
 1049TIP3    H224563   0.717   1.090  12.645 -0.3517  1.8360  0.0312
 1050TIP3   OH224564   5.585   3.380   0.226 -0.7039  0.2732 -0.1088
 1050TIP3    H124565   5.664   3.404   0.274 -0.9643  0.8029  0.0519
 1050TIP3    H224566   5.529   3.457   0.230 -1.2426 -0.1080 -0.2071
 1051TIP3   OH224567   1.718   5.575   1.415  0.5825 -0.8500 -0.3162
 1051TIP3    H124568   1.710   5.661   1.373  0.5436 -0.4866  0.4122
 1051TIP3    H224569   1.634   5.532   1.397 -0.6232  0.4613  1.8842
 1052TIP3   OH224570   1.834   4.734   1.005  0.4263 -0.3011 -0.4976
 1052TIP3    H124571   1.838   4.705   0.914 -0.4015 -1.3981 -0.2005
 1052TIP3    H224572   1.792   4.661   1.051  0.4987  0.4014  0.6965
 1053TIP3   OH224573   1.690   6.425   0.709 -0.2476 -0.1322 -0.6181
 1053TIP3    H124574   1.684   6.406   0.615 -0.0281  0.3404 -0.7269
 1053TIP3    H224575   1.783   6.442   0.725 -0.2814 -0.2205 -0.3131
 1054TIP3   OH224576   4.143   2.780   5.772 -0.3726 -0.0747 -0.2524
 1054TIP3    H124577   4.194   2.848   5.817 -2.0511  0.8555  0.2993
 1054TIP3    H224578   4.156   2.797   5.679 -2.1988  2.1254 -0.1337
 1055TIP3   OH224579   6.730   6.443  12.189 -0.1060  0.2175  0.4179
 1055TIP3    H124580   6.638   6.419  12.201 -0.0774 -0.8799 -1.4352
 1055TIP3    H224581   6.741   6.451  12.094  0.9403  3.4420  0.7324
 1056TIP3   OH224582   0.161   4.632   2.000 -0.4120  0.6304 -0.0977
 1056TIP3    H124583   0.146   4.612   2.092  0.0240  0.3173 -0.0952
 1056TIP3    H224584   0.110   4.712   1.984  0.3036  1.2447  0.6688
 1057TIP3   OH224585   2.249   3.342  16.653 -0.8395  0.3427  0.2911
 1057TIP3    H124586   2.281   3.409  16.592  0.2621 -0.7471 -0.3385
 1057TIP3    H224587   2.268   3.377  16.740  1.2660  0.1151 -0.0573
 1058TIP3   OH224588   6.737   4.596   0.376 -0.6028  0.2079 -0.6178
 1058TIP3    H124589   6.830   4.573   0.386 -0.7718 -1.0645 -1.7977
 1058TIP3    H224590   6.699   4.579   0.462  0.0216 -0.4714 -0.4704
 1059TIP3   OH224591   2.106   3.199  14.715  0.4133  0.1975 -0.7571
 1059TIP3    H124592   2.027   3.149  14.736  1.8838 -0.9662  2.3177
 1059TIP3    H224593   2.106   3.271  14.778  2.0841 -0.1454 -0.3448
 1060TIP3   OH224594   0.495   3.191   0.428 -0.1710 -0.6371 -0.0894
 1060TIP3    H124595   0.559   3.253   0.391  0.7054 -1.3131  0.2805
 1060TIP3    H224596   0.504   3.202   0.523 -0.5885 -0.7597 -0.0346
 1061TIP3   OH224597   6.370   6.695   4.392  0.1827  0.2101 -0.7913
 1061TIP3    H124598   6.303   6.706   4.459  0.2177 -0.3315 -0.6614
 1061TIP3    H224599   6.333   6.736   4.313  0.8137  2.3216 -0.0260
 1062TIP3   OH224600   3.363   4.277   0.214 -0.1558 -0.0500  0.2013
 1062TIP3    H124601   3.381   4.371   0.220  1.1661 -0.2400 -0.5634
 1062TIP3    H224602   3.277   4.272   0.172  0.7380  0.8011 -1.7865
 1063TIP3   OH224603   0.615   2.978  12.056 -0.0102 -0.1601  0.6738
 1063TIP3    H124604   0.644   3.048  11.997 -1.8859  0.8605  0.9380
 1063TIP3    H224605   0.556   2.924  12.004  0.7310 -1.0398  0.7339
 1064TIP3   OH224606   4.960   0.603  14.786 -0.3160 -0.4353 -0.2779
 1064TIP3    H124607   4.975   0.668  14.855  0.7159 -1.2555  0.2761
 1064TIP3    H224608   4.905   0.649  14.722 -1.9747  0.0930  1.4637
 1065TIP3   OH224609   5.869   0.971   5.273  0.1207 -0.7316 -0.0760
 1065TIP3    H124610   5.918   1.047   5.241  0.5678  0.2084  2.6592
 1065TIP3    H224611   5.808   1.008   5.337 -1.6511 -2.3516 -0.7959
 1066TIP3   OH224612   1.327   2.940  14.461 -0.3150  0.2655  0.2318
 1066TIP3    H124613   1.418   2.945  14.433  0.0425  0.1780  1.3360
 1066TIP3    H224614   1.282   3.006  14.409  0.7062  1.4742  0.8511
 1067TIP3   OH224615   3.463   1.974   0.460 -0.4236  0.1089  0.0736
 1067TIP3    H124616   3.399   2.034   0.422 -0.0904 -0.4689 -1.4502
 1067TIP3    H224617   3.412   1.897   0.485 -0.9474  1.2212  2.5746
 1068TIP3   OH224618   1.185   3.106  13.666 -0.1542  0.2892 -0.4726
 1068TIP3    H124619   1.122   3.034  13.662  0.6437 -0.5484  1.2920
 1068TIP3    H224620   1.132   3.183  13.688 -0.7642 -0.0973 -0.5780
 1069TIP3   OH224621   3.290   2.345   2.820 -0.0817  0.1045 -0.2783
 1069TIP3    H124622   3.365   2.396   2.791  0.1784 -1.0684 -1.7341
 1069TIP3    H224623   3.226   2.409   2.849  1.3496  1.1329  0.6470
 1070TIP3   OH224624   5.832   0.610   5.971  0.0893 -0.0710  0.0798
 1070TIP3    H124625   5.894   0.611   6.044  0.6802 -0.3633 -0.4128
 1070TIP3    H224626   5.792   0.697   5.971  0.9475  0.3223  0.0278
 1071TIP3   OH224627   1.194   3.145  12.791 -0.0943 -0.1091  0.1144
 1071TIP3    H124628   1.242   3.168  12.711  0.2395  0.0641  0.3662
 1071TIP3    H224629   1.220   3.055  12.809 -1.4333 -0.7271 -0.8953
 1072TIP3   OH224630   3.262   6.778   2.691 -0.1169 -0.3441 -0.4169
 1072TIP3    H124631   3.357   6.783   2.677 -0.2514  0.5857 -0.9793
 1072TIP3    H224632   3.224   6.793   2.605 -0.8609  2.5370  0.3815
 1073TIP3   OH224633   1.735   3.407   0.508 -0.0022 -0.1810  0.0249
 1073TIP3    H124634   1.721   3.375   0.598  1.5031 -0.3417  0.2161
 1073TIP3    H224635   1.811   3.464   0.515 -1.5559  2.0149 -0.6706
 1074TIP3   OH224636   3.874   2.798  14.611  0.2497 -0.4916  0.2854
 1074TIP3    H124637   3.886   2.715  14.565 -2.1350 -0.0770 -1.1492
 1074TIP3    H224638   3.954   2.808  14.663  2.0494 -2.0594 -2.0556
 1075TIP3   OH224639   5.280   3.862  15.770  0.0834 -0.5241 -0.4615
 1075TIP3    H124640   5.185   3.863  15.780  0.4406  1.5548  3.7372
 1075TIP3    H224641   5.306   3.954  15.768  2.1573 -1.0465  0.4016
 1076TIP3   OH224642   1.264   4.957  16.472 -0.0399 -0.3061 -0.3395
 1076TIP3    H124643   1.307   4.975  16.388 -1.3107  0.2583 -0.8935
 1076TIP3    H224644   1.309   4.880  16.506  0.6904 -0.3688 -1.4106
 1077TIP3   OH224645   1.152   0.088   4.921 -0.0143 -0.2868 -0.0828
 1077TIP3    H124646   1.234   0.039   4.930  1.8501  2.6352 -0.7218
 1077TIP3    H224647   1.110   0.080   5.007  2.6447  1.1395  1.4204
 1078TIP3   OH224648   5.463   3.053  16.006  0.4079  0.2144 -0.3992
 1078TIP3    H124649   5.388   3.029  15.951  1.3550 -4.0931  0.0323
 1078TIP3    H224650   5.498   3.132  15.966 -2.1905  0.2594 -2.7250
 1079TIP3   OH224651   0.221   6.181   0.240  0.0878  0.3706 -0.4071
 1079TIP3    H124652   0.302   6.232   0.244 -1.1479  2.5721 -1.9871
 1079TIP3    H224653   0.245   6.101   0.192  1.7186  0.1442  0.7501
 1080TIP3   OH224654   2.390   1.386   3.264  0.3966 -0.0220 -0.3851
 1080TIP3    H124655   2.412   1.297   3.238  1.5497  0.7578 -2.1772
 1080TIP3    H224656   2.474   1.434   3.261 -0.0583  0.9420  1.3357
 1081TIP3   OH224657   5.137   5.795   4.294 -0.2631  0.7616 -0.2860
 1081TIP3    H124658   5.077   5.852   4.247  0.6794  1.0222 -1.1895
 1081TIP3    H224659   5.145   5.834   4.381 -0.6201  1.2806 -0.4850
 1082TIP3   OH224660   4.307   0.625  11.854 -0.4497 -0.0290 -0.5131
 1082TIP3    H124661   4.324   0.576  11.935  1.4463  0.5475 -0.5315
 1082TIP3    H224662   4.216   0.651  11.861 -0.1368  0.5977  1.7892
 1083TIP3   OH224663   2.930   5.423  12.709  0.6595  0.8462  0.0517
 1083TIP3    H124664   2.877   5.476  12.649  0.4522  1.4281  0.7313
 1083TIP3    H224665   3.009   5.477  12.725  0.3454  1.0629  0.9223
 1084TIP3   OH224666   5.602   4.105  14.863 -0.3199 -0.1982  0.1942
 1084TIP3    H124667   5.545   4.124  14.788 -0.5869  2.0818  0.9352
 1084TIP3    H224668   5.676   4.164  14.852 -0.4313  0.2609  1.8123
 1085TIP3   OH224669   6.287   0.792   1.019 -0.1158 -0.1968  0.7322
 1085TIP3    H124670   6.297   0.701   1.049  1.3986 -0.3846 -0.3155
 1085TIP3    H224671   6.263   0.784   0.927 -0.9023  0.4560  0.8767
 1086TIP3   OH224672   3.440   0.832  15.378 -0.3357  0.5346  0.4742
 1086TIP3    H124673   3.361   0.876  15.407  0.1894  2.3491 -0.7201
 1086TIP3    H224674   3.504   0.902  15.365  0.3309 -0.4565 -2.1453
 1087TIP3   OH224675   3.582   4.513  17.175 -0.2241 -0.7712  0.7148
 1087TIP3    H124676   3.638   4.466  17.113 -0.0353 -1.0018  1.0564
 1087TIP3    H224677   3.504   4.457  17.184 -2.5220  1.6441 -3.0998
 1088TIP3   OH224678   4.870   0.119   6.202 -0.1209  0.7475  0.6552
 1088TIP3    H124679   4.812   0.128   6.278 -0.7760  0.1370  0.2382
 1088TIP3    H224680   4.911   0.033   6.214 -0.6681  0.3920  0.0267
 1089TIP3   OH224681   4.003   1.997   0.961  0.3186 -0.0652 -0.2210
 1089TIP3    H124682   4.061   2.005   1.036 -0.9815 -0.9282  0.9136
 1089TIP3    H224683   4.058   2.018   0.885  1.4901  1.4394  1.0062
 1090TIP3   OH224684   0.852   4.202  13.808  0.7545 -0.3888  0.0123
 1090TIP3    H124685   0.865   4.295  13.789  2.8028 -1.3288 -3.6850
 1090TIP3    H224686   0.889   4.191  13.896  0.0536  2.3482  0.7003
 1091TIP3   OH224687   1.074   1.478   0.086 -0.0156 -0.1128 -0.4432
 1091TIP3    H124688   1.074   1.544   0.156  0.2259  1.0267 -1.4829
 1091TIP3    H224689   1.154   1.429   0.099 -0.4348 -0.5309  0.6396
 1092TIP3   OH224690   4.501   5.269  12.585  0.0485 -0.3088  0.4051
 1092TIP3    H124691   4.408   5.251  12.600 -0.0291 -0.6366 -0.4510
 1092TIP3    H224692   4.537   5.284  12.673 -0.7182 -0.6104  0.7760
 1093TIP3   OH224693   3.441   0.705   0.211 -0.4839 -0.2965 -0.0343
 1093TIP3    H124694   3.478   0.793   0.219  0.7580 -0.5108 -2.8439
 1093TIP3    H224695   3.430   0.676   0.301  3.4718  0.9253  0.9675
 1094TIP3   OH224696   2.002   3.370   0.225  0.3139  0.6623 -0.0925
 1094TIP3    H124697   2.005   3.299   0.162  0.6257  2.3085 -1.9934
 1094TIP3    H224698   1.920   3.357   0.273 -0.5462  0.0867 -1.6838
 1095TIP3   OH224699   0.094   0.999   3.083  0.2544 -0.4559  0.3141
 1095TIP3    H124700   0.100   0.966   2.993  2.7050 -0.1263  0.3266
 1095TIP3    H224701   0.075   0.922   3.136 -1.3141 -0.6329 -0.4952
 1096TIP3   OH224702   3.360   2.510   5.383 -0.1613 -0.6982  0.4755
 1096TIP3    H124703   3.329   2.545   5.467 -1.7359  0.0813 -0.4110
 1096TIP3    H224704   3.298   2.440   5.363 -0.2829 -0.3306 -0.4289
 1097TIP3   OH224705   4.567   1.145  15.591 -0.3008  0.1579  0.5172
 1097TIP3    H124706   4.546   1.057  15.622  1.4995 -0.2692  0.6203
 1097TIP3    H224707   4.600   1.190  15.669 -4.0379  1.9273  1.1685
 1098TIP3   OH224708   5.965   1.430  17.011 -0.3214 -0.3313  0.3711
 1098TIP3    H124709   5.974   1.463  16.922  0.3525 -0.8326  0.2421
 1098TIP3    H224710   5.872   1.438  17.031 -0.8641 -2.2210 -1.1869
 1099TIP3   OH224711   1.574   6.003   1.580 -0.4479  0.3793  0.0455
 1099TIP3    H124712   1.548   5.945   1.651 -1.0276  0.8990  0.2666
 1099TIP3    H224713   1.586   6.088   1.621  1.4707  0.1937 -0.0922
 1100TIP3   OH224714   4.147   2.128   5.862 -0.2824  0.4017  0.2308
 1100TIP3    H124715   4.118   2.180   5.938 -1.2299 -0.1315  0.2444
 1100TIP3    H224716   4.071   2.074   5.840  1.1687 -2.0778  1.1532
 1101TIP3   OH224717   4.663   1.542  14.705 -0.1666  0.5882  0.7196
 1101TIP3    H124718   4.641   1.562  14.796 -0.3626 -0.2312  0.8606
 1101TIP3    H224719   4.740   1.485  14.712  0.2946  1.1586  0.3377
 1102TIP3   OH224720   0.905   2.744  16.153  0.3835  0.3173  0.1579
 1102TIP3    H124721   0.935   2.752  16.243 -1.0993 -0.1380  0.7161
 1102TIP3    H224722   0.821   2.698  16.160  0.3586  0.0901 -1.4687
 1103TIP3   OH224723   2.728   0.689  15.209  0.3196 -0.7218  0.3942
 1103TIP3    H124724   2.693   0.768  15.250 -0.1924  0.1034 -1.5773
 1103TIP3    H224725   2.816   0.714  15.179 -0.3203 -0.4926 -1.3448
 1104TIP3   OH224726   2.607   2.633   0.427 -0.0622 -0.0497  0.4845
 1104TIP3    H124727   2.638   2.543   0.435  1.2034  0.0725 -2.5301
 1104TIP3    H224728   2.651   2.680   0.499 -1.9339 -2.0531  3.0437
 1105TIP3   OH224729   6.717   4.140   6.793  0.1471  0.6080  0.2940
 1105TIP3    H124730   6.707   4.064   6.851  0.7690  0.9447  0.8534
 1105TIP3    H224731   6.810   4.162   6.800  0.1450  0.8799 -0.5483
 1106TIP3   OH224732   5.015   3.588   2.313 -0.0563  0.5779  0.0288
 1106TIP3    H124733   4.923   3.560   2.320 -1.0790  3.8445  0.3294
 1106TIP3    H224734   5.025   3.614   2.222  0.9059 -0.7675 -0.2655
 1107TIP3   OH224735   4.387   4.575  15.492  0.3856  0.0276  0.5164
 1107TIP3    H124736   4.327   4.602  15.423  0.8848 -0.8154 -0.2440
 1107TIP3    H224737   4.419   4.658  15.529 -0.6540  0.4780  0.4304
 1108TIP3   OH224738   4.092   4.725   4.835  0.3177  0.7437  0.9308
 1108TIP3    H124739   4.174   4.773   4.842  0.6481  0.0973  1.6357
 1108TIP3    H224740   4.050   4.736   4.920 -0.2164  0.8813  0.6515
 1109TIP3   OH224741   1.279   4.278   4.379  0.1841 -0.8422  0.7816
 1109TIP3    H124742   1.229   4.359   4.368  1.2073 -0.2080  0.8508
 1109TIP3    H224743   1.212   4.209   4.376 -0.5116 -0.1324 -1.0500
 1110TIP3   OH224744   0.757   2.084  15.955  0.0133  0.0121  0.0034
 1110TIP3    H124745   0.662   2.094  15.944 -0.3145 -0.2707  2.4072
 1110TIP3    H224746   0.793   2.166  15.921 -1.2168  0.8426  0.6506
 1111TIP3   OH224747   6.734   6.047   4.221  0.7271 -0.0971  0.6291
 1111TIP3    H124748   6.711   5.989   4.148  3.2792 -0.8061  0.3406
 1111TIP3    H224749   6.696   6.131   4.196  1.7511 -0.2641 -1.6952
 1112TIP3   OH224750   5.327   2.970   4.214 -0.4478  0.0970  0.3311
 1112TIP3    H124751   5.324   3.027   4.136  0.7330  0.7699  0.7634
 1112TIP3    H224752   5.326   3.031   4.288  0.0668 -0.4641  0.8076
 1113TIP3   OH224753   2.032   2.838   3.900  0.2104 -0.1940  0.5546
 1113TIP3    H124754   2.062   2.929   3.890  1.0236 -0.5525 -0.3522
 1113TIP3    H224755   1.948   2.845   3.945 -0.1813  1.0718 -0.3535
 1114TIP3   OH224756   2.624   1.225   4.523  0.2373 -0.2046 -0.5843
 1114TIP3    H124757   2.678   1.282   4.578 -0.5191  0.4600 -0.5085
 1114TIP3    H224758   2.681   1.199   4.451  0.4636  1.0062 -0.8490
 1115TIP3   OH224759   1.619   1.396   4.645 -0.7332 -0.3847 -0.1211
 1115TIP3    H124760   1.703   1.391   4.600 -0.3463  0.6570  0.4650
 1115TIP3    H224761   1.639   1.440   4.728 -2.0029  0.6638 -0.3574
 1116TIP3   OH224762   3.486   3.577   6.608 -0.0749  0.3532 -0.2536
 1116TIP3    H124763   3.549   3.531   6.663  0.0827 -0.0323 -0.7458
 1116TIP3    H224764   3.404   3.529   6.620 -0.1707  0.6042  0.0729
 1117TIP3   OH224765   6.298   4.883  15.110 -0.2350 -0.0047  0.6286
 1117TIP3    H124766   6.223   4.933  15.077 -0.3408 -0.3526  0.3463
 1117TIP3    H224767   6.284   4.880  15.205 -1.0200 -0.7860  0.4903
 1118TIP3   OH224768   5.629   4.238  17.063  0.2101  0.0693 -0.5751
 1118TIP3    H124769   5.604   4.308  17.124  1.0285  1.0262 -1.3076
 1118TIP3    H224770   5.699   4.191  17.108 -0.1291 -0.0738 -0.2046
 1119TIP3   OH224771   2.321   4.614  14.645  0.2400 -0.4610  0.2398
 1119TIP3    H124772   2.267   4.562  14.585 -0.2619 -0.7099  0.9066
 1119TIP3    H224773   2.273   4.615  14.728  0.4317  0.7487  0.3539
 1120TIP3   OH224774   0.438   6.445   3.168  0.1469  0.3788  0.0089
 1120TIP3    H124775   0.455   6.407   3.254 -2.2996  0.9389  0.7892
 1120TIP3    H224776   0.457   6.375   3.106 -2.0401 -1.4405  1.2847
 1121TIP3   OH224777   4.343   1.238   5.992 -0.3385  0.3211  0.7759
 1121TIP3    H124778   4.297   1.299   6.049 -1.1655 -0.8214  1.3678
 1121TIP3    H224779   4.284   1.223   5.919 -0.1555  0.2008  0.6510
 1122TIP3   OH224780   3.061   0.883  14.228 -0.3008 -0.4329  0.0993
 1122TIP3    H124781   3.024   0.886  14.140 -1.2058 -2.1093  0.4004
 1122TIP3    H224782   3.121   0.808  14.226  1.1729  0.7337  0.3480
 1123TIP3   OH224783   3.677   6.541   0.618 -0.3589  1.0668  0.4316
 1123TIP3    H124784   3.707   6.492   0.542  0.6948  0.6948  1.0721
 1123TIP3    H224785   3.754   6.545   0.676 -0.9094  2.0419  1.1096
 1124TIP3   OH224786   4.842   4.199  14.144  0.0430 -0.6938 -0.0164
 1124TIP3    H124787   4.933   4.223  14.129  0.4145 -1.5329  0.8389
 1124TIP3    H224788   4.812   4.164  14.060 -0.2124  1.7434 -0.9976
 1125TIP3   OH224789   1.678   0.071  14.056 -0.1113  0.9298 -0.7554
 1125TIP3    H124790   1.746   0.009  14.029 -0.5260 -0.3224  0.9599
 1125TIP3    H224791   1.723   0.155  14.062  0.6236  0.6726 -2.4272
 1126TIP3   OH224792   0.458   0.035  17.034  0.1399 -0.0162  0.2436
 1126TIP3    H124793   0.532   0.094  17.024  0.8271 -0.8393  0.3862
 1126TIP3    H224794   0.405   0.073  17.104  0.5586  0.4438  0.3072
 1127TIP3   OH224795   4.826   6.477  12.125 -0.1385 -0.0240  0.1886
 1127TIP3    H124796   4.833   6.456  12.032 -0.3888 -0.9822  0.3829
 1127TIP3    H224797   4.749   6.429  12.155  0.7005 -0.7770  1.1712
 1128TIP3   OH224798   6.738   0.693   6.379 -0.1002  0.2786 -0.4493
 1128TIP3    H124799   6.801   0.739   6.434  1.1278 -1.5825 -0.2750
 1128TIP3    H224800   6.768   0.709   6.289  0.3453 -0.2259 -0.3876
 1129TIP3   OH224801   3.722   0.616  14.808  0.3395  0.1075  0.4194
 1129TIP3    H124802   3.649   0.669  14.776 -0.5497 -0.9533  0.6136
 1129TIP3    H224803   3.786   0.679  14.840 -0.1950  1.0793 -0.4077
 1130TIP3   OH224804   3.293   4.951  14.949 -0.5336  0.0133  0.2651
 1130TIP3    H124805   3.276   4.978  15.039 -0.8121 -0.7365  0.4439
 1130TIP3    H224806   3.224   4.888  14.929  0.9827 -1.7469  0.4084
 1131TIP3   OH224807   4.264   3.792  17.217  0.3883 -0.3239  0.4429
 1131TIP3    H124808   4.329   3.862  17.209 -1.3227  1.2658 -0.1991
 1131TIP3    H224809   4.282   3.734  17.143  0.5390  0.5846 -0.2476
 1132TIP3   OH224810   5.778   3.009   5.277  0.3312 -0.0843  0.0194
 1132TIP3    H124811   5.709   3.053   5.326  0.3107 -0.2152  0.1081
 1132TIP3    H224812   5.754   2.916   5.281  0.8893 -0.2045  0.6415
 1133TIP3   OH224813   0.982   1.576   2.337 -0.0437  0.2898 -0.0980
 1133TIP3    H124814   0.915   1.524   2.292  1.5243 -1.1041 -0.8866
 1133TIP3    H224815   1.065   1.535   2.312  0.9043 -0.4511  3.9275
 1134TIP3   OH224816   3.033   5.490  11.886 -0.9229  1.0622 -0.4755
 1134TIP3    H124817   2.966   5.480  11.954 -0.9020  1.6182 -0.3660
 1134TIP3    H224818   2.987   5.535  11.815 -0.7830  1.0304 -0.5857
 1135TIP3   OH224819   3.453   5.725   4.488  0.2515  0.4384  0.3663
 1135TIP3    H124820   3.459   5.796   4.424  0.3538 -0.4090 -0.5892
 1135TIP3    H224821   3.499   5.652   4.446 -0.8815 -0.5523  0.8177
 1136TIP3   OH224822   0.816   2.715   4.699  0.0923  0.4821  0.1381
 1136TIP3    H124823   0.793   2.726   4.791  1.0765 -0.1900  0.4832
 1136TIP3    H224824   0.864   2.795   4.676  1.8344 -0.3133  0.8748
 1137TIP3   OH224825   2.958   4.629  11.664  0.9437  0.0086  0.0459
 1137TIP3    H124826   2.878   4.620  11.613 -0.1160 -0.5415  1.7697
 1137TIP3    H224827   2.954   4.717  11.700 -0.2982 -0.9727  2.4133
 1138TIP3   OH224828   1.830   1.891  14.026  0.4721 -0.0688  0.2698
 1138TIP3    H124829   1.895   1.854  14.085 -0.7584  0.3250  1.9108
 1138TIP3    H224830   1.801   1.971  14.070 -2.3760 -1.1346  0.4274
 1139TIP3   OH224831   4.885   1.149  11.534  0.0944  0.7550  0.9235
 1139TIP3    H124832   4.803   1.103  11.550 -0.1592 -0.0950 -2.4727
 1139TIP3    H224833   4.953   1.090  11.567 -0.5150  0.5892  1.9237
 1140TIP3   OH224834   3.283   1.886   1.177 -0.4502  0.1331  0.1630
 1140TIP3    H124835   3.362   1.904   1.125  0.7842  0.4811  2.0981
 1140TIP3    H224836   3.245   1.809   1.135 -0.0150  0.9575 -1.8165
 1141TIP3   OH224837   3.662   5.460  11.661 -0.0553  0.2187  0.2566
 1141TIP3    H124838   3.612   5.379  11.654  0.8334 -0.3865  0.8635
 1141TIP3    H224839   3.738   5.447  11.603  1.6356 -0.5559  2.5929
 1142TIP3   OH224840   1.035   4.627  15.792 -0.1996  0.9846  0.2837
 1142TIP3    H124841   0.961   4.669  15.836  0.1999  0.5929  1.3353
 1142TIP3    H224842   1.000   4.603  15.706 -0.6466  2.8126 -0.0840
 1143TIP3   OH224843   3.942   4.092   2.223 -0.3329 -0.1596 -0.3130
 1143TIP3    H124844   3.994   4.143   2.162 -1.1377  0.9396 -0.0996
 1143TIP3    H224845   3.856   4.134   2.222 -0.7861 -1.0409  0.4554
 1144TIP3   OH224846   6.647   0.108   3.610  0.0578 -0.4182  0.0506
 1144TIP3    H124847   6.594   0.106   3.530  0.3306 -1.0884 -0.1144
 1144TIP3    H224848   6.666   0.016   3.629 -0.1226 -0.2675  0.9655
 1145TIP3   OH224849   1.060   3.250   3.914  0.4816  0.7370  0.1698
 1145TIP3    H124850   1.147   3.287   3.927  0.9489  0.1225 -1.2067
 1145TIP3    H224851   1.051   3.241   3.819 -0.6422 -0.2414  0.3544
 1146TIP3   OH224852   2.381   0.951   1.392 -0.1762 -0.4092 -0.6948
 1146TIP3    H124853   2.343   0.864   1.385 -0.7305 -0.1204 -1.3160
 1146TIP3    H224854   2.453   0.941   1.454 -0.4877 -1.2219 -0.4632
 1147TIP3   OH224855   2.433   0.918  15.127  0.0750  0.0160  0.3831
 1147TIP3    H124856   2.425   0.824  15.107  2.2908 -0.0459 -0.4013
 1147TIP3    H224857   2.487   0.921  15.206 -0.3648  0.6263  0.6587
 1148TIP3   OH224858   3.169   1.286   5.364  0.6651  0.0020  0.8811
 1148TIP3    H124859   3.221   1.288   5.444 -0.4910 -1.3859  1.6760
 1148TIP3    H224860   3.081   1.264   5.393 -0.3078  1.9291 -0.4983
 1149TIP3   OH224861   2.509   6.005  15.709 -0.3661  0.0071  0.2584
 1149TIP3    H124862   2.435   5.962  15.752 -1.7956 -0.0552 -2.1847
 1149TIP3    H224863   2.472   6.085  15.672  1.2851  1.0780  0.8909
 1150TIP3   OH224864   0.224   3.985  16.912  0.4442  0.1153 -0.3027
 1150TIP3    H124865   0.180   4.040  16.978 -0.9816 -1.0298 -0.2862
 1150TIP3    H224866   0.163   3.981  16.839  0.9983 -0.5918 -0.7405
 1151TIP3   OH224867   3.713   2.881   2.666  0.1281  0.3675  0.1315
 1151TIP3    H124868   3.736   2.973   2.681  0.1056  0.5639 -1.0173
 1151TIP3    H224869   3.622   2.874   2.694  0.4837  0.4169  1.3268
 1152TIP3   OH224870   0.804   1.367   1.191  0.1188 -0.1316  0.3950
 1152TIP3    H124871   0.717   1.327   1.192  0.2271 -0.3557  1.0541
 1152TIP3    H224872   0.811   1.410   1.276  1.4786 -1.8985  1.1802
 1153TIP3   OH224873   0.824   1.871   5.347  0.3521 -0.3146  0.5282
 1153TIP3    H124874   0.887   1.905   5.283 -1.9183  1.3450 -0.9067
 1153TIP3    H224875   0.861   1.895   5.432  2.3027 -0.5626 -0.2081
 1154TIP3   OH224876   3.865   1.936  14.729  0.7279 -0.3389  0.0020
 1154TIP3    H124877   3.926   1.966  14.662  1.8872 -0.0788  1.1691
 1154TIP3    H224878   3.862   1.841  14.717 -1.0250 -0.0785 -2.0524
 1155TIP3   OH224879   2.489   2.529   3.814 -0.5002  0.0328 -0.4372
 1155TIP3    H124880   2.488   2.466   3.886  1.5300  0.0075 -0.3827
 1155TIP3    H224881   2.508   2.613   3.855 -0.0414  0.1377 -0.8538
 1156TIP3   OH224882   3.169   2.567   4.179  0.3275  0.6270  0.3404
 1156TIP3    H124883   3.167   2.506   4.105  0.1931 -0.7440  1.4701
 1156TIP3    H224884   3.249   2.544   4.226 -1.3493 -0.8168  2.5531
 1157TIP3   OH224885   2.092   5.263   5.246  0.1334 -0.4612  0.3553
 1157TIP3    H124886   2.155   5.250   5.316 -0.4849  0.9664  1.2084
 1157TIP3    H224887   2.033   5.187   5.253  2.0269 -2.0719 -0.7872
 1158TIP3   OH224888   5.898   6.100  13.651  0.5054 -0.2702 -0.0144
 1158TIP3    H124889   5.959   6.166  13.686  0.6612 -0.6819  0.5110
 1158TIP3    H224890   5.850   6.146  13.582 -1.2536  1.2054  2.1089
 1159TIP3   OH224891   0.433   3.091  12.974 -0.0255 -0.2437 -0.4613
 1159TIP3    H124892   0.409   3.063  13.063 -2.4808 -1.5654 -1.4937
 1159TIP3    H224893   0.357   3.069  12.921  0.8210  1.9495 -2.6413
 1160TIP3   OH224894   1.020   5.783  12.943 -0.0313  0.2963  0.7863
 1160TIP3    H124895   0.927   5.799  12.929 -0.0278 -0.6828 -0.4054
 1160TIP3    H224896   1.064   5.845  12.885  0.0463 -0.1053  0.4155
 1161TIP3   OH224897   1.208   2.524   1.291  0.0681  0.0186 -0.6330
 1161TIP3    H124898   1.247   2.532   1.204  1.1624  1.0513 -0.0700
 1161TIP3    H224899   1.282   2.505   1.349 -0.3820  1.1031  0.3182
 1162TIP3   OH224900   2.191   4.495  11.437 -1.0024 -0.2772  0.1886
 1162TIP3    H124901   2.116   4.523  11.489 -0.0706  1.0282  0.8679
 1162TIP3    H224902   2.200   4.402  11.456 -1.1698  0.0092  1.7269
 1163TIP3   OH224903   3.603   0.724  11.692  0.5659 -0.0693 -0.2903
 1163TIP3    H124904   3.579   0.653  11.633  1.3853  0.5579 -1.4128
 1163TIP3    H224905   3.527   0.782  11.691  0.8308  0.2710 -1.2624
 1164TIP3   OH224906   0.345   6.356  13.249  0.2251 -0.4744  0.2385
 1164TIP3    H124907   0.266   6.323  13.206  1.8792 -4.5160  0.1660
 1164TIP3    H224908   0.407   6.370  13.178  0.5815 -0.1456  0.6093
 1165TIP3   OH224909   5.724   3.156  15.253  0.2975 -0.8608 -0.1369
 1165TIP3    H124910   5.750   3.168  15.162 -0.6804  1.4729 -0.1598
 1165TIP3    H224911   5.695   3.243  15.281  2.4811 -1.0688  3.0281
 1166TIP3   OH224912   3.284   4.122   3.611 -0.2179  1.0978 -0.5335
 1166TIP3    H124913   3.354   4.099   3.672 -0.8481  0.1396 -0.1545
 1166TIP3    H224914   3.324   4.184   3.550  0.1667  2.8215  1.4138
 1167TIP3   OH224915   3.730   0.227   3.459 -0.8647 -0.3285 -0.6461
 1167TIP3    H124916   3.790   0.271   3.398 -0.2221 -0.4247 -0.0891
 1167TIP3    H224917   3.769   0.141   3.472  1.3642  1.1160  3.1859
 1168TIP3   OH224918   4.180   5.402  13.292  0.3524 -0.3703 -0.4814
 1168TIP3    H124919   4.133   5.348  13.229 -0.6189  1.2432 -1.1958
 1168TIP3    H224920   4.157   5.366  13.377 -1.5895 -0.1075 -0.8613
 1169TIP3   OH224921   1.957   1.218  14.516 -0.0128  0.3226 -0.2915
 1169TIP3    H124922   1.933   1.236  14.607 -0.5431 -0.4888 -0.2675
 1169TIP3    H224923   1.968   1.304  14.477 -0.8391  0.6923  0.2682
 1170TIP3   OH224924   1.030   6.610  10.472  0.0997 -0.3730 -0.0927
 1170TIP3    H124925   1.007   6.548  10.541  1.3896  1.2512  1.8955
 1170TIP3    H224926   1.118   6.583  10.444  0.6932  0.5397  0.8255
 1171TIP3   OH224927   0.106   3.036  15.621 -0.7464 -0.0741 -1.0092
 1171TIP3    H124928   0.064   2.984  15.552 -1.0618 -1.8875  0.5043
 1171TIP3    H224929   0.038   3.047  15.688 -0.0443  0.5460 -0.3902
 1172TIP3   OH224930   0.914   4.275   3.217  0.2486 -0.1267  0.1652
 1172TIP3    H124931   0.972   4.352   3.216  0.1620 -0.0672 -0.5197
 1172TIP3    H224932   0.830   4.308   3.187 -0.0836 -0.2636  0.9502
 1173TIP3   OH224933   6.095   6.351  14.194  0.1856  0.3221  0.1871
 1173TIP3    H124934   6.190   6.343  14.204  0.3636  0.7021 -1.0164
 1173TIP3    H224935   6.063   6.261  14.200  0.6837  0.1321  0.0647
 1174TIP3   OH224936   4.323   4.086  14.897  0.3203  0.4866  0.6725
 1174TIP3    H124937   4.300   4.029  14.971 -1.3712  0.9422  0.5161
 1174TIP3    H224938   4.283   4.170  14.918 -0.7058  0.4495 -1.0552
 1175TIP3   OH224939   3.474   0.758   4.027  0.0040 -0.6154 -0.0295
 1175TIP3    H124940   3.396   0.730   4.076 -1.2694 -0.2164 -1.7849
 1175TIP3    H224941   3.484   0.850   4.049 -0.1019 -0.6327  0.0970
 1176TIP3   OH224942   0.615   4.222  11.722  0.8131 -0.1582 -0.0378
 1176TIP3    H124943   0.636   4.128  11.725  0.9326 -0.1036  0.7851
 1176TIP3    H224944   0.565   4.238  11.802 -0.2183  0.2422 -0.7553
 1177TIP3   OH224945   2.834   0.821   2.090  0.0899 -0.7314 -0.8267
 1177TIP3    H124946   2.768   0.871   2.138  1.0255  0.6874 -0.9881
 1177TIP3    H224947   2.876   0.767   2.156 -1.3587 -1.8054 -0.7532
 1178TIP3   OH224948   6.698   1.436  11.449  0.1801 -0.2934  0.1790
 1178TIP3    H124949   6.659   1.519  11.420  2.5160  1.2262  1.2257
 1178TIP3    H224950   6.627   1.390  11.492 -1.0508  1.3803 -0.0060
 1179TIP3   OH224951   6.752   3.213  13.910  0.7510  0.3184  0.1885
 1179TIP3    H124952   6.710   3.138  13.952  1.9422 -0.1356  0.5836
 1179TIP3    H224953   6.826   3.175  13.861  1.7517  1.3013  0.9283
 1180TIP3   OH224954   5.557   5.008  10.962 -0.2420  0.4768 -0.3927
 1180TIP3    H124955   5.496   5.053  10.903  0.7782 -0.0384 -1.8863
 1180TIP3    H224956   5.520   4.920  10.971  0.3472  0.1032 -1.4538
 1181TIP3   OH224957   0.355   0.377  11.620 -0.6446 -0.3652  0.4256
 1181TIP3    H124958   0.400   0.433  11.683 -2.0506  0.2135  0.9361
 1181TIP3    H224959   0.422   0.354  11.556  0.5249 -0.0335  1.5128
 1182TIP3   OH224960   5.592   6.563   0.346  0.4200  0.0124 -0.2581
 1182TIP3    H124961   5.611   6.474   0.376 -0.6163 -0.6782 -1.6253
 1182TIP3    H224962   5.543   6.603   0.419  1.0837 -0.4397  0.4478
 1183TIP3   OH224963   6.241   0.213   0.064 -0.3768 -0.0547 -0.0919
 1183TIP3    H124964   6.242   0.295   0.114 -2.0803  0.9261 -1.5981
 1183TIP3    H224965   6.246   0.242  -0.028 -3.3489 -1.5129 -0.7529
 1184TIP3   OH224966   3.279   0.476   2.961 -0.6138 -0.3226 -0.2231
 1184TIP3    H124967   3.344   0.545   2.971 -0.7230 -0.1714 -0.5589
 1184TIP3    H224968   3.216   0.493   3.032 -0.0015 -0.7997  0.4496
 1185TIP3   OH224969   1.463   2.525   3.249  0.2267  0.0771 -0.1316
 1185TIP3    H124970   1.398   2.560   3.309 -0.2637  0.2004 -0.7326
 1185TIP3    H224971   1.425   2.444   3.216  0.6715 -0.2033  0.0347
 1186TIP3   OH224972   5.506   0.771   0.990 -0.5381  0.0299  0.3618
 1186TIP3    H124973   5.433   0.730   0.944  0.5733 -0.1090 -1.3275
 1186TIP3    H224974   5.572   0.787   0.922  1.7624 -1.5298  2.1266
 1187TIP3   OH224975   1.149   4.836  13.100 -0.1268 -0.0039  0.1440
 1187TIP3    H124976   1.167   4.849  13.007  1.0621 -1.4759  0.1572
 1187TIP3    H224977   1.080   4.900  13.120  0.6761  1.3766 -1.3848
 1188TIP3   OH224978   2.313   2.174   5.299  1.0270  0.5258 -0.5053
 1188TIP3    H124979   2.281   2.256   5.336 -1.1210  0.1216 -1.3759
 1188TIP3    H224980   2.403   2.192   5.274  0.7475  2.4616 -0.2123
 1189TIP3   OH224981   5.225   0.481  16.395 -0.0532 -0.2127  0.3547
 1189TIP3    H124982   5.165   0.466  16.323  0.9857 -1.2126 -0.3179
 1189TIP3    H224983   5.255   0.394  16.421  3.0570  0.3510 -1.0163
 1190TIP3   OH224984   2.989   0.938   1.326 -0.1714  0.0185  0.1345
 1190TIP3    H124985   2.931   1.011   1.348  1.3510  2.2299 -2.8825
 1190TIP3    H224986   2.936   0.883   1.268 -0.6047 -0.2114  0.7332
 1191TIP3   OH224987   4.008   4.268  15.092  0.0982  0.1637 -0.4951
 1191TIP3    H124988   4.012   4.259  14.997  0.6800  1.3004 -0.5799
 1191TIP3    H224989   3.942   4.335  15.108  1.6114  1.6059 -0.1987
 1192TIP3   OH224990   1.864   6.723  14.802 -0.1214  0.3285  0.0451
 1192TIP3    H124991   1.780   6.692  14.767  0.0868  1.5351 -1.6104
 1192TIP3    H224992   1.840   6.783  14.872 -0.7004  1.3891 -1.0299
 1193TIP3   OH224993   0.632   2.717   0.545 -0.5509 -0.1338  0.2858
 1193TIP3    H124994   0.652   2.693   0.454 -0.0292  0.3632  0.2639
 1193TIP3    H224995   0.716   2.706   0.591 -0.6250  0.3718  0.5452
 1194TIP3   OH224996   4.590   3.642   5.213  0.3679  0.1240  0.2184
 1194TIP3    H124997   4.546   3.671   5.133  0.0858 -0.6025  0.1021
 1194TIP3    H224998   4.549   3.693   5.283 -1.3372 -1.2057  0.2283
 1195TIP3   OH224999   0.130   4.900   0.039 -0.3681  0.1466  0.3527
 1195TIP3    H125000   0.038   4.903   0.011 -0.1101 -1.7849 -0.8307
 1195TIP3    H225001   0.126   4.890   0.134 -1.3644  0.6596  0.3795
 1196TIP3   OH225002   3.164   1.069   2.632 -0.6114  0.5832  0.3043
 1196TIP3    H125003   3.198   0.981   2.618  1.7496  1.7047 -1.4078
 1196TIP3    H225004   3.157   1.106   2.544 -1.8449  2.0036  0.9856
 1197TIP3   OH225005   0.386   5.083   2.082  0.2399  0.2605 -0.0874
 1197TIP3    H125006   0.384   4.991   2.109  1.0284 -0.6537 -2.8898
 1197TIP3    H225007   0.323   5.088   2.010  0.2971  1.8966 -0.0330
 1198TIP3   OH225008   2.536   3.436  14.345  0.0728 -0.5234  0.3509
 1198TIP3    H125009   2.632   3.438  14.338  0.0181 -1.2517 -0.6459
 1198TIP3    H225010   2.505   3.438  14.255 -0.8437 -0.8451  0.6509
 1199TIP3   OH225011   4.471   2.718  14.338 -0.1011  0.0616  0.1813
 1199TIP3    H125012   4.472   2.623  14.349 -2.6451  0.1217  1.3778
 1199TIP3    H225013   4.401   2.734  14.274 -0.0408  1.1542  0.3821
 1200TIP3   OH225014   6.269   2.133  15.573  0.4999  0.2032 -0.3826
 1200TIP3    H125015   6.327   2.110  15.646 -0.3875 -0.6745  0.0609
 1200TIP3    H225016   6.239   2.222  15.594 -0.2199 -0.2747  0.6309
 1201TIP3   OH225017   6.475   2.047   1.044 -0.2897 -0.2725 -0.1752
 1201TIP3    H125018   6.561   2.089   1.048  0.4602 -1.7078 -0.7008
 1201TIP3    H225019   6.430   2.076   1.124  0.5260  0.7962 -0.0874
 1202TIP3   OH225020   1.842   1.231  10.904 -0.4428  0.3479  0.4030
 1202TIP3    H125021   1.783   1.303  10.927 -0.1118  0.2689  1.4889
 1202TIP3    H225022   1.808   1.156  10.953 -0.1123  0.0271  0.1413
 1203TIP3   OH225023   5.423   6.117   3.985  0.0164  1.0294 -0.4376
 1203TIP3    H125024   5.424   6.044   4.047  1.8653  0.9419 -0.5480
 1203TIP3    H225025   5.347   6.100   3.929  0.4685 -0.8373 -0.5056
 1204TIP3   OH225026   4.446   5.976   3.086  0.2042  0.3847 -0.0644
 1204TIP3    H125027   4.442   5.953   2.993 -3.3975  1.7096 -0.3266
 1204TIP3    H225028   4.505   6.052   3.089  0.4456  0.2582 -1.2762
 1205TIP3   OH225029   6.574   3.196  14.642  0.3426 -0.0297 -0.0096
 1205TIP3    H125030   6.500   3.238  14.597 -1.1722 -1.6982  0.8355
 1205TIP3    H225031   6.547   3.192  14.733  2.5800  1.5737  0.7515
 1206TIP3   OH225032   5.859   2.262  12.609  0.0993 -0.1411 -0.4000
 1206TIP3    H125033   5.785   2.287  12.664 -1.3198 -0.8096 -1.9398
 1206TIP3    H225034   5.936   2.284  12.661 -1.1707  0.5470  1.2584
 1207TIP3   OH225035   2.552   1.857  14.425 -0.0623 -0.0440  0.5901
 1207TIP3    H125036   2.460   1.855  14.396  0.0613  0.3083  0.1638
 1207TIP3    H225037   2.602   1.841  14.345  0.3516  2.7775  0.2077
 1208TIP3   OH225038   2.053   3.536   2.984 -0.9344  0.0202  0.3258
 1208TIP3    H125039   1.965   3.511   3.011 -0.8907  1.2561  1.6452
 1208TIP3    H225040   2.043   3.623   2.945 -0.2028  0.4671  1.1123
 1209TIP3   OH225041   3.804   3.706   0.075  0.0306  0.2737 -0.0237
 1209TIP3    H125042   3.825   3.797   0.097 -0.7846  0.0835  1.6049
 1209TIP3    H225043   3.881   3.673   0.030  0.4560  1.6836 -0.3394
 1210TIP3   OH225044   0.248   5.546  14.358 -0.3763  0.1991 -0.5307
 1210TIP3    H125045   0.173   5.581  14.310 -2.0152 -0.2292  1.6400
 1210TIP3    H225046   0.261   5.607  14.430  0.8355 -0.1797 -0.4212
 1211TIP3   OH225047   3.050   6.326  15.151 -0.4113 -0.4970  0.2158
 1211TIP3    H125048   3.032   6.403  15.205  0.1527 -1.2898  1.5856
 1211TIP3    H225049   2.989   6.259  15.185 -2.7030  0.0346 -2.6424
 1212TIP3   OH225050   4.669   3.685   4.536  0.5465  0.2232 -0.7135
 1212TIP3    H125051   4.749   3.651   4.576  0.4156 -1.1020 -1.5348
 1212TIP3    H225052   4.642   3.757   4.592  1.4567 -0.3279  0.4429
 1213TIP3   OH225053   1.717   3.011   2.630 -0.2702 -0.2307  0.2317
 1213TIP3    H125054   1.801   3.054   2.647 -0.4935  0.0140  0.7260
 1213TIP3    H225055   1.656   3.054   2.690 -0.9046  0.1148 -0.6533
 1214TIP3   OH225056   1.927   4.309  14.628 -0.6568  0.2017 -0.0726
 1214TIP3    H125057   1.916   4.396  14.667 -2.0719 -0.0437  0.1335
 1214TIP3    H225058   1.983   4.322  14.553 -0.6417  1.2566  0.1208
 1215TIP3   OH225059   3.450   2.010   4.809  0.3485 -0.2025 -0.6995
 1215TIP3    H125060   3.389   1.962   4.866  0.2942  0.8621  0.1667
 1215TIP3    H225061   3.533   2.009   4.857  0.2377  0.9230 -0.4662
 1216TIP3   OH225062   0.184   2.131   0.183  0.1324 -0.0232  0.3414
 1216TIP3    H125063   0.213   2.221   0.197  0.3790  0.1999 -1.4768
 1216TIP3    H225064   0.182   2.121   0.088 -0.7453 -1.6660  0.5118
 1217TIP3   OH225065   2.061   6.446  14.966 -0.0741 -0.4069 -0.2197
 1217TIP3    H125066   2.085   6.386  15.036 -0.3523 -1.2249 -0.8189
 1217TIP3    H225067   2.024   6.522  15.012 -0.3273 -0.9666  0.5215
 1218TIP3   OH225068   6.283   1.590  16.942 -0.2961 -0.0053  0.0910
 1218TIP3    H125069   6.343   1.554  16.876 -2.6120 -0.4793 -1.8134
 1218TIP3    H225070   6.278   1.683  16.921  0.7456  0.2842  1.0629
 1219TIP3   OH225071   2.715   0.242  12.427 -0.2056 -0.3746 -0.0027
 1219TIP3    H125072   2.696   0.160  12.382 -0.0750  0.9022 -2.4960
 1219TIP3    H225073   2.638   0.297  12.411  0.0041  0.2317  1.0170
 1220TIP3   OH225074   4.194   2.713   3.949 -0.0008  0.5825 -0.4657
 1220TIP3    H125075   4.275   2.685   3.991 -0.4605 -0.4562 -0.2489
 1220TIP3    H225076   4.195   2.670   3.863 -0.6416 -0.0164 -0.1863
 1221TIP3   OH225077   0.960   1.535  14.459  0.6527 -0.0965 -0.2828
 1221TIP3    H125078   0.890   1.550  14.524  0.7137 -2.4714  0.3480
 1221TIP3    H225079   1.038   1.517  14.511  0.9734 -0.8544 -1.0252
 1222TIP3   OH225080   1.674   5.232  13.945 -0.1236  0.3041  0.4473
 1222TIP3    H125081   1.710   5.269  13.864  0.5287 -1.9480 -0.3315
 1222TIP3    H225082   1.632   5.151  13.917 -0.7352 -0.0112  2.2455
 1223TIP3   OH225083   4.369   5.055  15.938  0.8532  0.3873  0.1277
 1223TIP3    H125084   4.400   5.000  16.010  1.6649  0.3206 -0.2659
 1223TIP3    H225085   4.311   5.119  15.979 -1.8232 -2.0588  0.3186
 1224TIP3   OH225086   1.032   4.278   1.997  0.0838  0.1594 -0.2918
 1224TIP3    H125087   1.015   4.192   1.959 -0.6442  0.6876 -1.1733
 1224TIP3    H225088   0.964   4.335   1.960 -0.0025  0.9153  0.9778
 1225TIP3   OH225089   6.567   2.016  13.579  0.1601 -0.0163  0.3349
 1225TIP3    H125090   6.497   1.954  13.597 -1.9519  1.8033 -1.3863
 1225TIP3    H225091   6.644   1.961  13.562 -1.2848 -2.0815  0.3361
 1226TIP3   OH225092   3.275   1.010   0.326 -0.1764  0.2026 -0.3281
 1226TIP3    H125093   3.293   1.057   0.408  0.7735  0.1543 -0.5067
 1226TIP3    H225094   3.325   0.929   0.333  0.3701  0.4596 -1.2104
 1227TIP3   OH225095   3.153   3.536  17.142  0.2088  0.9598 -0.6643
 1227TIP3    H125096   3.067   3.561  17.109  0.3929  0.4187 -1.5690
 1227TIP3    H225097   3.192   3.484  17.072  0.6247 -0.1721  0.3825
 1228TIP3   OH225098   1.947   2.303   3.665 -0.2529 -0.8431 -0.3337
 1228TIP3    H125099   2.030   2.331   3.627  1.5549 -2.1526  2.5052
 1228TIP3    H225100   1.926   2.371   3.729 -2.1827  0.2592 -2.0815
 1229TIP3   OH225101   2.883   5.314   0.650  0.0810  0.1315  0.3406
 1229TIP3    H125102   2.870   5.241   0.710  1.0609 -0.1088  0.2651
 1229TIP3    H225103   2.856   5.280   0.564 -1.0649  0.3928  0.5891
 1230TIP3   OH225104   6.183   1.418   4.262 -0.0099 -0.7024 -0.2056
 1230TIP3    H125105   6.203   1.362   4.187 -1.3009 -1.5995  0.1079
 1230TIP3    H225106   6.135   1.492   4.225 -1.0356 -1.3648 -0.2185
 1231TIP3   OH225107   0.994   5.607   2.860  0.7704  0.6261  0.1183
 1231TIP3    H125108   1.024   5.588   2.950  0.6934  0.8982  0.2030
 1231TIP3    H225109   1.074   5.603   2.808  0.8835  0.8638  0.2668
 1232TIP3   OH225110   1.788   5.739  14.921  0.3083 -0.3204 -0.4289
 1232TIP3    H125111   1.781   5.715  15.013  0.3098 -1.7317 -0.7833
 1232TIP3    H225112   1.715   5.694  14.878  0.3736  0.2285 -1.1466
 1233TIP3   OH225113   0.178   4.598   3.997  0.0897  0.0043  0.3822
 1233TIP3    H125114   0.177   4.508   4.030  0.1321 -0.7237 -1.5297
 1233TIP3    H225115   0.147   4.651   4.070 -3.3842 -1.9472  0.4244
 1234TIP3   OH225116   1.741   4.654   5.093 -0.1478 -0.3433 -0.7008
 1234TIP3    H125117   1.669   4.599   5.126 -1.3688  0.9875 -1.0615
 1234TIP3    H225118   1.764   4.616   5.008  0.5891 -1.6555  0.0694
 1235TIP3   OH225119   6.622   3.395  14.948  0.2457  0.3908 -0.2486
 1235TIP3    H125120   6.570   3.441  14.882  0.3847  1.4144  0.3368
 1235TIP3    H225121   6.703   3.445  14.952  1.5125 -1.4849 -1.5239
 1236TIP3   OH225122   1.666   3.947   3.795  0.4219 -0.3086  0.2131
 1236TIP3    H125123   1.665   3.943   3.890  0.0798 -0.8130  0.1900
 1236TIP3    H225124   1.755   3.922   3.770  1.2793  2.2818  0.5005
 1237TIP3   OH225125   4.315   6.537  14.413 -0.1289  0.3444 -0.3230
 1237TIP3    H125126   4.379   6.507  14.348 -0.7945  0.1623 -0.8977
 1237TIP3    H225127   4.244   6.574  14.361 -0.6210  0.2908  0.3092
 1238TIP3   OH225128   6.358   4.304   4.782 -0.1601 -0.2817 -1.1020
 1238TIP3    H125129   6.321   4.289   4.870  1.3021  1.5311 -0.1393
 1238TIP3    H225130   6.288   4.348   4.734 -0.1118  1.0397 -0.0091
 1239TIP3   OH225131   5.908   2.788  15.904 -0.4243 -0.1974 -0.7459
 1239TIP3    H125132   5.967   2.847  15.856 -0.2295 -0.4207 -0.7806
 1239TIP3    H225133   5.820   2.816  15.878 -0.4574  2.1664  1.6208
 1240TIP3   OH225134   1.836   2.618  14.847  0.3165  0.1855  0.3249
 1240TIP3    H125135   1.881   2.675  14.785 -1.3330  1.2407  0.0680
 1240TIP3    H225136   1.816   2.539  14.797 -0.6463  0.8700 -0.3907
 1241TIP3   OH225137   1.924   5.848   4.189  0.0188 -0.4526  0.1392
 1241TIP3    H125138   1.926   5.929   4.137 -1.4144 -2.0441 -2.4801
 1241TIP3    H225139   1.847   5.858   4.245 -1.8775 -1.1542 -2.2379
 1242TIP3   OH225140   4.157   5.548  13.913  0.0726  0.0670 -0.4963
 1242TIP3    H125141   4.115   5.483  13.857 -0.7127  0.4108 -0.3159
 1242TIP3    H225142   4.102   5.550  13.992  0.3527  0.6110 -0.3113
 1243TIP3   OH225143   3.161   3.154  15.746 -0.1338  0.4033  0.6256
 1243TIP3    H125144   3.101   3.080  15.739 -0.1364  0.4141  0.5331
 1243TIP3    H225145   3.248   3.115  15.739 -0.1067  0.2924  1.5594
 1244TIP3   OH225146   5.319   0.276  15.541 -0.2266 -0.6403  0.1423
 1244TIP3    H125147   5.237   0.304  15.583  0.5526  0.3157  1.0741
 1244TIP3    H225148   5.325   0.329  15.462 -0.1263 -0.1418  0.4817
 1245TIP3   OH225149   0.623   4.106   7.130  0.1410  0.3506  0.1061
 1245TIP3    H125150   0.599   4.184   7.180 -0.0843 -0.1661  0.7910
 1245TIP3    H225151   0.688   4.138   7.067 -1.0014  1.3841 -0.5705
 1246TIP3   OH225152   4.498   1.961  14.362 -0.5730 -0.0002 -0.0041
 1246TIP3    H125153   4.572   1.909  14.331  0.1551  1.4115 -0.6747
 1246TIP3    H225154   4.523   1.988  14.451 -0.3646  0.2873 -0.1467
 1247TIP3   OH225155   5.103   4.086  11.621 -0.5484 -0.4043  0.7422
 1247TIP3    H125156   5.107   4.160  11.560 -1.2560  0.4917  1.7625
 1247TIP3    H225157   5.073   4.013  11.568 -1.9784  0.5608  0.1785
 1248TIP3   OH225158   2.322   0.562  14.922 -0.1513  0.7788 -0.2326
 1248TIP3    H125159   2.373   0.616  14.862 -1.0390 -0.0648 -1.7719
 1248TIP3    H225160   2.362   0.475  14.915 -1.1395  0.3530 -0.6784
 1249TIP3   OH225161   5.029   0.315  14.074  0.6315  0.3167 -0.0870
 1249TIP3    H125162   5.095   0.257  14.036  0.3499 -0.7347  0.9825
 1249TIP3    H225163   5.013   0.381  14.007  1.9276 -0.0870 -0.8086
 1250TIP3   OH225164   4.699   2.350  13.006  0.0005 -0.4978  0.6051
 1250TIP3    H125165   4.714   2.322  12.915  0.8189  0.6470  0.3784
 1250TIP3    H225166   4.638   2.423  12.999  1.5345  0.8513  0.7916
 1251TIP3   OH225167   2.863   2.141  12.409  0.1552  0.1416 -0.3085
 1251TIP3    H125168   2.950   2.112  12.383 -0.0129  0.2335 -1.0049
 1251TIP3    H225169   2.830   2.072  12.466 -0.1881 -1.0057 -1.8392
 1252TIP3   OH225170   5.901   0.134   4.666 -0.2241  0.3650 -0.3377
 1252TIP3    H125171   5.816   0.159   4.629  0.0337 -0.6827 -1.6594
 1252TIP3    H225172   5.881   0.103   4.754 -0.9686  1.9289  0.0766
 1253TIP3   OH225173   6.297   5.685   4.734  0.3435 -0.0960 -0.3781
 1253TIP3    H125174   6.344   5.765   4.758 -1.8723  0.6413  1.6436
 1253TIP3    H225175   6.206   5.713   4.721 -0.6331 -2.3789  1.0977
 1254TIP3   OH225176   2.714   3.477   5.810 -0.1904  0.5143  0.7055
 1254TIP3    H125177   2.764   3.517   5.738  0.9273 -1.0664  0.5716
 1254TIP3    H225178   2.626   3.512   5.800  0.1217  0.8635 -1.0208
 1255TIP3   OH225179   2.121   1.201   5.804  0.2454 -0.5525 -0.1161
 1255TIP3    H125180   2.204   1.242   5.778  0.8403 -2.4339 -1.2589
 1255TIP3    H225181   2.132   1.181   5.897  1.0619 -0.7539 -0.2540
 1256TIP3   OH225182   5.035   3.360  11.317 -0.0899 -0.3787 -0.3510
 1256TIP3    H125183   5.090   3.330  11.245 -1.0810 -1.3485 -0.7141
 1256TIP3    H225184   5.087   3.341  11.395 -0.0670 -1.6817 -0.6623
 1257TIP3   OH225185   5.679   2.355   0.027  0.1591  0.6319  0.1692
 1257TIP3    H125186   5.676   2.291  -0.045  1.7302  0.6292  0.1013
 1257TIP3    H225187   5.682   2.440  -0.017  0.1131  0.6697  0.2384
 1258TIP3   OH225188   6.179   4.886  15.368 -0.5036 -0.3325 -0.0210
 1258TIP3    H125189   6.116   4.918  15.304 -0.1674  0.8704  0.2159
 1258TIP3    H225190   6.131   4.885  15.451 -0.5905 -0.6947 -0.0764
 1259TIP3   OH225191   1.763   0.183  17.006 -0.6904  0.4210  0.0550
 1259TIP3    H125192   1.788   0.150  17.092  0.2948  2.7904  0.6965
 1259TIP3    H225193   1.742   0.104  16.956  0.7472 -1.1198  1.8082
 1260TIP3   OH225194   6.601   1.330  16.967  0.1961 -0.3912 -0.7072
 1260TIP3    H125195   6.677   1.287  16.928  3.2431  2.3414  1.8598
 1260TIP3    H225196   6.618   1.328  17.061 -2.6885  0.7436 -0.1149
 1261TIP3   OH225197   0.691   3.477  16.281  0.2324  0.0139 -0.7390
 1261TIP3    H125198   0.619   3.418  16.302 -1.3310  1.0065 -3.1650
 1261TIP3    H225199   0.748   3.426  16.223  0.7367 -0.2625 -0.0169
 1262TIP3   OH225200   2.933   5.550   2.861  0.7902 -0.6117 -0.1269
 1262TIP3    H125201   2.969   5.620   2.915  0.5897 -1.4121  1.0409
 1262TIP3    H225202   3.002   5.485   2.856  0.2022 -1.2972  0.5573
 1263TIP3   OH225203   0.497   0.933   5.227 -0.1121 -0.2038  0.0372
 1263TIP3    H125204   0.575   0.978   5.258 -0.0513  0.1870 -0.6608
 1263TIP3    H225205   0.479   0.866   5.293  0.2350  0.3570  0.6997
 1264TIP3   OH225206   1.636   6.282  10.530 -0.0991  0.7338  0.3878
 1264TIP3    H125207   1.581   6.354  10.562  1.7205  1.1098  2.8384
 1264TIP3    H225208   1.725   6.317  10.533  0.5136 -0.6353 -1.2911
 1265TIP3   OH225209   2.692   0.933   1.518 -0.8542 -0.0627  0.7699
 1265TIP3    H125210   2.634   0.916   1.592 -0.2140  0.4724  1.3977
 1265TIP3    H225211   2.778   0.905   1.548 -0.5518  0.3548  0.2961
 1266TIP3   OH225212   4.475   6.432   0.239 -0.1423  0.0802 -0.1698
 1266TIP3    H125213   4.444   6.503   0.184  1.8416  1.1035 -0.0052
 1266TIP3    H225214   4.396   6.397   0.280 -1.3805  0.7019 -2.0054
 1267TIP3   OH225215   5.182   6.581  15.766 -0.1617 -0.2275 -0.6800
 1267TIP3    H125216   5.099   6.558  15.808 -0.0302 -0.9803 -0.8146
 1267TIP3    H225217   5.187   6.676  15.773 -0.0183 -0.3582  1.2618
 1268TIP3   OH225218   4.408   5.489  16.285  0.3089 -0.0081 -0.1360
 1268TIP3    H125219   4.355   5.428  16.335  1.7650 -1.2447 -0.0633
 1268TIP3    H225220   4.425   5.562  16.345 -0.6203  0.0147  0.0994
 1269TIP3   OH225221   5.592   1.780  11.385  0.1492 -0.7768  0.0962
 1269TIP3    H125222   5.635   1.694  11.384 -1.2305 -1.4625 -0.9319
 1269TIP3    H225223   5.593   1.808  11.294 -3.0535 -1.5620 -0.2312
 1270TIP3   OH225224   4.635   2.290  13.878  0.3845  0.6810  0.0683
 1270TIP3    H125225   4.689   2.342  13.819  0.4779  0.6654  0.1403
 1270TIP3    H225226   4.560   2.263  13.825  0.1419  1.2137  0.1378
 1271TIP3   OH225227   4.541   1.099   0.557 -0.5564  0.0069 -0.2181
 1271TIP3    H125228   4.488   1.023   0.534 -1.6566  0.8349 -0.4726
 1271TIP3    H225229   4.622   1.063   0.593 -1.0511 -1.2750 -0.3892
 1272TIP3   OH225230   5.586   5.265   2.698  0.0216  0.3665  0.5770
 1272TIP3    H125231   5.617   5.260   2.608  1.2500  0.8825  0.9509
 1272TIP3    H225232   5.666   5.266   2.750 -0.6929 -0.6415  1.7120
 1273TIP3   OH225233   3.477   4.139  13.055  0.1395  0.2386 -0.2978
 1273TIP3    H125234   3.389   4.179  13.054 -1.5191 -3.1654  1.4735
 1273TIP3    H225235   3.470   4.064  12.997  2.5800  1.1262 -1.8309
 1274TIP3   OH225236   0.096   1.504  15.214  0.2434  0.3427  0.3566
 1274TIP3    H125237   0.004   1.505  15.187 -0.0210  0.4917  1.2608
 1274TIP3    H225238   0.144   1.515  15.132 -0.5052 -1.0259 -0.3025
 1275TIP3   OH225239   2.960   2.281  16.648 -0.3144 -0.2788  0.1035
 1275TIP3    H125240   2.973   2.373  16.668 -1.7341 -0.1525  0.5000
 1275TIP3    H225241   2.997   2.234  16.722 -1.9292  0.0668  1.1626
 1276TIP3   OH225242   5.537   3.941   1.985 -0.2000  0.0376 -0.3096
 1276TIP3    H125243   5.586   4.015   2.021  0.5428 -1.0679  1.0122
 1276TIP3    H225244   5.603   3.885   1.946 -0.7514  0.0060 -1.2152
 1277TIP3   OH225245   1.494   1.455   3.029 -0.1324  0.2065 -0.1035
 1277TIP3    H125246   1.532   1.403   3.100  0.5373 -0.8697 -1.2318
 1277TIP3    H225247   1.509   1.546   3.055  0.6117 -0.1826  0.8535
 1278TIP3   OH225248   5.985   6.201  12.676  0.2049 -0.1575  0.0838
 1278TIP3    H125249   5.955   6.122  12.722  0.9582 -0.2094  0.4904
 1278TIP3    H225250   6.080   6.203  12.690  0.8939 -1.6660 -3.7760
 1279TIP3   OH225251   3.893   4.358   4.478 -0.0999  0.8331  0.1111
 1279TIP3    H125252   3.937   4.405   4.549 -0.3346  0.5634  0.4339
 1279TIP3    H225253   3.813   4.408   4.462 -0.6417  0.2163  0.8535
 1280TIP3   OH225254   5.104   2.175  16.607  0.0629  0.1017 -0.3445
 1280TIP3    H125255   5.063   2.093  16.634 -2.2445  1.1435 -0.5827
 1280TIP3    H225256   5.051   2.206  16.533 -0.3548  2.8329  1.0266
 1281TIP3   OH225257   1.693   4.471  12.446  0.1937 -0.1316  0.4327
 1281TIP3    H125258   1.629   4.433  12.386 -0.5155  1.3415  0.2221
 1281TIP3    H225259   1.738   4.538  12.393  0.3105  0.4211  1.2262
 1282TIP3   OH225260   2.234   2.890  12.009 -0.0508 -0.3151  0.0619
 1282TIP3    H125261   2.196   2.928  12.088 -0.5083 -0.4153 -0.1081
 1282TIP3    H225262   2.326   2.875  12.031 -0.2220 -0.5261  0.6409
 1283TIP3   OH225263   4.430   4.276  11.266  0.4384  0.1220  0.1936
 1283TIP3    H125264   4.409   4.186  11.239 -1.0853  0.6726 -0.5123
 1283TIP3    H225265   4.347   4.310  11.299  0.5513  1.8884 -1.2941
 1284TIP3   OH225266   5.861   5.750   3.630  0.0763 -0.2075  0.1878
 1284TIP3    H125267   5.827   5.666   3.602  1.1719 -1.1413  1.5727
 1284TIP3    H225268   5.818   5.814   3.574 -1.8570 -1.5730  0.0894
 1285TIP3   OH225269   4.224   4.081  15.233  0.5230  0.0129 -0.0791
 1285TIP3    H125270   4.165   4.016  15.270 -0.0571 -0.6570 -2.1017
 1285TIP3    H225271   4.305   4.033  15.215  1.0517  0.4966  0.9469
 1286TIP3   OH225272   0.997   5.188   1.360  0.3089 -0.3989 -0.3832
 1286TIP3    H125273   0.928   5.231   1.412 -0.3639 -0.4370 -1.2401
 1286TIP3    H225274   0.999   5.098   1.394 -1.0401 -0.7944 -1.2982
 1287TIP3   OH225275   1.083   4.092   4.347  0.0574  0.5236 -0.3543
 1287TIP3    H125276   1.018   4.077   4.278  2.0164 -0.2858 -2.0575
 1287TIP3    H225277   1.064   4.024   4.412  0.4805 -1.0345 -1.8174
 1288TIP3   OH225278   5.065   3.959   4.082 -0.2977 -0.2480  0.8562
 1288TIP3    H125279   4.974   3.937   4.100 -0.5254  0.6850  0.8768
 1288TIP3    H225280   5.065   4.054   4.070  0.5628 -0.3223  0.2089
 1289TIP3   OH225281   3.290   6.651   4.064  0.2831  0.7932  0.2967
 1289TIP3    H125282   3.363   6.598   4.030 -0.2054  0.7578 -0.7344
 1289TIP3    H225283   3.295   6.732   4.014 -0.2461  0.8847  0.3949
 1290TIP3   OH225284   6.692   6.716  15.313  0.3308  0.8420 -0.1376
 1290TIP3    H125285   6.735   6.762  15.240 -0.2000  1.9237  0.2153
 1290TIP3    H225286   6.627   6.661  15.270  1.3842 -0.0618 -0.6092
 1291TIP3   OH225287   3.987   2.158  16.406 -0.3579 -0.3613 -0.2688
 1291TIP3    H125288   3.942   2.084  16.365 -1.0798 -0.2892  0.3632
 1291TIP3    H225289   4.012   2.125  16.493 -0.5507  0.0877 -0.0412
 1292TIP3   OH225290   3.379   5.301  16.656  0.0804  0.1972  0.0324
 1292TIP3    H125291   3.358   5.318  16.564  1.6600  1.6167 -0.0978
 1292TIP3    H225292   3.298   5.318  16.704 -0.1668  1.5860 -0.8642
 1293TIP3   OH225293   0.169   2.125   5.382 -0.5430 -0.0237 -0.2011
 1293TIP3    H125294   0.186   2.169   5.299 -1.6388  2.1868  0.7250
 1293TIP3    H225295   0.254   2.124   5.427 -0.6688  1.7931  0.0790
 1294TIP3   OH225296   1.740   6.775  12.391  0.4702 -0.0529  1.0069
 1294TIP3    H125297   1.758   6.835  12.319 -0.5224 -2.2855 -1.2110
 1294TIP3    H225298   1.796   6.699  12.373  1.3009 -0.0483  3.4309
 1295TIP3   OH225299   6.634   6.064  14.038  0.5110 -0.2874 -0.0281
 1295TIP3    H125300   6.666   6.111  14.114 -0.0253  0.4996 -0.2871
 1295TIP3    H225301   6.584   5.991  14.074  1.3893 -0.6987  0.3706
 1296TIP3   OH225302   0.195   3.128  15.936  0.4556  0.3906  0.2889
 1296TIP3    H125303   0.115   3.178  15.917 -0.1073 -0.2397  0.9643
 1296TIP3    H225304   0.164   3.050  15.982  1.3317 -0.6085 -0.7815
 1297TIP3   OH225305   1.371   4.031  16.395 -0.1329  0.1703 -0.0272
 1297TIP3    H125306   1.338   3.946  16.365  0.9922  0.2670 -1.6341
 1297TIP3    H225307   1.292   4.083  16.410 -1.0263 -2.2247  4.4981
 1298TIP3   OH225308   3.490   1.302  13.757 -0.1320 -0.2268  0.4360
 1298TIP3    H125309   3.474   1.293  13.663 -0.6461 -0.1406  0.5150
 1298TIP3    H225310   3.408   1.335  13.792 -0.0944 -0.7247  0.9907
 1299TIP3   OH225311   2.637   2.389   1.886 -0.5107 -0.1007 -0.2351
 1299TIP3    H125312   2.668   2.385   1.796  0.2013  0.3417 -0.0149
 1299TIP3    H225313   2.690   2.459   1.927 -1.2926  0.1668  0.3364
 1300TIP3   OH225314   3.847   4.821   4.144 -0.1380  0.0122 -0.6387
 1300TIP3    H125315   3.817   4.761   4.213  0.3580 -0.1003 -0.5170
 1300TIP3    H225316   3.904   4.767   4.089  0.1516  0.3266 -0.6408
 1301TIP3   OH225317   3.221   0.717  12.929  0.0336  0.7102  0.0145
 1301TIP3    H125318   3.127   0.711  12.914  0.0370  1.0374 -0.1226
 1301TIP3    H225319   3.238   0.810  12.944  0.3789  0.6904 -0.2429
 1302TIP3   OH225320   3.815   5.030  13.338  0.6949 -0.3431 -0.0333
 1302TIP3    H125321   3.824   5.101  13.401  2.1002 -1.0278  0.5595
 1302TIP3    H225322   3.728   5.043  13.299  0.0635  0.4463  1.6016
 1303TIP3   OH225323   1.593   1.243   3.306 -0.8670  0.1389 -0.2705
 1303TIP3    H125324   1.571   1.150   3.300 -0.2795 -0.0728  0.7326
 1303TIP3    H225325   1.649   1.259   3.230  1.2180 -0.9704  0.9874
 1304TIP3   OH225326   0.175   6.704  16.032 -0.2127 -0.0857 -0.0087
 1304TIP3    H125327   0.178   6.753  15.950 -1.6901 -0.8033 -0.5046
 1304TIP3    H225328   0.254   6.649  16.030  1.4613  2.2412  0.5594
 1305TIP3   OH225329   1.391   6.176   4.696  0.0312  0.2130 -0.6111
 1305TIP3    H125330   1.305   6.218   4.704 -0.0515 -0.3201  1.4031
 1305TIP3    H225331   1.381   6.092   4.740  1.6280  0.1870 -0.2816
 1306TIP3   OH225332   1.744   2.052  14.231 -0.1265 -0.4013  0.5842
 1306TIP3    H125333   1.659   2.093  14.215  1.0406  1.3371 -1.4469
 1306TIP3    H225334   1.784   2.107  14.298 -0.1508 -0.5814  0.7487
 1307TIP3   OH225335   6.197   4.254  12.018  0.6232 -0.1766 -0.2692
 1307TIP3    H125336   6.149   4.273  12.098 -0.4857 -0.3903 -0.8762
 1307TIP3    H225337   6.134   4.269  11.948  0.8393 -2.3378 -0.9788
 1308TIP3   OH225338   2.039   5.102   0.977 -0.2282  0.2905  0.0492
 1308TIP3    H125339   2.130   5.132   0.982 -0.0118 -0.6798  2.3670
 1308TIP3    H225340   2.023   5.059   1.061 -1.9748 -1.9528 -1.3637
 1309TIP3   OH225341   3.555   0.266  11.867 -0.5274  0.2350  0.2853
 1309TIP3    H125342   3.544   0.360  11.882  0.1597  0.6472 -1.5643
 1309TIP3    H225343   3.648   0.257  11.845 -0.8107 -0.7203 -0.5404
 1310TIP3   OH225344   3.286   4.652  11.775 -0.0411 -0.1010  0.3184
 1310TIP3    H125345   3.272   4.692  11.689 -0.9226  0.6501  0.8094
 1310TIP3    H225346   3.356   4.703  11.815  0.5505 -0.6128 -0.0485
 1311TIP3   OH225347   4.542   6.601  13.465  0.3532 -0.0113 -0.0768
 1311TIP3    H125348   4.518   6.693  13.464 -1.6722 -0.5118  0.3282
 1311TIP3    H225349   4.489   6.561  13.396 -1.3517 -1.4513  1.9725
 1312TIP3   OH225350   1.351   1.502   1.154  0.2342  0.4832  0.1404
 1312TIP3    H125351   1.270   1.481   1.108  0.1075 -2.6905  1.6772
 1312TIP3    H225352   1.330   1.582   1.204 -0.3477  2.5355 -3.2500
 1313TIP3   OH225353   5.396   1.067  15.072  0.1196  0.5495  0.3481
 1313TIP3    H125354   5.452   0.991  15.088 -0.5576  0.1431  0.8494
 1313TIP3    H225355   5.422   1.130  15.139 -0.4199  0.1321  0.9588
 1314TIP3   OH225356   5.892   1.736   3.083  0.4054 -0.6433 -0.8234
 1314TIP3    H125357   5.872   1.818   3.037 -0.3863 -0.7313 -0.6531
 1314TIP3    H225358   5.858   1.667   3.025 -1.6982 -0.7010  0.4219
 1315TIP3   OH225359   1.178   2.122  16.171 -0.3648 -0.2806  0.0180
 1315TIP3    H125360   1.192   2.144  16.079  2.7941 -0.6539  0.3309
 1315TIP3    H225361   1.214   2.196  16.219  0.1490 -1.1242  0.9553
 1316TIP3   OH225362   2.146   3.115   3.912  0.4646 -0.3577 -0.0460
 1316TIP3    H125363   2.189   3.085   3.992  1.9783 -0.4598 -0.8846
 1316TIP3    H225364   2.189   3.197   3.890 -0.9984  0.4671  0.0723
 1317TIP3   OH225365   6.611   1.351  11.962  0.3332  0.3814 -0.0568
 1317TIP3    H125366   6.566   1.282  12.011  1.3427 -0.0634  0.2508
 1317TIP3    H225367   6.540   1.404  11.925 -0.4624 -0.9718 -0.5204
 1318TIP3   OH225368   0.559   1.031   5.952  0.0403  0.5070  0.7700
 1318TIP3    H125369   0.573   1.125   5.946 -0.4033  0.5153 -0.2106
 1318TIP3    H225370   0.547   1.002   5.862  1.1913 -0.6586  0.9676
 1319TIP3   OH225371   1.714   0.564  15.365 -0.2378  0.4151  0.5730
 1319TIP3    H125372   1.786   0.530  15.419  0.3456 -0.4445 -0.7152
 1319TIP3    H225373   1.651   0.492  15.361 -1.2383  1.2126  1.8025
 1320TIP3   OH225374   3.282   6.775   4.813  0.8853  0.3462 -0.2372
 1320TIP3    H125375   3.366   6.799   4.851  1.8165 -1.9265 -0.7743
 1320TIP3    H225376   3.217   6.823   4.865  2.2183 -1.5065  3.2566
 1321TIP3   OH225377   4.177   0.378   2.332 -0.1212  0.3360  0.2083
 1321TIP3    H125378   4.232   0.344   2.261  0.5215  0.3667  0.6917
 1321TIP3    H225379   4.221   0.350   2.412 -1.5537 -0.8420  0.6040
 1322TIP3   OH225380   3.071   0.405  13.566 -0.0865  0.1699  0.5479
 1322TIP3    H125381   3.050   0.376  13.478 -0.7909 -2.2572  1.4728
 1322TIP3    H225382   2.988   0.439  13.600  0.3603  1.8234  0.0397
 1323TIP3   OH225383   5.829   6.143  11.033 -0.1065 -0.2325  0.2858
 1323TIP3    H125384   5.877   6.076  10.985 -0.2189  1.3163 -2.0711
 1323TIP3    H225385   5.895   6.187  11.087  0.6014 -0.0332 -0.7354
 1324TIP3   OH225386   5.513   4.694  15.387  0.0797 -0.3037 -0.3980
 1324TIP3    H125387   5.433   4.676  15.436 -0.8605  1.1830 -1.3478
 1324TIP3    H225388   5.583   4.659  15.442 -1.1853 -1.2575  0.6338
 1325TIP3   OH225389   5.666   1.581  13.934  0.3702 -0.5480  0.2096
 1325TIP3    H125390   5.710   1.504  13.971  0.3788 -0.4125  0.4775
 1325TIP3    H225391   5.673   1.569  13.839  1.6486 -0.1345  0.2580
 1326TIP3   OH225392   5.707   6.613  14.507  0.2518  0.4791 -0.0429
 1326TIP3    H125393   5.704   6.572  14.593 -0.3001 -0.8850 -0.7052
 1326TIP3    H225394   5.801   6.621  14.488  0.3700  0.3921  0.4963
 1327TIP3   OH225395   3.899   3.754  16.772  0.1588 -0.1283 -0.6053
 1327TIP3    H125396   3.895   3.808  16.851  0.7223  2.2455 -2.1365
 1327TIP3    H225397   3.814   3.768  16.730  0.0539 -0.9825 -0.6787
 1328TIP3   OH225398   5.100   4.763   2.422  0.9817  0.4333 -0.2283
 1328TIP3    H125399   5.077   4.671   2.405 -1.7512  1.0676 -0.2816
 1328TIP3    H225400   5.114   4.801   2.335  0.2134  0.4890 -0.3382
 1329TIP3   OH225401   1.791   4.156   4.723  0.3940  0.2006 -0.1728
 1329TIP3    H125402   1.792   4.187   4.632  1.2356 -1.6859 -0.8194
 1329TIP3    H225403   1.805   4.062   4.716 -1.4804 -0.2559  1.8054
 1330TIP3   OH225404   4.314   3.970  13.860 -0.0225 -0.2889  0.0622
 1330TIP3    H125405   4.398   3.981  13.815  0.5967 -1.4019  0.9419
 1330TIP3    H225406   4.267   3.905  13.807  0.4513 -1.1209  0.6558
 1331TIP3   OH225407   5.709   5.389  12.206  0.0768  0.2288 -0.1900
 1331TIP3    H125408   5.618   5.409  12.224 -0.1567 -1.2751  0.3282
 1331TIP3    H225409   5.719   5.405  12.112 -0.3159  1.8564  0.0241
 1332TIP3   OH225410   6.079   4.798  16.371 -0.2093  0.2178  0.7210
 1332TIP3    H125411   6.130   4.724  16.402  1.0224  0.6348 -0.2482
 1332TIP3    H225412   6.052   4.845  16.450  0.5994 -0.2137  1.2501
 1333TIP3   OH225413   3.490   6.635   5.912  0.0690  0.3529  0.0757
 1333TIP3    H125414   3.503   6.547   5.946  0.6126  0.5127  0.2916
 1333TIP3    H225415   3.499   6.692   5.989 -1.3572  0.5180  0.1317
 1334TIP3   OH225416   4.965   5.834   5.701 -0.6637  0.2316 -0.2096
 1334TIP3    H125417   4.872   5.851   5.683 -0.8197 -1.5971 -1.2545
 1334TIP3    H225418   4.983   5.884   5.781 -2.2647  1.4433 -0.5653
 1335TIP3   OH225419   2.858   5.522   3.415 -0.6094 -0.3714 -0.5148
 1335TIP3    H125420   2.868   5.464   3.491  0.0594 -0.9358 -1.0263
 1335TIP3    H225421   2.838   5.607   3.453  1.0056 -0.3662  0.3672
 1336TIP3   OH225422   4.849   5.765   2.771  0.1016  0.1039  0.2169
 1336TIP3    H125423   4.824   5.798   2.685 -0.2322 -0.8754 -0.0784
 1336TIP3    H225424   4.895   5.683   2.753 -0.1634 -0.2224  0.9770
 1337TIP3   OH225425   1.303   6.774  10.389 -0.3308 -0.0721 -0.6898
 1337TIP3    H125426   1.284   6.688  10.428 -1.2537  0.1309 -0.6798
 1337TIP3    H225427   1.392   6.766  10.356  0.2519 -0.4492  0.9305
 1338TIP3   OH225428   4.161   1.044  11.848 -0.2829  0.5471 -0.5585
 1338TIP3    H125429   4.187   1.002  11.930 -1.5028  0.2909 -0.2916
 1338TIP3    H225430   4.212   1.126  11.846  1.5590 -0.5741 -0.7400
 1339TIP3   OH225431   3.304   6.219   2.032  0.3614  0.0153  0.4984
 1339TIP3    H125432   3.352   6.188   2.110 -0.4515  2.4840  2.0227
 1339TIP3    H225433   3.283   6.139   1.984  1.0293 -1.5609  2.7392
 1340TIP3   OH225434   1.432   2.691   3.702 -0.4166 -0.2470 -0.0220
 1340TIP3    H125435   1.471   2.606   3.683 -1.3417 -0.9858  1.3482
 1340TIP3    H225436   1.392   2.717   3.619 -1.2511 -1.7440 -0.1028
 1341TIP3   OH225437   2.379   3.993   0.888  0.2712  0.3313 -0.2223
 1341TIP3    H125438   2.299   4.028   0.927 -0.6194  0.6384 -2.2924
 1341TIP3    H225439   2.431   4.071   0.867 -0.3066  0.2734 -1.8673
 1342TIP3   OH225440   3.670   3.357   1.097 -0.2017 -0.0936 -0.2219
 1342TIP3    H125441   3.724   3.283   1.124  3.2856  2.2813 -0.3233
 1342TIP3    H225442   3.625   3.326   1.018  0.0061 -2.5830  0.6058
 1343TIP3   OH225443   5.073   2.252  14.566  0.4337 -0.0934 -0.4563
 1343TIP3    H125444   5.143   2.193  14.537 -0.3356 -1.6461  0.7428
 1343TIP3    H225445   5.116   2.313  14.626  0.8181 -0.8402  0.0261
 1344TIP3   OH225446   2.307   2.938   3.215  0.4329 -0.0856 -0.8239
 1344TIP3    H125447   2.219   2.927   3.178  0.3397 -0.8698 -0.3884
 1344TIP3    H225448   2.347   2.851   3.205  0.9836  0.1445 -0.5814
 1345TIP3   OH225449   4.268   5.136  12.514 -0.3658  0.0227  0.1832
 1345TIP3    H125450   4.259   5.201  12.444  2.5165  1.2674  0.9295
 1345TIP3    H225451   4.206   5.165  12.581 -0.7659  0.6661 -0.4521
 1346TIP3   OH225452   2.824   0.741   1.238  0.0612 -0.4291  0.4765
 1346TIP3    H125453   2.731   0.748   1.260 -0.3445  1.0095 -1.5167
 1346TIP3    H225454   2.830   0.660   1.187  0.2274 -1.4598  2.1225
 1347TIP3   OH225455   2.514   2.640   2.093  0.8757 -0.5965 -0.2225
 1347TIP3    H125456   2.518   2.545   2.085 -1.5039 -0.7068 -0.4006
 1347TIP3    H225457   2.567   2.659   2.171 -1.0256 -2.3597  1.5689
 1348TIP3   OH225458   3.271   0.821  16.114 -0.0375  0.1891  0.7603
 1348TIP3    H125459   3.325   0.799  16.038 -0.3688  0.9214  0.3101
 1348TIP3    H225460   3.269   0.740  16.166 -1.3602 -0.9352 -0.9629
 1349TIP3   OH225461   3.313   4.351   3.854 -0.2702 -0.3124 -0.2710
 1349TIP3    H125462   3.349   4.437   3.832  0.1676  0.1333  2.0716
 1349TIP3    H225463   3.374   4.289   3.814  0.1088  0.4659 -0.9073
 1350TIP3   OH225464   3.237   2.553  12.920  0.5726 -0.1488  0.2089
 1350TIP3    H125465   3.156   2.595  12.895  1.0474  1.7597  1.7368
 1350TIP3    H225466   3.217   2.459  12.920 -0.8228  0.1147 -2.0890
 1351TIP3   OH225467   4.000   2.739  11.733  0.4715 -0.4541  0.4245
 1351TIP3    H125468   4.082   2.787  11.732  0.5295 -0.5498  0.5673
 1351TIP3    H225469   3.970   2.744  11.824  0.2418 -0.2869  0.3400
 1352TIP3   OH225470   2.517   5.245  12.002  0.0099 -0.1937  0.0625
 1352TIP3    H125471   2.578   5.172  12.008  0.9491  0.4989 -0.8851
 1352TIP3    H225472   2.569   5.322  12.027 -0.9205  0.1813  0.9015
 1353TIP3   OH225473   6.318   5.184   0.786  0.9042 -0.5031  0.3833
 1353TIP3    H125474   6.407   5.179   0.823  0.2482 -1.4808  1.9013
 1353TIP3    H225475   6.287   5.093   0.788 -0.3732 -0.0711  0.4928
 1354TIP3   OH225476   5.996   4.148  16.381 -0.0860 -0.1824 -0.2715
 1354TIP3    H125477   6.070   4.174  16.325 -0.0282  0.7756  0.2498
 1354TIP3    H225478   5.922   4.198  16.348  0.0989  0.9052  0.9486
 1355TIP3   OH225479   3.143   2.092  11.912  0.1586  0.2755  0.5153
 1355TIP3    H125480   3.202   2.054  11.847 -1.1621  0.2859 -0.7257
 1355TIP3    H225481   3.058   2.052  11.894 -0.1066 -0.1743  2.6520
 1356TIP3   OH225482   6.531   2.543   4.135 -0.7028 -0.0526  0.0592
 1356TIP3    H125483   6.463   2.484   4.166 -0.7887 -0.7089 -1.3440
 1356TIP3    H225484   6.509   2.558   4.043  1.5349 -0.9580 -0.6413
 1357TIP3   OH225485   2.361   3.908   2.830 -0.4586 -0.4740  0.2316
 1357TIP3    H125486   2.436   3.937   2.882 -1.2972  1.0102  0.6582
 1357TIP3    H225487   2.346   3.980   2.768 -1.5340 -0.7480  0.1706
 1358TIP3   OH225488   3.248   3.017   3.579  0.2254 -0.3303 -0.2338
 1358TIP3    H125489   3.196   2.963   3.519 -1.7376  1.7612 -0.4918
 1358TIP3    H225490   3.287   3.084   3.523  1.2064 -0.4276  0.3316
 1359TIP3   OH225491   0.910   1.676   4.070 -0.0768 -0.6515  0.0979
 1359TIP3    H125492   0.900   1.702   3.978 -0.4451  3.5307  1.2368
 1359TIP3    H225493   0.821   1.682   4.106  0.3450 -0.6122  1.1383
 1360TIP3   OH225494   2.648   5.269  11.412  0.3935 -0.1427 -0.3547
 1360TIP3    H125495   2.637   5.308  11.325 -1.6292 -0.2346 -0.1734
 1360TIP3    H225496   2.695   5.336  11.462 -0.5781  0.9327 -0.8374
 1361TIP3   OH225497   4.024   4.611  16.107  0.0866  0.0232 -0.7936
 1361TIP3    H125498   4.099   4.565  16.144 -1.0492 -0.0589  1.4943
 1361TIP3    H225499   4.057   4.650  16.026  2.5768 -0.0306  0.1659
 1362TIP3   OH225500   2.371   2.865   3.838  0.0231  0.3005 -0.1919
 1362TIP3    H125501   2.319   2.785   3.829 -1.7786  1.4546 -0.1687
 1362TIP3    H225502   2.359   2.912   3.756  2.3805 -0.1719 -0.8544
 1363TIP3   OH225503   0.456   5.600  16.945  0.0645  0.0570 -0.1696
 1363TIP3    H125504   0.452   5.560  17.032  3.1472  0.6157  0.2802
 1363TIP3    H225505   0.526   5.553  16.900 -0.7499  0.5358 -1.9546
 1364TIP3   OH225506   6.434   1.522   4.648 -0.1882  0.3841 -0.9381
 1364TIP3    H125507   6.463   1.444   4.599 -0.1415  0.0587 -0.3905
 1364TIP3    H225508   6.474   1.513   4.734  1.3688  1.9648 -1.4631
 1365TIP3   OH225509   5.524   0.794  14.152  0.0138  0.4654 -0.8245
 1365TIP3    H125510   5.606   0.833  14.180  1.4143 -0.9742 -2.8059
 1365TIP3    H225511   5.491   0.749  14.229  0.9696  1.2168  0.0358
 1366TIP3   OH225512   2.638   2.986  14.351 -0.1185 -0.4110 -0.0929
 1366TIP3    H125513   2.608   3.051  14.415 -0.1708 -0.1718 -0.3583
 1366TIP3    H225514   2.557   2.949  14.316 -0.1355  0.6767 -1.2657
 1367TIP3   OH225515   1.330   5.146  14.540 -0.2739  0.1559  0.6306
 1367TIP3    H125516   1.312   5.208  14.470  2.5740  0.2766 -0.0549
 1367TIP3    H225517   1.386   5.193  14.601  0.7846 -1.2984  0.8087
 1368TIP3   OH225518   5.200   0.009  10.588 -0.2704  0.1046 -0.0519
 1368TIP3    H125519   5.149   0.077  10.545 -1.0194 -0.9252 -0.8098
 1368TIP3    H225520   5.169  -0.073  10.549  2.1591 -0.5280 -0.7507
 1369TIP3   OH225521   4.051   0.960  13.269  0.3690 -0.0711  0.3065
 1369TIP3    H125522   4.002   0.883  13.237 -0.1008 -0.1206  1.1397
 1369TIP3    H225523   4.093   0.929  13.349 -0.0245  0.6203  0.7773
 1370TIP3   OH225524   1.793   2.172  12.947  0.0588  0.0349  0.0856
 1370TIP3    H125525   1.853   2.097  12.957  1.7349  1.5633  1.7686
 1370TIP3    H225526   1.851   2.248  12.940 -1.6511  1.2727 -0.9851
 1371TIP3   OH225527   4.869   3.666  11.325  0.6330  0.0775 -0.4378
 1371TIP3    H125528   4.954   3.685  11.284 -0.5190 -2.0907 -4.0548
 1371TIP3    H225529   4.815   3.742  11.304  1.0441  0.5224  0.0823
 1372TIP3   OH225530   0.255   5.031   1.817  0.2522  0.0836 -0.3257
 1372TIP3    H125531   0.168   5.071   1.815  0.4849  0.8472  2.1711
 1372TIP3    H225532   0.254   4.966   1.747 -2.4447 -0.1168 -0.1578
 1373TIP3   OH225533   1.116   6.111   0.735  0.4412 -0.4881  0.5513
 1373TIP3    H125534   1.151   6.025   0.756 -0.9177 -0.9422  0.9796
 1373TIP3    H225535   1.178   6.147   0.670  0.5807 -2.0935 -0.2171
 1374TIP3   OH225536   3.001   3.465   0.780 -0.0274 -0.1476  0.2130
 1374TIP3    H125537   2.981   3.527   0.850 -1.3023 -0.6373  0.2885
 1374TIP3    H225538   2.940   3.488   0.710  1.1419  0.2514 -0.6916
 1375TIP3   OH225539   5.559   0.991  11.837  0.0955 -0.2429  0.4294
 1375TIP3    H125540   5.482   0.935  11.848  0.8772 -1.0832  1.8926
 1375TIP3    H225541   5.527   1.080  11.854 -1.2440 -0.1357 -2.3028
 1376TIP3   OH225542   5.113   0.684  11.942 -0.6541 -0.2090 -0.2800
 1376TIP3    H125543   5.030   0.636  11.944 -1.3104  0.9367  0.9988
 1376TIP3    H225544   5.173   0.630  11.993 -0.6652 -0.9310 -1.0185
 1377TIP3   OH225545   5.174   4.205  16.153 -0.5546  0.0160 -0.1031
 1377TIP3    H125546   5.111   4.251  16.208 -0.9298  0.7661 -1.1459
 1377TIP3    H225547   5.205   4.133  16.208  2.0720  3.0057  2.5253
 1378TIP3   OH225548   1.857   5.166  16.685  0.5555  0.0815 -0.0265
 1378TIP3    H125549   1.950   5.167  16.704  0.5851  1.7005 -0.1581
 1378TIP3    H225550   1.815   5.162  16.771  0.7362  0.9279  0.1013
 1379TIP3   OH225551   4.016   0.049  12.556  0.1579  0.1373  0.0343
 1379TIP3    H125552   4.077   0.118  12.583  1.1568 -1.3094  1.6339
 1379TIP3    H225553   4.009  -0.008  12.633 -1.1954 -1.1604 -1.0105
 1380TIP3   OH225554   1.157   3.845   1.797 -0.1198  0.6567 -0.3658
 1380TIP3    H125555   1.137   3.830   1.704  0.3289 -0.2538 -0.3162
 1380TIP3    H225556   1.239   3.798   1.812  0.1150  1.2963  0.3516
 1381TIP3   OH225557   2.486   0.982   5.058  0.5439  0.1859 -0.0994
 1381TIP3    H125558   2.536   1.011   5.134  0.9110  1.8564 -0.9583
 1381TIP3    H225559   2.407   0.942   5.095 -0.1382  2.6043  1.1187
 1382TIP3   OH225560   2.309   6.152  16.774  0.1164  0.2410  0.7654
 1382TIP3    H125561   2.264   6.232  16.746  1.7486  0.6930 -0.6264
 1382TIP3    H225562   2.262   6.081  16.729  2.2822  0.9012 -2.7072
 1383TIP3   OH225563   4.836   6.335   3.439  0.0640 -0.6917  0.0001
 1383TIP3    H125564   4.827   6.398   3.367 -0.8934  0.3640  1.0095
 1383TIP3    H225565   4.848   6.390   3.517 -2.0613 -1.7116  1.0800
 1384TIP3   OH225566   2.170   2.031  14.783  0.2111 -0.2822  0.5328
 1384TIP3    H125567   2.094   1.973  14.772  0.1033 -0.2809  1.2260
 1384TIP3    H225568   2.245   1.972  14.781  0.4025 -0.0279 -2.6954
 1385TIP3   OH225569   6.721   2.117   5.173 -0.3492 -0.0826 -0.2929
 1385TIP3    H125570   6.782   2.180   5.136 -2.6217  1.0633 -2.1857
 1385TIP3    H225571   6.655   2.170   5.217 -0.2019 -1.2967  1.4766
 1386TIP3   OH225572   4.508   2.929   2.813  0.0302  0.1287 -0.4769
 1386TIP3    H125573   4.561   2.915   2.891 -1.3166 -2.2807  0.0656
 1386TIP3    H225574   4.427   2.967   2.846 -0.5607 -0.9391 -0.6586
 1387TIP3   OH225575   3.707   5.801   1.215  0.1901 -0.3889 -0.2010
 1387TIP3    H125576   3.690   5.871   1.278 -0.0718 -0.9062  0.3131
 1387TIP3    H225577   3.623   5.755   1.208 -0.0242  0.1870 -1.5854
 1388TIP3   OH225578   5.028   1.153   2.275 -0.3518 -0.0187 -0.7217
 1388TIP3    H125579   4.990   1.220   2.332 -0.2488 -0.9740  0.4871
 1388TIP3    H225580   5.076   1.203   2.208 -1.0451  1.1233 -0.3792
 1389TIP3   OH225581   5.780   3.242   3.871  0.1938 -0.0299 -0.1164
 1389TIP3    H125582   5.721   3.216   3.942 -1.4466 -1.1592 -1.8643
 1389TIP3    H225583   5.866   3.213   3.901 -0.2462  0.6587  1.9705
 1390TIP3   OH225584   6.176   2.604  11.512  0.4775  0.0053 -0.6645
 1390TIP3    H125585   6.099   2.616  11.455 -0.6041 -1.2807  0.4882
 1390TIP3    H225586   6.227   2.535  11.468 -0.3083 -0.9207 -0.1336
 1391TIP3   OH225587   4.991   5.736  11.732 -0.3250  0.1551 -0.1416
 1391TIP3    H125588   4.941   5.670  11.780 -1.2703 -1.5520 -3.3122
 1391TIP3    H225589   5.064   5.688  11.694  0.1232  1.3393 -0.8053
 1392TIP3   OH225590   6.595   5.126   4.097  0.6634 -0.3596  0.5197
 1392TIP3    H125591   6.623   5.035   4.093 -0.3219 -0.6858  0.8402
 1392TIP3    H225592   6.503   5.122   4.123  0.4773  0.7021  0.0889
 1393TIP3   OH225593   6.029   6.048  16.870 -0.0805 -0.1397 -0.2642
 1393TIP3    H125594   6.070   6.059  16.956 -0.9820  0.1257  0.1407
 1393TIP3    H225595   6.079   6.105  16.812  1.0711 -0.9532 -0.1036
 1394TIP3   OH225596   1.132   4.086   1.041 -0.5628  0.1031  0.3414
 1394TIP3    H125597   1.161   3.999   1.012 -0.7588 -0.5199  1.9583
 1394TIP3    H225598   1.205   4.144   1.018 -0.6678 -0.3679 -1.2791
 1395TIP3   OH225599   1.852   2.762  11.799  0.5251  0.2865 -0.0742
 1395TIP3    H125600   1.854   2.783  11.892  0.2186 -1.2734  0.3063
 1395TIP3    H225601   1.913   2.825  11.759 -0.1276  1.6325  1.0199
 1396TIP3   OH225602   1.477   3.609  11.935 -0.5298  0.2507  0.8806
 1396TIP3    H125603   1.451   3.695  11.967 -0.9160  0.0261  1.1705
 1396TIP3    H225604   1.503   3.561  12.014  2.8727  1.1738  0.4306
 1397TIP3   OH225605   2.932   6.151   2.673 -0.8525 -0.0262 -0.6351
 1397TIP3    H125606   2.995   6.081   2.687 -0.7567  0.3012  0.6176
 1397TIP3    H225607   2.866   6.114   2.615 -1.4967 -1.5851  1.0432
 1398TIP3   OH225608   4.545   1.738   5.725 -0.4118 -0.0454 -0.4026
 1398TIP3    H125609   4.490   1.709   5.797  1.3530 -1.9712  0.2314
 1398TIP3    H225610   4.547   1.834   5.732 -0.0830 -0.2270  2.2385
 1399TIP3   OH225611   6.215   3.792   0.410  0.2965  0.1389 -0.0993
 1399TIP3    H125612   6.174   3.773   0.495 -0.0457 -0.4256 -0.3869
 1399TIP3    H225613   6.243   3.883   0.417 -0.6304  0.4069  0.2658
 1400TIP3   OH225614   6.101   2.895  15.552  0.5498  0.4670  0.0067
 1400TIP3    H125615   6.112   2.949  15.630  1.7522 -0.0142  0.1773
 1400TIP3    H225616   6.190   2.880  15.521  0.1547 -0.5576 -0.6331
 1401TIP3   OH225617   2.946   1.049  15.783  0.7686 -0.1472 -0.6625
 1401TIP3    H125618   2.975   1.140  15.785  1.5999 -0.4169 -0.6296
 1401TIP3    H225619   2.949   1.020  15.875 -0.3851  0.0673 -0.5433
 1402TIP3   OH225620   2.753   4.065   4.582  0.1481  0.4755  0.3629
 1402TIP3    H125621   2.776   3.987   4.632  0.3995  0.4760  0.2517
 1402TIP3    H225622   2.675   4.040   4.532  1.1135 -0.2028 -0.8341
 1403TIP3   OH225623   4.670   4.559   5.043 -0.5567  0.1479 -0.7142
 1403TIP3    H125624   4.670   4.467   5.019  0.6064 -0.1084  0.2487
 1403TIP3    H225625   4.760   4.578   5.068 -0.8054  1.5212 -0.7814
 1404TIP3   OH225626   1.486   4.820  13.748 -0.0544 -0.3781 -0.6584
 1404TIP3    H125627   1.488   4.725  13.756 -0.5444 -0.4621 -1.4766
 1404TIP3    H225628   1.397   4.840  13.718 -0.1770  0.3935  0.2155
 1405TIP3   OH225629   3.667   5.594  15.717  0.3083 -0.3686 -0.4200
 1405TIP3    H125630   3.715   5.584  15.799 -2.3140 -0.8921  1.1075
 1405TIP3    H225631   3.622   5.678  15.726  0.7934  0.0721 -1.8020
 1406TIP3   OH225632   3.346   5.157   1.916 -0.2705 -0.1388 -0.4915
 1406TIP3    H125633   3.373   5.245   1.887 -0.0395 -0.5167 -1.4429
 1406TIP3    H225634   3.420   5.101   1.892 -1.0997 -0.8660 -1.3743
 1407TIP3   OH225635   2.235   2.811  14.531  0.1008 -0.2510  0.7351
 1407TIP3    H125636   2.153   2.821  14.482  0.3643 -2.5336 -0.2733
 1407TIP3    H225637   2.262   2.720  14.513  1.7761 -0.1758  2.7070
 1408TIP3   OH225638   0.788   6.556   2.535  0.5263  0.1374  0.5506
 1408TIP3    H125639   0.827   6.602   2.610  0.9028  1.4976 -0.4572
 1408TIP3    H225640   0.813   6.609   2.459  1.0539 -1.8072 -0.6568
 1409TIP3   OH225641   3.104   0.143  12.398 -0.2184 -0.1646 -0.7618
 1409TIP3    H125642   3.057   0.214  12.355 -0.5252  0.7967  1.0913
 1409TIP3    H225643   3.088   0.157  12.491  3.4193 -0.0196 -0.0788
 1410TIP3   OH225644   5.305   1.512  14.307 -0.1885  0.5121 -0.0362
 1410TIP3    H125645   5.368   1.543  14.242  0.5004 -3.8816 -1.6971
 1410TIP3    H225646   5.342   1.429  14.338 -2.8494  0.1906  2.5084
 1411TIP3   OH225647   5.306   2.511  14.483 -0.2391  0.5204 -0.2168
 1411TIP3    H125648   5.299   2.605  14.498  1.1839  0.6362 -0.1557
 1411TIP3    H225649   5.272   2.471  14.563  2.0787  1.0495  1.0678
 1412TIP3   OH225650   1.744   0.936   1.897 -0.0532  0.2623  0.3574
 1412TIP3    H125651   1.819   0.888   1.863  0.4018  0.2739  1.3139
 1412TIP3    H225652   1.707   0.980   1.821  0.5771 -0.1969 -0.2218
 1413TIP3   OH225653   3.789   4.014  13.505  0.1854  0.2215 -0.6557
 1413TIP3    H125654   3.735   4.092  13.517  2.6387  2.0859 -1.2784
 1413TIP3    H225655   3.797   4.004  13.410 -0.7647 -1.2653 -0.5841
 1414TIP3   OH225656   5.558   2.721   2.955 -0.0813  0.3837 -0.3480
 1414TIP3    H125657   5.545   2.629   2.931 -1.6341  0.7907 -1.1291
 1414TIP3    H225658   5.504   2.732   3.034  1.4047  0.2167  0.7085
 1415TIP3   OH225659   0.434   5.962   1.021 -0.1950 -0.6247 -0.3007
 1415TIP3    H125660   0.436   5.892   0.955 -0.0673 -2.2744  1.4266
 1415TIP3    H225661   0.525   5.991   1.029 -0.0180 -1.2841  0.0626
 1416TIP3   OH225662   5.666   5.829   3.837  0.2864  0.3523 -0.3550
 1416TIP3    H125663   5.658   5.809   3.930  1.0443 -0.3009 -0.4261
 1416TIP3    H225664   5.581   5.805   3.800 -0.4506  1.7807  0.3718
 1417TIP3   OH225665   1.794   4.489  11.993 -0.7237 -0.5765 -0.7205
 1417TIP3    H125666   1.826   4.450  11.911 -0.8358  0.5953 -1.3259
 1417TIP3    H225667   1.848   4.449  12.061  2.0336  1.3334 -1.7142
 1418TIP3   OH225668   5.234   6.695   4.710 -0.2509  0.9383  0.6864
 1418TIP3    H125669   5.299   6.648   4.658 -2.0899  0.5810 -1.3691
 1418TIP3    H225670   5.282   6.728   4.786  1.6680 -1.8709  0.7336
 1419TIP3   OH225671   1.985   5.036   3.378  0.6222 -0.5323  0.0518
 1419TIP3    H125672   1.986   5.103   3.445 -0.9701 -0.7409  0.2960
 1419TIP3    H225673   2.075   5.035   3.344  1.1656  0.3060  1.4231
 1420TIP3   OH225674   4.209   0.948   1.197  0.3555 -0.2150 -0.1472
 1420TIP3    H125675   4.275   1.018   1.200  0.7580 -0.6124  1.0081
 1420TIP3    H225676   4.224   0.899   1.278  1.3278 -2.7738 -1.8345
 1421TIP3   OH225677   4.160   6.054   0.490 -0.3705  0.3958  0.4296
 1421TIP3    H125678   4.191   6.114   0.422  5.0638 -0.0038  2.3475
 1421TIP3    H225679   4.167   6.104   0.571  0.8386 -1.6664  1.6210
 1422TIP3   OH225680   3.992   2.630   4.188  0.2834  0.2564  1.0292
 1422TIP3    H125681   4.036   2.547   4.206  2.6386  1.4594  0.8853
 1422TIP3    H225682   3.977   2.629   4.093 -0.0011 -0.1356  1.0743
 1423TIP3   OH225683   3.173   2.227  12.301 -0.5483 -0.4605  0.0619
 1423TIP3    H125684   3.252   2.273  12.275 -0.6673  0.0449  0.5703
 1423TIP3    H225685   3.102   2.270  12.253 -0.4666 -1.2075 -0.7416
 1424TIP3   OH225686   3.774   6.055   3.267 -0.2844 -0.0066 -0.1669
 1424TIP3    H125687   3.701   6.067   3.328  2.1320  1.8007  2.5017
 1424TIP3    H225688   3.775   6.135   3.215  1.1417  0.9921  1.3521
 1425TIP3   OH225689   1.964   0.926  12.642 -0.0883 -0.4513 -0.0029
 1425TIP3    H125690   2.036   0.883  12.596  0.2486 -1.3828  1.3500
 1425TIP3    H225691   1.896   0.860  12.648  0.7999 -1.1835  2.9394
 1426TIP3   OH225692   5.785   1.393  12.642 -0.3928 -0.6545 -0.0645
 1426TIP3    H125693   5.822   1.451  12.708  0.1539 -0.5958 -0.4220
 1426TIP3    H225694   5.691   1.413  12.641 -0.1700  0.3675 -0.3393
 1427TIP3   OH225695   5.654   3.253  16.551  0.1077  0.4802  0.0350
 1427TIP3    H125696   5.664   3.178  16.493 -0.6965 -0.1215  0.6655
 1427TIP3    H225697   5.712   3.320  16.514  0.8571 -0.4607 -0.5021
 1428TIP3   OH225698   1.348   4.193  12.548  0.3047 -0.1062  0.3078
 1428TIP3    H125699   1.354   4.168  12.456 -1.2157 -0.1521  0.2055
 1428TIP3    H225700   1.412   4.138  12.593  0.0178 -1.1172 -0.5150
 1429TIP3   OH225701   6.753   3.152   0.630  0.1024  0.7441  0.7857
 1429TIP3    H125702   6.659   3.165   0.628  0.0657  0.3257 -1.2959
 1429TIP3    H225703   6.766   3.081   0.693 -1.1692 -0.6150 -0.4486
 1430TIP3   OH225704   0.994   5.640   4.243 -0.1726 -0.0668  0.5494
 1430TIP3    H125705   0.993   5.547   4.269  0.4851  0.1672  1.4524
 1430TIP3    H225706   0.978   5.639   4.149 -0.5748 -1.0783  0.6226
 1431TIP3   OH225707   5.425   5.899  13.920 -0.1877  0.1704  0.1434
 1431TIP3    H125708   5.467   5.905  14.006 -0.1775  1.6375  0.0536
 1431TIP3    H225709   5.334   5.923  13.936 -0.3784 -0.3788 -0.1137
 1432TIP3   OH225710   6.572   6.244   0.249 -0.2300 -0.4118  0.2939
 1432TIP3    H125711   6.502   6.283   0.197 -0.8142 -0.3886  1.0863
 1432TIP3    H225712   6.641   6.225   0.186 -0.0367  1.6693 -0.1509
 1433TIP3   OH225713   3.136   5.636  11.093 -0.1898  0.1763 -0.3081
 1433TIP3    H125714   3.156   5.563  11.034 -2.3040 -0.4281 -0.3467
 1433TIP3    H225715   3.204   5.632  11.161 -0.0520 -1.6079 -0.5293
 1434TIP3   OH225716   6.710   4.299   1.263  0.2024 -0.1819  0.0307
 1434TIP3    H125717   6.781   4.285   1.200  0.0228 -1.5090  0.1220
 1434TIP3    H225718   6.648   4.355   1.217 -0.1486 -1.5260 -1.1433
 1435TIP3   OH225719   2.433   4.224  13.283  0.4864  0.3781  0.0832
 1435TIP3    H125720   2.482   4.143  13.272 -0.2499 -0.3144  1.7588
 1435TIP3    H225721   2.415   4.254  13.193  0.2456 -1.6196 -0.5503
 1436TIP3   OH225722   3.475   0.244   4.879 -0.6520 -0.0338 -0.7845
 1436TIP3    H125723   3.434   0.251   4.793  1.5513 -0.7274 -1.9295
 1436TIP3    H225724   3.569   0.233   4.860 -0.3351 -1.9559  1.6598
 1437TIP3   OH225725   6.170   0.678   5.593  0.7649  0.1985 -0.6979
 1437TIP3    H125726   6.141   0.747   5.532 -2.9276  0.1433  0.8605
 1437TIP3    H225727   6.160   0.597   5.543 -0.8450  0.2812 -0.5369
 1438TIP3   OH225728   2.908   3.577  13.424  0.2656 -0.0731  0.4698
 1438TIP3    H125729   2.850   3.639  13.468 -1.0746 -0.9572 -0.0390
 1438TIP3    H225730   2.856   3.497  13.415  1.5902 -0.9057  0.0948
 1439TIP3   OH225731   3.491   2.891   3.563 -0.1807  0.2727 -0.1588
 1439TIP3    H125732   3.424   2.960   3.563 -2.2704 -1.5934 -3.3787
 1439TIP3    H225733   3.565   2.931   3.517 -0.2888  1.3134  0.5511
 1440TIP3   OH225734   2.196   4.205  11.767  0.1103 -0.1478  0.2169
 1440TIP3    H125735   2.175   4.204  11.673 -1.1938 -1.0135  0.5024
 1440TIP3    H225736   2.132   4.265  11.804  1.3610  1.0928  0.4027
 1441TIP3   OH225737   4.651   5.813  15.862  0.2794  0.2662 -0.6976
 1441TIP3    H125738   4.692   5.745  15.807  1.2719  2.4984 -2.7930
 1441TIP3    H225739   4.571   5.837  15.816 -1.6048 -1.4495  1.5244
 1442TIP3   OH225740   4.143   2.675   0.916 -0.4339 -0.1321 -0.5451
 1442TIP3    H125741   4.160   2.661   0.823  0.6122 -0.3894 -0.3200
 1442TIP3    H225742   4.153   2.589   0.956 -1.8037 -0.1976 -0.3209
 1443TIP3   OH225743   4.212   1.536  13.644 -0.5516 -0.4865  0.0712
 1443TIP3    H125744   4.279   1.487  13.692 -0.6622 -1.5230 -0.8331
 1443TIP3    H225745   4.251   1.623  13.632  0.2056 -0.7617  0.4823
 1444TIP3   OH225746   4.985   5.132   3.692 -0.0853  0.0110 -0.1352
 1444TIP3    H125747   4.960   5.046   3.724  0.1571 -0.3757 -0.9728
 1444TIP3    H225748   4.933   5.144   3.612  0.6362  0.2008 -0.5841
 1445TIP3   OH225749   1.658   4.316   6.022  0.1106  0.4276 -0.0932
 1445TIP3    H125750   1.722   4.383   5.997 -0.9596  0.9076 -1.7025
 1445TIP3    H225751   1.670   4.304   6.116  2.1519  0.9219 -0.2636
 1446TIP3   OH225752   3.131   2.415   2.243 -0.0695 -0.0887 -0.2440
 1446TIP3    H125753   3.064   2.415   2.312  0.6345 -1.7803  0.4655
 1446TIP3    H225754   3.204   2.365   2.281  1.1007  0.6700 -1.4775
 1447TIP3   OH225755   6.041   6.569   5.085  0.0439 -0.2546 -0.3608
 1447TIP3    H125756   6.057   6.556   5.179  0.4345  0.1330 -0.3708
 1447TIP3    H225757   5.960   6.522   5.068 -0.6594  0.6520  0.4153
 1448TIP3   OH225758   3.360   5.630   4.049 -0.2672 -0.8234 -0.4409
 1448TIP3    H125759   3.300   5.658   4.118  1.9352 -1.1925  1.6792
 1448TIP3    H225760   3.388   5.542   4.075  0.1081 -1.2160 -2.1311
 1449TIP3   OH225761   2.644   3.965   4.229  0.1687  0.1287  0.0150
 1449TIP3    H125762   2.728   3.924   4.205  0.7506  1.5522 -0.4463
 1449TIP3    H225763   2.622   4.019   4.154 -0.0567  1.4821  1.0455
 1450TIP3   OH225764   6.580   6.142  12.089 -0.7785  0.7182  0.0765
 1450TIP3    H125765   6.582   6.185  12.004 -3.0502  1.0263  0.1433
 1450TIP3    H225766   6.672   6.123  12.109 -0.3725 -1.5382 -3.5106
 1451TIP3   OH225767   6.406   1.704  11.745  0.3921 -0.2405 -0.3834
 1451TIP3    H125768   6.489   1.746  11.721  0.2768 -0.8611 -1.8540
 1451TIP3    H225769   6.343   1.737  11.681 -0.1258 -1.1261 -0.3310
 1452TIP3   OH225770   1.209   3.393   1.667  0.0717 -0.0803  0.2510
 1452TIP3    H125771   1.302   3.404   1.689  0.2826 -1.0452 -0.1136
 1452TIP3    H225772   1.172   3.481   1.673  1.2750  0.5211 -0.8044
 1453TIP3   OH225773   5.340   3.464  12.120 -0.1661 -0.1610 -0.0015
 1453TIP3    H125774   5.436   3.470  12.118 -0.1923  0.3056  0.0878
 1453TIP3    H225775   5.317   3.482  12.211 -0.4584  1.6764 -0.4182
 1454TIP3   OH225776   2.102   3.657  16.642  0.0983  0.4037  0.3733
 1454TIP3    H125777   2.032   3.710  16.679 -0.2217  0.1010  0.2098
 1454TIP3    H225778   2.175   3.667  16.703  0.5980  2.3376 -0.5062
 1455TIP3   OH225779   5.155   2.104   0.425 -0.2408  0.1861 -0.2637
 1455TIP3    H125780   5.199   2.066   0.349 -0.3445 -0.0214 -0.2210
 1455TIP3    H225781   5.225   2.140   0.479 -0.2732  1.7849 -1.2435
 1456TIP3   OH225782   0.543   1.954  14.072  0.0337  0.1931 -0.1429
 1456TIP3    H125783   0.580   1.962  13.984 -0.7533  0.8808 -0.4230
 1456TIP3    H225784   0.606   1.998  14.129 -0.1004  0.9242 -0.5485
 1457TIP3   OH225785   4.045   5.781   0.501 -0.1398 -0.4757 -0.3783
 1457TIP3    H125786   4.081   5.869   0.506  0.8066 -0.8993  0.5479
 1457TIP3    H225787   4.106   5.733   0.446  0.1693 -0.9316  0.3482
 1458TIP3   OH225788   6.304   2.122   2.600  0.0102 -0.3653 -0.2410
 1458TIP3    H125789   6.235   2.167   2.550 -0.8959 -0.1199  1.1879
 1458TIP3    H225790   6.303   2.166   2.685  0.8739 -1.4109  0.3124
 1459TIP3   OH225791   2.272   3.332   3.849 -0.0282 -0.5141 -0.7212
 1459TIP3    H125792   2.217   3.396   3.895 -0.1899 -2.6841  2.2700
 1459TIP3    H225793   2.362   3.362   3.867 -0.1189 -0.6816  0.0534
 1460TIP3   OH225794   6.566   6.516   2.517 -0.0901 -0.3130 -0.2908
 1460TIP3    H125795   6.541   6.518   2.425 -1.1442  1.2966  0.0029
 1460TIP3    H225796   6.622   6.593   2.529 -0.6105 -0.0606  0.5805
 1461TIP3   OH225797   0.360   4.005  13.213  0.3635  0.3486 -0.4274
 1461TIP3    H125798   0.388   3.924  13.256 -1.6203 -0.5092 -0.7084
 1461TIP3    H225799   0.320   4.056  13.284 -3.4037 -1.2945 -1.2433
 1462TIP3   OH225800   6.341   6.585  14.983 -0.0263 -0.3407 -0.1378
 1462TIP3    H125801   6.308   6.498  14.963  1.8171 -0.8928 -0.9304
 1462TIP3    H225802   6.399   6.572  15.058  0.3146  0.1734 -0.3112
 1463TIP3   OH225803   5.230   5.453  11.659  0.3301  0.0217  0.3060
 1463TIP3    H125804   5.254   5.392  11.589  2.0970 -0.0114  0.9196
 1463TIP3    H225805   5.136   5.438  11.673 -0.2354  0.5772 -2.5760
 1464TIP3   OH225806   0.831   3.452  12.099 -0.1057 -0.5979  0.2533
 1464TIP3    H125807   0.915   3.451  12.053  0.1695  1.1689  0.6973
 1464TIP3    H225808   0.842   3.388  12.169  0.2187 -1.7418 -0.8234
 1465TIP3   OH225809   5.756   1.484  10.846  0.6685 -0.3720 -0.3964
 1465TIP3    H125810   5.752   1.389  10.838  1.2739 -0.3431 -1.2161
 1465TIP3    H225811   5.676   1.515  10.804  0.9485 -0.4904 -1.0382
 1466TIP3   OH225812   0.376   0.352   2.015 -0.6770 -0.6830  0.3088
 1466TIP3    H125813   0.454   0.378   1.967 -0.8561  0.0375  0.3964
 1466TIP3    H225814   0.350   0.431   2.064  0.7623 -2.0304  3.3430
 1467TIP3   OH225815   3.047   6.282   0.854  0.2119  0.1316 -0.3116
 1467TIP3    H125816   3.132   6.324   0.838  0.2199 -0.2123 -1.1635
 1467TIP3    H225817   3.058   6.192   0.824 -0.2233 -0.1281  0.2863
 1468TIP3   OH225818   4.570   5.258  16.307 -0.4953  0.0593  0.1163
 1468TIP3    H125819   4.508   5.331  16.298  0.5182  0.7421 -1.5647
 1468TIP3    H225820   4.594   5.259  16.400 -0.4892  1.8742  0.1305
 1469TIP3   OH225821   4.915   2.840  14.633 -0.1695  0.3727 -0.0295
 1469TIP3    H125822   4.966   2.901  14.686  1.4715  0.0512 -1.2013
 1469TIP3    H225823   4.880   2.894  14.562  0.1951  0.2126 -0.3326
 1470TIP3   OH225824   2.245   0.975  15.400  0.2683 -0.2794 -0.0543
 1470TIP3    H125825   2.169   0.998  15.455 -2.0247  0.9181 -3.5426
 1470TIP3    H225826   2.242   0.879  15.394 -0.6276 -0.2869  0.3652
 1471TIP3   OH225827   1.609   4.870   4.251 -0.3493  0.1808  0.4535
 1471TIP3    H125828   1.604   4.808   4.324 -0.0238 -0.3850 -0.0001
 1471TIP3    H225829   1.519   4.902   4.242 -1.1584 -2.3288 -1.1047
 1472TIP3   OH225830   3.130   3.729   2.840  0.0281 -0.1013  0.5795
 1472TIP3    H125831   3.050   3.780   2.825  1.7878  2.4269 -0.6038
 1472TIP3    H225832   3.107   3.668   2.910 -2.5053  1.5457  1.2581
 1473TIP3   OH225833   6.345   0.724   2.681  0.3031 -0.1106  0.0845
 1473TIP3    H125834   6.259   0.708   2.719  1.7955  0.1229  3.6736
 1473TIP3    H225835   6.407   0.710   2.752  3.2631 -0.0415 -2.3614
 1474TIP3   OH225836   2.377   4.891   0.004 -0.2124  0.2068  0.3129
 1474TIP3    H125837   2.466   4.900   0.040 -1.1433  1.0067  2.4532
 1474TIP3    H225838   2.384   4.818  -0.057  2.0263  0.5303  0.1295
 1475TIP3   OH225839   3.845   3.847  12.890  0.1972  0.3441  0.4427
 1475TIP3    H125840   3.851   3.765  12.938 -0.1800  0.7694  1.2314
 1475TIP3    H225841   3.759   3.843  12.847 -0.5019  1.0048  1.7591
 1476TIP3   OH225842   6.479   6.322  12.713 -0.8420 -0.0070  0.7676
 1476TIP3    H125843   6.569   6.332  12.684 -1.6183  1.3242 -1.3494
 1476TIP3    H225844   6.470   6.228  12.731  0.9870 -0.1282  1.1101
 1477TIP3   OH225845   0.828   2.995  15.643 -0.9506  0.2063 -0.1462
 1477TIP3    H125846   0.770   2.948  15.702  0.6299 -0.9837  0.4906
 1477TIP3    H225847   0.895   2.931  15.618 -0.3244  1.3334 -1.4414
 1478TIP3   OH225848   6.649   1.549  13.975  0.2608 -0.3749  0.4730
 1478TIP3    H125849   6.663   1.454  13.974 -0.9689 -0.5800  1.0059
 1478TIP3    H225850   6.609   1.566  14.060 -1.4847  0.3143 -0.4449
 1479TIP3   OH225851   4.338   4.968   1.021 -0.7661 -0.3126 -0.2947
 1479TIP3    H125852   4.328   5.024   1.097  0.3342  0.0583 -0.4109
 1479TIP3    H225853   4.311   4.881   1.051 -1.9955  0.1773  0.0171
 1480TIP3   OH225854   3.762   2.974   3.467 -0.1282 -0.2182 -0.4970
 1480TIP3    H125855   3.797   2.890   3.436  0.8696 -0.1069  0.2883
 1480TIP3    H225856   3.839   3.022   3.496 -0.8501  0.4195  0.3743
 1481TIP3   OH225857   6.273   6.276  11.222 -0.1695  0.0958 -0.6169
 1481TIP3    H125858   6.269   6.185  11.194 -0.4202 -0.9780  2.6889
 1481TIP3    H225859   6.189   6.313  11.195 -1.9378 -1.8985  1.9046
 1482TIP3   OH225860   3.859   3.823   4.249  0.3672 -0.4900 -0.1855
 1482TIP3    H125861   3.882   3.800   4.339 -1.5124  1.0857  0.7283
 1482TIP3    H225862   3.940   3.809   4.200  1.1100 -2.4441  1.5199
 1483TIP3   OH225863   6.272   1.896  11.566  0.3412  0.0016 -0.6486
 1483TIP3    H125864   6.318   1.980  11.560  0.5348 -0.1086 -0.7103
 1483TIP3    H225865   6.209   1.897  11.494 -2.7643  1.9817  1.9401
 1484TIP3   OH225866   4.521   5.914  13.232 -0.0019 -0.1192  0.0151
 1484TIP3    H125867   4.611   5.883  13.222 -0.2657 -1.1758  0.7421
 1484TIP3    H225868   4.471   5.863  13.168 -0.0119  0.8357 -0.7491
 1485TIP3   OH225869   2.056   6.525   3.513 -0.2038 -0.1722  0.2437
 1485TIP3    H125870   2.035   6.573   3.593 -1.9379  0.5267 -0.5895
 1485TIP3    H225871   2.067   6.593   3.446  1.7788 -0.7236 -0.0081
 1486TIP3   OH225872   1.260   0.118   2.546 -0.3775  0.3122  0.2754
 1486TIP3    H125873   1.167   0.138   2.556 -0.6380 -0.7555  0.0481
 1486TIP3    H225874   1.275   0.116   2.452 -0.7229 -2.1416  0.2512
 1487TIP3   OH225875   1.206   0.562   5.619 -0.7696 -0.7850  0.0946
 1487TIP3    H125876   1.128   0.609   5.649 -0.7046 -0.8567  0.3786
 1487TIP3    H225877   1.269   0.630   5.599 -0.8617 -0.7313 -0.0148
 1488TIP3   OH225878   0.306   4.215   3.005  0.3662 -0.8832  0.4320
 1488TIP3    H125879   0.272   4.128   3.028  0.7152 -1.1305  0.0287
 1488TIP3    H225880   0.377   4.197   2.943  0.6062 -0.3197  0.5431
 1489TIP3   OH225881   0.848   4.982  13.995  0.3744  0.0589 -0.0984
 1489TIP3    H125882   0.826   4.943  13.910  1.4067 -1.1413  0.1835
 1489TIP3    H225883   0.780   5.048  14.009 -0.6217 -0.7209 -1.1924
 1490TIP3   OH225884   5.268   3.058   1.946 -0.0777 -0.0533 -0.1523
 1490TIP3    H125885   5.190   3.039   1.894 -0.8924  1.6038  0.4290
 1490TIP3    H225886   5.248   3.022   2.033  0.1225 -0.2839 -0.1994
 1491TIP3   OH225887   3.731   3.052   6.244  0.3724  0.8177  0.3341
 1491TIP3    H125888   3.726   3.094   6.158  0.7914  0.4538  0.1281
 1491TIP3    H225889   3.672   2.977   6.236  0.8407  0.4645  0.1783
 1492TIP3   OH225890   2.736   2.400   0.448 -0.0307 -0.0492  0.0036
 1492TIP3    H125891   2.788   2.404   0.367 -0.2749 -0.9076 -0.2105
 1492TIP3    H225892   2.737   2.307   0.471 -0.3175  0.1369  0.7545
 1493TIP3   OH225893   5.375   0.181   1.652 -0.3173  0.2372  0.1489
 1493TIP3    H125894   5.427   0.242   1.598  0.3180 -0.6183 -0.2147
 1493TIP3    H225895   5.290   0.178   1.609 -0.5723  1.3817  0.5485
 1494TIP3   OH225896   0.024   2.797  11.282  0.1774 -0.0968 -0.0583
 1494TIP3    H125897   0.106   2.838  11.256  0.1152  0.3545  0.4526
 1494TIP3    H225898   0.036   2.775  11.374 -0.5204  0.5878  0.2062
 1495TIP3   OH225899   2.713   3.116  14.875 -0.0616 -0.6102 -0.2549
 1495TIP3    H125900   2.772   3.178  14.919 -0.2855  0.4006 -1.3609
 1495TIP3    H225901   2.746   3.030  14.902 -0.6577 -0.0431  2.5000
 1496TIP3   OH225902   5.367   1.253  13.858  0.1840  0.0688  0.3459
 1496TIP3    H125903   5.461   1.240  13.841  0.4790 -0.0380  1.9897
 1496TIP3    H225904   5.332   1.164  13.868  0.3601  0.1624  1.9868
 1497TIP3   OH225905   2.422   1.645   6.071  0.1776  0.3881 -0.6027
 1497TIP3    H125906   2.425   1.674   5.980  0.8220 -1.4161 -1.1724
 1497TIP3    H225907   2.329   1.627   6.087  0.1453  0.1290 -1.0827
 1498TIP3   OH225908   6.662   0.566  10.263 -0.2960 -0.6328  0.5536
 1498TIP3    H125909   6.601   0.620  10.213 -1.4298 -2.5516 -0.1715
 1498TIP3    H225910   6.620   0.557  10.349  1.0380  1.5757  1.5016
 1499TIP3   OH225911   5.293   6.548  13.611 -0.2025 -0.8825 -0.0105
 1499TIP3    H125912   5.342   6.496  13.548  1.1756  2.0174 -1.4271
 1499TIP3    H225913   5.297   6.638  13.577  0.7158  0.8377  4.2421
 1500TIP3   OH225914   6.376   0.177  16.201  0.4494  0.2288 -0.6376
 1500TIP3    H125915   6.293   0.155  16.160 -1.7499  2.1615  2.5692
 1500TIP3    H225916   6.400   0.261  16.163  0.4904  0.0812 -0.9354
 1501TIP3   OH225917   1.084   1.177  12.985 -0.0184 -0.1361  0.4729
 1501TIP3    H125918   1.179   1.176  12.973 -0.0812  0.6040 -0.1016
 1501TIP3    H225919   1.058   1.084  12.979  0.5387 -0.2376 -0.4463
 1502TIP3   OH225920   0.219   3.381  15.067  0.1787 -0.7374  0.0569
 1502TIP3    H125921   0.167   3.449  15.024  2.5053  0.6673 -0.6240
 1502TIP3    H225922   0.162   3.347  15.136 -1.1629  1.6443  0.1753
 1503TIP3   OH225923   6.014   1.733   2.294 -0.6403 -0.6900  0.0089
 1503TIP3    H125924   6.076   1.700   2.230 -2.5419  1.0411 -2.8485
 1503TIP3    H225925   6.018   1.829   2.285 -2.8084 -0.5105  0.6250
 1504TIP3   OH225926   4.595   2.843   0.861  0.7225 -0.5884 -0.2294
 1504TIP3    H125927   4.655   2.830   0.788  2.8329  0.0069  1.3528
 1504TIP3    H225928   4.608   2.766   0.916 -0.6847 -0.9216 -0.3535
 1505TIP3   OH225929   1.482   1.246  11.537  0.7781  0.0617 -0.1270
 1505TIP3    H125930   1.570   1.257  11.574  0.7187  2.5624 -0.6349
 1505TIP3    H225931   1.484   1.296  11.456  0.2321 -3.6146 -2.5268
 1506TIP3   OH225932   1.763   4.256  12.813 -0.6612  0.3985  0.0218
 1506TIP3    H125933   1.826   4.323  12.840 -0.8544  1.2287 -1.5096
 1506TIP3    H225934   1.685   4.306  12.788 -0.2136 -0.2521 -2.8236
 1507TIP3   OH225935   3.224   2.670   5.051  0.4161  0.1810  0.4647
 1507TIP3    H125936   3.222   2.726   5.129 -1.1001  0.5146  0.2127
 1507TIP3    H225937   3.133   2.643   5.040  0.9830 -1.5879  0.0257
 1508TIP3   OH225938   2.374   1.584  10.914  0.1984  0.2596 -0.3663
 1508TIP3    H125939   2.441   1.531  10.872  0.8170 -0.9445  2.0521
 1508TIP3    H225940   2.421   1.634  10.980 -1.0336  0.6791  0.2132
 1509TIP3   OH225941   3.512   4.431   2.096  0.4425 -0.6963  0.5537
 1509TIP3    H125942   3.604   4.455   2.108  0.0176  2.0632 -1.1753
 1509TIP3    H225943   3.511   4.383   2.013  0.2048  0.0502  0.1235
 1510TIP3   OH225944   1.200   2.229   2.568  0.2551 -0.1512 -0.6055
 1510TIP3    H125945   1.119   2.232   2.518 -0.3914  1.4966  0.5290
 1510TIP3    H225946   1.173   2.210   2.657  1.1472  0.2484 -0.2439
 1511TIP3   OH225947   4.907   5.232   5.434  0.0994 -0.3432 -0.2646
 1511TIP3    H125948   4.817   5.257   5.457 -0.2839 -0.7875 -1.2564
 1511TIP3    H225949   4.961   5.276   5.500 -0.7806  0.6187 -0.1687
 1512TIP3   OH225950   0.616   5.585  16.615 -0.0310  0.0204  0.1087
 1512TIP3    H125951   0.587   5.532  16.690 -0.6951  1.2758  0.7684
 1512TIP3    H225952   0.570   5.548  16.540 -0.8565 -0.0563  0.6388
 1513TIP3   OH225953   4.955   1.845  15.559 -0.5154  0.0636 -0.3685
 1513TIP3    H125954   5.000   1.897  15.626  0.2933 -1.1889  0.0775
 1513TIP3    H225955   5.024   1.794  15.517 -1.1883 -0.0429 -1.3554
 1514TIP3   OH225956   2.226   2.324   2.286 -0.1561 -0.1756  0.4805
 1514TIP3    H125957   2.148   2.360   2.330 -0.7268  0.1304 -0.7630
 1514TIP3    H225958   2.280   2.292   2.358 -0.1250  2.1933  1.5821
 1515TIP3   OH225959   2.144   1.243   1.579  0.5187  0.2796  0.4388
 1515TIP3    H125960   2.236   1.250   1.602  1.0515  1.7309 -1.9230
 1515TIP3    H225961   2.113   1.333   1.575 -0.4543 -0.0812 -0.7499
 1516TIP3   OH225962   1.958   1.575   4.814  0.3813 -0.2778  0.2710
 1516TIP3    H125963   2.009   1.596   4.892  0.1363  1.1140  0.0753
 1516TIP3    H225964   1.868   1.598   4.839  0.0229 -1.5952  0.2111
 1517TIP3   OH225965   1.540   1.217   4.909  0.1020  0.0742  0.3004
 1517TIP3    H125966   1.487   1.146   4.875  1.1431 -0.0170 -1.2003
 1517TIP3    H225967   1.477   1.279   4.946 -0.9637 -0.5317 -0.4768
 1518TIP3   OH225968   4.764   6.210  11.742 -0.0766 -0.0628 -0.2393
 1518TIP3    H125969   4.756   6.259  11.824  3.1538 -3.7387  2.4968
 1518TIP3    H225970   4.688   6.152  11.740 -0.2304  0.1262  0.1439
 1519TIP3   OH225971   5.850   1.052  13.216  0.3116  0.3154 -0.0028
 1519TIP3    H125972   5.907   1.062  13.292 -1.3681  2.5942  1.0134
 1519TIP3    H225973   5.893   1.102  13.146 -0.2256  1.7262  0.6589
 1520TIP3   OH225974   6.441   5.282  12.494  0.5524 -0.2970  0.1569
 1520TIP3    H125975   6.346   5.284  12.501  0.4633 -1.1352 -0.6909
 1520TIP3    H225976   6.464   5.191  12.511  1.0708 -0.4218 -1.1706
 1521TIP3   OH225977   2.746   4.351  11.681  0.5982  0.1931  0.0925
 1521TIP3    H125978   2.657   4.349  11.646  0.6788 -0.8617 -0.0808
 1521TIP3    H225979   2.740   4.404  11.760  0.0197  0.9729 -0.4686
 1522TIP3   OH225980   0.549   3.099   5.130 -0.3652  0.2566 -0.5263
 1522TIP3    H125981   0.547   3.194   5.138  1.1827  0.2377  0.1431
 1522TIP3    H225982   0.538   3.082   5.036  3.6023  1.2544 -1.2547
 1523TIP3   OH225983   4.082   1.264  13.814  0.0747 -0.4939  0.4897
 1523TIP3    H125984   4.162   1.227  13.778 -0.2307  1.0770 -1.8750
 1523TIP3    H225985   4.081   1.354  13.784 -2.3245 -0.3310  0.9444
 1524TIP3   OH225986   2.242   2.424   3.628  0.2032 -0.2810 -0.4292
 1524TIP3    H125987   2.197   2.495   3.583 -0.3184 -0.7692 -0.6888
 1524TIP3    H225988   2.290   2.467   3.699 -0.2976  0.2999 -0.4323
 1525TIP3   OH225989   1.816   3.343  15.290  0.4254  0.5116  0.3709
 1525TIP3    H125990   1.787   3.258  15.257 -0.8346  1.5197 -1.1731
 1525TIP3    H225991   1.842   3.326  15.380  1.3097 -1.7461 -0.2668
 1526TIP3   OH225992   0.006   5.664  15.736  0.2791  0.2677 -0.9390
 1526TIP3    H125993  -0.005   5.707  15.651 -1.5620 -0.6595 -1.1795
 1526TIP3    H225994   0.087   5.614  15.727  1.8158  2.6666 -1.0602
 1527TIP3   OH225995   0.460   5.384   1.760  0.0980  0.1357  0.1375
 1527TIP3    H125996   0.510   5.339   1.827 -2.6675  0.2779  2.3828
 1527TIP3    H225997   0.400   5.317   1.725 -1.0303  0.9571  0.4535
 1528TIP3   OH225998   3.670   5.787  11.304  0.1006 -0.0275  0.5540
 1528TIP3    H125999   3.756   5.827  11.318  0.1984 -0.9750  2.9172
 1528TIP3    H226000   3.686   5.693  11.312 -0.8091 -0.3524 -1.1184
 1529TIP3   OH226001   2.349   3.327   6.434 -0.0718 -0.3588 -0.2998
 1529TIP3    H126002   2.300   3.327   6.516  2.0992 -0.5522  1.0488
 1529TIP3    H226003   2.317   3.251   6.386 -1.3212 -0.2837  0.4033
 1530TIP3   OH226004   3.936   5.584  12.532 -0.1625 -0.1987  0.3213
 1530TIP3    H126005   4.008   5.566  12.593  1.0711 -0.0197 -1.0461
 1530TIP3    H226006   3.887   5.655  12.573  0.3833 -0.3869  1.3206
 1531TIP3   OH226007   1.063   2.399  15.440 -0.0389  0.2437 -0.5720
 1531TIP3    H126008   1.037   2.321  15.489 -1.5000  0.7086 -0.5859
 1531TIP3    H226009   1.144   2.373  15.395  0.7319 -0.5310  1.2029
 1532TIP3   OH226010   4.081   3.286   5.894 -0.1817  0.2910 -0.1589
 1532TIP3    H126011   4.119   3.306   5.979  0.3561  1.0647 -0.5744
 1532TIP3    H226012   4.047   3.197   5.903 -2.3706  1.2518  1.6696
 1533TIP3   OH226013   1.001   5.747  11.145  0.4840  0.0194 -0.1894
 1533TIP3    H126014   1.000   5.768  11.052  2.1508  0.7181 -0.0656
 1533TIP3    H226015   0.935   5.678  11.155 -0.5568  0.7822 -1.6742
 1534TIP3   OH226016   4.263   1.442  15.731 -0.9030  0.2081  0.0872
 1534TIP3    H126017   4.280   1.354  15.763  0.8780 -0.2807 -2.1106
 1534TIP3    H226018   4.266   1.497  15.809 -1.0061 -1.5233  1.3257
 1535TIP3   OH226019   6.757   5.447  11.381 -0.0567 -0.4392 -0.6185
 1535TIP3    H126020   6.774   5.519  11.321  1.7046  0.4213  0.8661
 1535TIP3    H226021   6.842   5.405  11.393 -0.9809 -2.5312 -1.1495
 1536TIP3   OH226022   2.750   2.911   1.364 -0.7416 -0.2688  0.3207
 1536TIP3    H126023   2.721   2.978   1.302  1.9859  1.0761  0.4386
 1536TIP3    H226024   2.800   2.960   1.430 -0.0368 -2.2232  1.2649
 1537TIP3   OH226025   5.679   6.441  14.051  0.3209  0.2435 -0.1444
 1537TIP3    H126026   5.644   6.528  14.035 -1.8208 -0.3606  1.0153
 1537TIP3    H226027   5.662   6.392  13.970  0.8027  0.6796 -0.5071
 1538TIP3   OH226028   4.507   2.861   5.355  0.4109  0.1527  0.2638
 1538TIP3    H126029   4.473   2.897   5.437  1.0784 -0.6982  0.9180
 1538TIP3    H226030   4.499   2.933   5.293 -0.7366  0.5912  0.9007
 1539TIP3   OH226031   0.399   2.453   2.884 -0.2348 -0.2677  0.6989
 1539TIP3    H126032   0.447   2.370   2.882 -0.1766 -0.2400  0.9456
 1539TIP3    H226033   0.432   2.498   2.962  1.2134  0.8505 -0.5222
 1540TIP3   OH226034   1.112   3.973  12.626  0.3257  1.1859 -0.5169
 1540TIP3    H126035   1.130   3.892  12.577  0.9358  1.6563 -1.0759
 1540TIP3    H226036   1.078   4.033  12.560  0.4590  1.5933 -0.2123
 1541TIP3   OH226037   3.696   2.870  16.602  0.0863  0.3412 -0.2016
 1541TIP3    H126038   3.670   2.874  16.510  0.7992 -0.4954 -0.4487
 1541TIP3    H226039   3.715   2.961  16.626  1.2129  0.3997 -1.2759
 1542TIP3   OH226040   2.014   0.563   4.943  0.1157 -0.0612  0.5321
 1542TIP3    H126041   2.024   0.537   5.034  0.5590  2.5628  1.2720
 1542TIP3    H226042   2.096   0.607   4.921 -0.3617  0.1671 -0.8574
 1543TIP3   OH226043   5.114   1.538   2.946 -0.5708  0.2853  0.0568
 1543TIP3    H126044   5.050   1.471   2.924  1.7445 -1.7722 -0.7225
 1543TIP3    H226045   5.122   1.535   3.041 -0.0236 -1.0415 -0.0162
 1544TIP3   OH226046   3.420   1.348  12.954 -0.4630  0.0788 -0.1072
 1544TIP3    H126047   3.458   1.350  12.866  0.2081 -0.3538  0.1677
 1544TIP3    H226048   3.495   1.353  13.013 -0.8232 -0.7291  0.4447
 1545TIP3   OH226049   5.456   4.033   4.996  0.2123  0.0987  0.3405
 1545TIP3    H126050   5.466   3.938   4.994  0.2003 -0.0342  3.2116
 1545TIP3    H226051   5.364   4.046   5.020  0.0275  0.8354 -0.7723
 1546TIP3   OH226052   3.130   6.250  14.669  0.0270  0.0687  0.2415
 1546TIP3    H126053   3.156   6.285  14.584 -0.5098  2.2175  0.9149
 1546TIP3    H226054   3.174   6.307  14.732 -1.2152 -0.2359  1.4013
 1547TIP3   OH226055   1.900   0.821   3.254 -0.1101  0.5662 -0.0268
 1547TIP3    H126056   1.814   0.863   3.244 -0.2733  0.0398 -0.8618
 1547TIP3    H226057   1.962   0.894   3.255 -0.4630  0.8826 -0.6389
 1548TIP3   OH226058   6.456   5.169  16.069 -0.1480 -0.2462  0.0228
 1548TIP3    H126059   6.473   5.260  16.046  0.7496 -0.7485 -1.3822
 1548TIP3    H226060   6.517   5.149  16.140  0.8051 -0.2288 -0.7888
 1549TIP3   OH226061   2.374   2.951   1.422 -0.1070 -0.2052  0.1280
 1549TIP3    H126062   2.333   2.933   1.506  1.5928 -0.2045  0.9913
 1549TIP3    H226063   2.356   3.044   1.405 -1.2860 -0.4509  0.0007
 1550TIP3   OH226064   6.468   4.295   4.038 -0.1453 -0.2202  0.6916
 1550TIP3    H126065   6.476   4.214   3.987  1.0735 -0.9732  2.0266
 1550TIP3    H226066   6.558   4.324   4.049 -0.6467  1.9963 -0.7884
 1551TIP3   OH226067   4.546   0.933  16.895 -0.5011  0.7635  0.1186
 1551TIP3    H126068   4.501   0.983  16.963 -0.6359  0.4497  0.2641
 1551TIP3    H226069   4.583   0.999  16.837  2.4005  1.1482  2.2570
 1552TIP3   OH226070   3.988   5.783   4.619 -0.1867 -0.3140  0.1572
 1552TIP3    H126071   4.056   5.839   4.657 -0.8566  1.5121 -1.2988
 1552TIP3    H226072   3.945   5.744   4.695  1.5652 -0.4211  1.1384
 1553TIP3   OH226073   5.612   0.040   2.323 -0.0176 -0.4980  0.0469
 1553TIP3    H126074   5.653   0.115   2.365  1.0802 -0.2307 -1.4875
 1553TIP3    H226075   5.660  -0.036   2.356 -0.3797 -0.4470  0.7052
 1554TIP3   OH226076   4.273   3.717   4.558 -0.8644 -0.6532  0.5371
 1554TIP3    H126077   4.291   3.701   4.465 -0.4096 -1.5148  0.7703
 1554TIP3    H226078   4.223   3.641   4.586 -1.6997 -0.0087  0.8067
 1555TIP3   OH226079   3.204   3.554  12.351  0.2545  0.4588  0.2354
 1555TIP3    H126080   3.152   3.634  12.361  0.8743  0.6826  1.8053
 1555TIP3    H226081   3.150   3.496  12.298  0.0859  2.1861 -1.5279
 1556TIP3   OH226082   2.071   3.002   4.476  0.1171  1.1606  0.5653
 1556TIP3    H126083   2.162   2.972   4.477  0.2744  1.6349  0.8287
 1556TIP3    H226084   2.077   3.094   4.501 -0.3593  1.4076 -0.2096
 1557TIP3   OH226085   4.449   1.507  10.929 -0.2559  1.0002 -0.2958
 1557TIP3    H126086   4.523   1.536  10.983 -2.1957  1.7138  2.0633
 1557TIP3    H226087   4.448   1.412  10.938 -0.7860  1.1435  1.2469
 1558TIP3   OH226088   5.414   5.562  14.307  0.4899  0.2027  0.1665
 1558TIP3    H126089   5.349   5.602  14.364  1.5250  1.0999  0.7514
 1558TIP3    H226090   5.391   5.591  14.219  1.4840  2.4691  0.6342
 1559TIP3   OH226091   1.767   0.229  13.317  0.1729 -0.3304 -0.2855
 1559TIP3    H126092   1.754   0.281  13.396 -0.6421  0.6052 -1.0188
 1559TIP3    H226093   1.693   0.252  13.260  1.1072 -0.4722 -1.5865
 1560TIP3   OH226094   4.942   0.595  16.962 -0.4673  0.9402 -0.0128
 1560TIP3    H126095   4.982   0.598  17.049  1.0187  1.2081 -0.6857
 1560TIP3    H226096   4.927   0.502  16.945 -0.1148  0.8397  0.2265
 1561TIP3   OH226097   1.810   3.047   0.301  0.4357  0.5385  0.3444
 1561TIP3    H126098   1.837   2.989   0.229  2.1177 -3.7050  4.1553
 1561TIP3    H226099   1.717   3.065   0.282  0.3415 -1.9017 -1.9878
 1562TIP3   OH226100   4.809   6.408  16.820  0.4613  0.1266  0.2588
 1562TIP3    H126101   4.887   6.354  16.827  1.2343  1.1815 -0.1781
 1562TIP3    H226102   4.811   6.463  16.898  0.0342  0.0094  0.3562
 1563TIP3   OH226103   0.414   0.107   2.509  0.1182 -0.3345  0.3019
 1563TIP3    H126104   0.455   0.021   2.499  0.2641 -0.1923 -0.3188
 1563TIP3    H226105   0.400   0.138   2.419 -0.3037  0.1147  0.5188
 1564TIP3   OH226106   0.886   0.816   5.394  0.4794  0.3991 -0.9671
 1564TIP3    H126107   0.928   0.843   5.313  3.2205 -0.6451  0.0613
 1564TIP3    H226108   0.827   0.889   5.415  0.9119  1.3978 -3.0242
 1565TIP3   OH226109   4.692   2.641   4.299 -0.0923 -0.3367  0.1125
 1565TIP3    H126110   4.747   2.580   4.349  0.9656  0.8939  0.4984
 1565TIP3    H226111   4.619   2.661   4.357  3.1640  4.2560  3.0239
 1566TIP3   OH226112   5.880   4.842   4.309  0.0949 -0.5156  0.1327
 1566TIP3    H126113   5.871   4.794   4.227 -2.1147 -0.8558  0.5620
 1566TIP3    H226114   5.957   4.803   4.351  1.7302  0.2000 -2.1043
 1567TIP3   OH226115   1.808   6.486  16.648  0.8322  0.2515  0.2988
 1567TIP3    H126116   1.755   6.539  16.588 -0.6920 -0.2462  1.1757
 1567TIP3    H226117   1.868   6.549  16.688  1.4074  0.7049 -1.2356
 1568TIP3   OH226118   4.380   5.529  11.692 -0.7096 -0.1569  0.2633
 1568TIP3    H126119   4.354   5.453  11.744  1.5275 -0.3966  1.0831
 1568TIP3    H226120   4.377   5.602  11.754  4.4784 -0.8627  1.5193
 1569TIP3   OH226121   4.606   2.169  15.463 -0.4663 -0.0247 -0.6980
 1569TIP3    H126122   4.675   2.106  15.445 -1.2243 -0.8284 -0.8188
 1569TIP3    H226123   4.541   2.120  15.513 -0.3728  1.0550  0.5162
 1570TIP3   OH226124   3.846   5.283   1.773  0.2144  0.1034  0.0377
 1570TIP3    H126125   3.776   5.248   1.718  0.4731 -0.5853  0.1399
 1570TIP3    H226126   3.800   5.329   1.843 -0.1125  1.4831 -1.0605
 1571TIP3   OH226127   2.492   1.551  16.386  0.4046 -0.6366 -0.2606
 1571TIP3    H126128   2.557   1.569  16.454 -0.4761 -0.6062  0.5750
 1571TIP3    H226129   2.465   1.637  16.354 -0.1306 -0.6179  0.2486
 1572TIP3   OH226130   5.450   5.729   2.745  0.2415  0.0840  0.5732
 1572TIP3    H126131   5.439   5.718   2.650 -1.8277  1.8218  0.5555
 1572TIP3    H226132   5.474   5.642   2.777  0.0070 -0.7460 -1.4253
 1573TIP3   OH226133   2.987   5.114   2.196 -0.1539  0.0918  0.0898
 1573TIP3    H126134   3.073   5.085   2.227  0.3132  0.7856 -0.5544
 1573TIP3    H226135   3.003   5.152   2.110 -0.9829  0.9504  0.3043
 1574TIP3   OH226136   5.769   0.765   5.076  0.3220  0.3494 -0.0240
 1574TIP3    H126137   5.791   0.850   5.113  0.5675  0.6201 -0.7806
 1574TIP3    H226138   5.729   0.717   5.149 -0.6551  1.4226  0.1536
 1575TIP3   OH226139   6.177   0.108   4.706  0.5557 -0.0618  0.1333
 1575TIP3    H126140   6.240   0.043   4.737  0.3357 -0.5812 -0.5021
 1575TIP3    H226141   6.100   0.057   4.681 -0.1259  0.5787  0.9337
 1576TIP3   OH226142   6.596   1.503  15.157  0.0527 -0.0641  0.5707
 1576TIP3    H126143   6.581   1.411  15.177  0.0250  0.0410  1.0470
 1576TIP3    H226144   6.533   1.550  15.211  0.3221  0.2488  0.6180
 1577TIP3   OH226145   4.269   1.542  12.158 -0.6691 -0.0709  0.0529
 1577TIP3    H126146   4.232   1.513  12.242 -0.5306  1.7595  0.7802
 1577TIP3    H226147   4.193   1.556  12.101 -1.0318  1.8754  0.9519
 1578TIP3   OH226148   6.645   6.360  16.446 -0.3863  0.1105 -0.1518
 1578TIP3    H126149   6.688   6.415  16.512 -2.8539 -1.0110  2.4879
 1578TIP3    H226150   6.585   6.419  16.400 -0.7658  0.2985  0.5776
 1579TIP3   OH226151   0.638   2.653  14.628  0.3971  0.0466  0.1186
 1579TIP3    H126152   0.718   2.605  14.652  3.1649  2.9118 -2.7354
 1579TIP3    H226153   0.617   2.622  14.540  0.0799  1.3339 -0.2736
 1580TIP3   OH226154   1.796   1.755   2.078  0.4688  0.2949  0.2778
 1580TIP3    H126155   1.872   1.791   2.124  1.7119  0.1691 -1.6194
 1580TIP3    H226156   1.767   1.682   2.132  0.3458  1.6840  2.1376
 1581TIP3   OH226157   1.595   1.450  14.512  0.4755  0.5474  0.4364
 1581TIP3    H126158   1.545   1.430  14.591 -0.9454  0.1043 -0.5580
 1581TIP3    H226159   1.602   1.367  14.466  0.0800  1.0643 -0.5785
 1582TIP3   OH226160   6.578   6.601  10.940 -0.4667  0.4120 -0.0574
 1582TIP3    H126161   6.529   6.538  10.887  1.6861 -0.3554 -1.2066
 1582TIP3    H226162   6.590   6.676  10.883  1.4171 -0.2136 -0.5199
 1583TIP3   OH226163   6.144   6.633  16.076 -0.0659  0.0235 -0.0585
 1583TIP3    H126164   6.139   6.728  16.067 -1.9025 -0.0208  0.3353
 1583TIP3    H226165   6.155   6.617  16.169 -1.0177 -0.1659  0.0347
 1584TIP3   OH226166   6.004   3.444   4.604  0.4965  0.5803  0.1753
 1584TIP3    H126167   5.994   3.388   4.527  1.9242 -1.2658  1.2709
 1584TIP3    H226168   5.920   3.439   4.650  0.3384  0.0239 -0.1789
 1585TIP3   OH226169   3.349   1.156  16.202 -0.0384  0.4252  0.0979
 1585TIP3    H126170   3.329   1.065  16.225  2.6057 -0.1629  0.2194
 1585TIP3    H226171   3.380   1.195  16.283  1.4414  0.6504 -0.5614
 1586TIP3   OH226172   6.386   4.273   4.346  0.1898  0.1453 -0.0178
 1586TIP3    H126173   6.351   4.298   4.261  1.2732 -0.8316 -0.7753
 1586TIP3    H226174   6.476   4.245   4.328  0.3805 -0.2464  1.4181
 1587TIP3   OH226175   2.744   3.797   3.978 -0.2104  0.3423  0.4592
 1587TIP3    H126176   2.820   3.850   3.952 -1.4712  2.2982  0.6901
 1587TIP3    H226177   2.772   3.754   4.059  1.5503 -0.9796 -0.8023
 1588TIP3   OH226178   6.691   2.407   6.327 -0.3053 -0.3949 -0.2888
 1588TIP3    H126179   6.726   2.484   6.283  0.3495 -0.0386  0.8346
 1588TIP3    H226180   6.662   2.439   6.412 -0.9690 -1.1931 -0.2067
 1589TIP3   OH226181   1.570   5.837   5.785  0.3266 -0.0530 -0.0379
 1589TIP3    H126182   1.539   5.813   5.872  0.5808 -0.6713 -0.1182
 1589TIP3    H226183   1.637   5.903   5.800 -0.2012  0.4286  0.1970
 1590TIP3   OH226184   4.007   6.715   5.017  0.3632  0.0515  0.2693
 1590TIP3    H126185   4.064   6.651   5.060  1.2080  0.5358 -0.0991
 1590TIP3    H226186   4.004   6.788   5.079  0.6678  0.2889  0.0067
 1591TIP3   OH226187   5.311   3.483   5.770 -0.3623 -0.1083  0.2123
 1591TIP3    H126188   5.377   3.551   5.783  0.7290 -1.1035  0.0577
 1591TIP3    H226189   5.316   3.429   5.849 -1.8716  0.5218  0.7493
 1592TIP3   OH226190   4.261   6.699   3.606  0.0296  0.1469 -0.0204
 1592TIP3    H126191   4.166   6.688   3.602  0.0496  0.6619 -2.5336
 1592TIP3    H226192   4.286   6.660   3.690 -2.2151 -1.2734  0.0307
 1593TIP3   OH226193   5.735   4.733   0.454  0.0745  0.2376  0.1464
 1593TIP3    H126194   5.695   4.789   0.521 -0.4946  0.2566 -0.2123
 1593TIP3    H226195   5.798   4.790   0.410  0.0151  0.3944  0.2625
 1594TIP3   OH226196   2.132   5.066  16.618 -0.5750 -0.0742  0.7562
 1594TIP3    H126197   2.105   4.974  16.625  1.2167 -0.7305 -0.6855
 1594TIP3    H226198   2.217   5.069  16.662 -0.5845  0.8768  0.7066
 1595TIP3   OH226199   2.821   3.226   1.965  0.3179  0.1823  0.1840
 1595TIP3    H126200   2.847   3.305   2.012 -0.0474 -0.0206  0.7361
 1595TIP3    H226201   2.742   3.252   1.916 -1.1291 -0.4245  2.1306
 1596TIP3   OH226202   3.578   3.136  12.884 -0.0557 -0.4801  0.5072
 1596TIP3    H126203   3.495   3.094  12.862  0.1779 -0.1120 -1.1598
 1596TIP3    H226204   3.560   3.230  12.875  0.4045 -0.3786  0.6402
 1597TIP3   OH226205   4.759   0.031   1.492  0.3652 -0.4813  0.7254
 1597TIP3    H126206   4.754   0.075   1.407  0.5317  1.3986  1.6621
 1597TIP3    H226207   4.709  -0.049   1.480 -0.0594  0.0083 -0.9958
 1598TIP3   OH226208   3.410   3.477  11.903  0.3227  0.1389 -0.1470
 1598TIP3    H126209   3.421   3.564  11.941 -0.5912 -0.1171  0.7406
 1598TIP3    H226210   3.331   3.483  11.850  1.2270  0.3121 -1.5137
 1599TIP3   OH226211   2.095   0.518  15.681 -0.4431 -0.0171 -0.0640
 1599TIP3    H126212   2.032   0.479  15.620 -0.1375  0.2679 -0.5621
 1599TIP3    H226213   2.046   0.530  15.762 -0.9272 -0.1533 -0.3379
 1600TIP3   OH226214   3.627   3.962  14.680 -0.0386 -0.3457  0.0161
 1600TIP3    H126215   3.615   3.899  14.610  0.7384 -1.1704  0.6233
 1600TIP3    H226216   3.564   3.935  14.747 -0.8113  0.4676 -0.3614
 1601TIP3   OH226217   1.234   0.402  17.083  0.0710  0.7797 -0.0797
 1601TIP3    H126218   1.194   0.326  17.125 -0.0363  1.0898  0.3779
 1601TIP3    H226219   1.321   0.408  17.122  0.3751  0.4197 -0.6941
 1602TIP3   OH226220   2.472   2.533  16.563  0.4493 -0.8478 -0.4003
 1602TIP3    H126221   2.566   2.539  16.547  0.0459  0.4990 -2.4329
 1602TIP3    H226222   2.438   2.618  16.535 -1.2846 -1.0421  1.0421
 1603TIP3   OH226223   6.196   3.665  13.978  0.7639  0.0196 -0.3782
 1603TIP3    H126224   6.171   3.685  14.068 -0.8427 -1.7951 -0.3932
 1603TIP3    H226225   6.291   3.675  13.977  0.6890  1.0653  1.2475
 1604TIP3   OH226226   1.326   2.298   3.103 -0.4374 -0.5098 -0.2000
 1604TIP3    H126227   1.259   2.235   3.129  0.0948 -1.1882 -0.4258
 1604TIP3    H226228   1.302   2.323   3.014  1.0529 -2.7915 -1.3065
 1605TIP3   OH226229   1.416   5.038   2.474  0.0900 -0.3585  0.2651
 1605TIP3    H126230   1.377   4.953   2.450  1.1267 -0.5684 -0.7118
 1605TIP3    H226231   1.462   5.020   2.555  0.8581 -0.8975 -0.2854
 1606TIP3   OH226232   3.106   2.895  14.367 -0.2455  0.2584  0.1024
 1606TIP3    H126233   3.139   2.895  14.457 -1.0326  1.0242  0.3912
 1606TIP3    H226234   3.011   2.905  14.376 -0.2879  0.7208 -0.8235
 1607TIP3   OH226235   6.603   2.652  12.790 -0.2921  0.0387  0.2189
 1607TIP3    H126236   6.616   2.708  12.714 -1.0102 -0.0833  0.0040
 1607TIP3    H226237   6.514   2.618  12.780  0.4613 -1.9174 -0.1794
 1608TIP3   OH226238   3.014   0.658  15.132  0.5212 -0.2811  0.0826
 1608TIP3    H126239   3.048   0.614  15.210  1.1107 -0.6902 -0.4069
 1608TIP3    H226240   3.054   0.745  15.134 -0.4151  0.1393  0.8884
 1609TIP3   OH226241   0.887   0.844  11.895 -0.5206  0.4990 -0.4070
 1609TIP3    H126242   0.941   0.920  11.870  0.2088  0.4589  1.0147
 1609TIP3    H226243   0.840   0.821  11.815  1.1009  0.9418 -1.5280
 1610TIP3   OH226244   1.419   6.303  11.305  0.8377  0.4314 -0.2616
 1610TIP3    H126245   1.432   6.208  11.306  0.7730  0.4116 -1.1322
 1610TIP3    H226246   1.334   6.316  11.348  1.1338  0.1496  0.4261
 1611TIP3   OH226247   6.602   0.844   4.940 -0.8751  0.1610 -0.5766
 1611TIP3    H126248   6.581   0.784   5.012 -1.0571 -0.9971 -1.5731
 1611TIP3    H226249   6.695   0.865   4.953 -1.3419  1.2976  0.9529
 1612TIP3   OH226250   1.418   0.249  11.740 -0.1508 -0.3068 -0.4937
 1612TIP3    H126251   1.487   0.198  11.697  1.4766 -0.2079  1.9050
 1612TIP3    H226252   1.374   0.295  11.668  2.4632 -0.1692 -2.0667
 1613TIP3   OH226253   6.310   3.327  14.145  0.1815 -0.0197 -0.1981
 1613TIP3    H126254   6.298   3.397  14.209 -1.4823 -0.0164 -0.4973
 1613TIP3    H226255   6.387   3.280  14.176  0.2723  0.8824  0.9908
 1614TIP3   OH226256   2.538   6.010  16.866  0.0911  0.7369  0.8373
 1614TIP3    H126257   2.587   6.009  16.784 -0.5291 -1.1140  0.4676
 1614TIP3    H226258   2.465   6.070  16.850  0.0738  0.5175  0.0792
 1615TIP3   OH226259   1.589   2.532  16.628  0.5328  1.1227  0.1400
 1615TIP3    H126260   1.593   2.560  16.720  1.8558  2.3017 -0.2353
 1615TIP3    H226261   1.519   2.468  16.625  0.2303  1.3321  1.9128
 1616TIP3   OH226262   6.489   5.992   1.227  0.1887 -0.6380  0.3264
 1616TIP3    H126263   6.468   6.029   1.313  2.3641 -3.4971  2.2355
 1616TIP3    H226264   6.409   6.002   1.176 -1.1766  1.1377  2.6975
 1617TIP3   OH226265   6.106   1.264   3.289  0.4833  0.2960  0.0042
 1617TIP3    H126266   6.052   1.286   3.213  1.1237  1.3585 -0.1477
 1617TIP3    H226267   6.148   1.182   3.264  0.7790  0.6941 -0.8429
 1618TIP3   OH226268   6.256   2.684  11.093 -0.3551  0.9622  0.7076
 1618TIP3    H126269   6.187   2.647  11.037  2.1322 -0.1417 -1.7637
 1618TIP3    H226270   6.336   2.638  11.066  1.1923  1.3536  4.3081
 1619TIP3   OH226271   1.127   1.823  14.242 -0.1760  0.1121  0.3254
 1619TIP3    H126272   1.211   1.836  14.197 -0.2454  0.5005  0.3095
 1619TIP3    H226273   1.121   1.896  14.303 -1.9857  1.9263 -1.9288
 1620TIP3   OH226274   1.617   2.009  12.793 -0.7301 -0.1184 -0.4176
 1620TIP3    H126275   1.648   2.047  12.875 -2.3486 -0.4896  0.3993
 1620TIP3    H226276   1.525   1.988  12.810 -0.3019 -2.9379 -1.3597
 1621TIP3   OH226277   5.229   3.308  10.823 -0.3746 -0.0784  0.1752
 1621TIP3    H126278   5.234   3.221  10.862  0.6100 -0.9898 -1.9185
 1621TIP3    H226279   5.307   3.353  10.855 -1.5468  0.5128  2.3042
 1622TIP3   OH226280   2.609   5.599   5.442 -0.7558 -0.1280  0.2559
 1622TIP3    H126281   2.573   5.570   5.526 -2.2102  1.3048  0.1457
 1622TIP3    H226282   2.599   5.694   5.443  1.1539  0.1115 -0.6712
 1623TIP3   OH226283   2.347   1.982  14.046 -0.2710 -0.2632 -0.2371
 1623TIP3    H126284   2.442   1.994  14.052 -0.5996  2.3255  0.8071
 1623TIP3    H226285   2.320   2.039  13.973 -1.1822  0.2822  0.5076
 1624TIP3   OH226286   5.599   3.469   3.728 -0.7752  0.1853 -0.8970
 1624TIP3    H126287   5.662   3.397   3.734  0.0911  0.8677 -1.7004
 1624TIP3    H226288   5.525   3.431   3.681 -0.9081 -0.5732 -0.0952
 1625TIP3   OH226289   4.761   5.562  15.781 -0.0059  0.4643 -0.1350
 1625TIP3    H126290   4.761   5.473  15.746 -2.0164  1.3549 -2.5183
 1625TIP3    H226291   4.805   5.554  15.866  1.6493 -2.4193 -1.1909
 1626TIP3   OH226292   4.253   6.268   5.373 -0.5754 -0.6766 -0.6083
 1626TIP3    H126293   4.288   6.356   5.360 -0.6074 -0.8093 -1.7011
 1626TIP3    H226294   4.330   6.214   5.393 -0.7578 -0.1095  1.7662
 1627TIP3   OH226295   1.195   5.415   4.116 -0.0393  0.1860  0.4506
 1627TIP3    H126296   1.222   5.327   4.091 -0.4720  0.0266  0.5546
 1627TIP3    H226297   1.263   5.472   4.078  0.8210 -0.2653  1.2974
 1628TIP3   OH226298   1.605   4.330   0.170 -0.1121 -0.0302  0.2526
 1628TIP3    H126299   1.581   4.339   0.078 -2.2300  0.8815  0.8612
 1628TIP3    H226300   1.684   4.276   0.169  0.1138  0.2937 -2.1138
 1629TIP3   OH226301   0.394   0.148  11.779  0.1397  0.0324 -0.2874
 1629TIP3    H126302   0.487   0.148  11.802  0.0105 -1.4042  0.2239
 1629TIP3    H226303   0.388   0.210  11.705  1.4238  0.4456 -0.0510
 1630TIP3   OH226304   3.129   1.863   4.381 -0.1407  0.2440 -0.3754
 1630TIP3    H126305   3.043   1.863   4.340 -0.5565 -0.1615  0.4904
 1630TIP3    H226306   3.184   1.812   4.321 -0.7039 -0.2197 -0.4980
 1631TIP3   OH226307   3.804   0.731  13.626  0.5526  0.3017 -0.2314
 1631TIP3    H126308   3.826   0.745  13.718 -1.5197 -0.0484  0.3360
 1631TIP3    H226309   3.739   0.660  13.627  1.3725 -0.5259 -2.0612
 1632TIP3   OH226310   3.899   0.210   4.555 -0.2407 -0.1096 -0.5373
 1632TIP3    H126311   3.971   0.236   4.612  0.5666 -0.2835 -1.4663
 1632TIP3    H226312   3.850   0.291   4.540  0.1273  0.1344 -0.4261
 1633TIP3   OH226313   2.695   3.371   0.897  0.2209  0.0465 -0.1878
 1633TIP3    H126314   2.713   3.439   0.962 -0.5865 -0.5226  0.6505
 1633TIP3    H226315   2.617   3.401   0.851  0.6349  0.3190 -0.7101
 1634TIP3   OH226316   2.682   3.253   1.689 -0.2846 -0.0071  0.0634
 1634TIP3    H126317   2.691   3.301   1.607 -1.3424  2.6239  1.4176
 1634TIP3    H226318   2.666   3.162   1.663  0.4252  0.5958 -2.5924
 1635TIP3   OH226319   1.481   3.648   0.309 -0.4252 -0.5360  0.8975
 1635TIP3    H126320   1.476   3.592   0.231  1.2098 -3.2256  2.6413
 1635TIP3    H226321   1.465   3.589   0.382  0.0966  1.5418  2.7546
 1636TIP3   OH226322   0.097   2.528   0.457 -0.6232 -0.1317  0.2939
 1636TIP3    H126323   0.035   2.477   0.405 -1.7694  0.8691  0.6701
 1636TIP3    H226324   0.180   2.518   0.410 -1.2981 -0.5559 -0.8429
 1637TIP3   OH226325   2.028   5.881   5.549 -0.2974 -0.3011 -0.4807
 1637TIP3    H126326   2.022   5.878   5.644 -1.5551 -1.2979 -0.5654
 1637TIP3    H226327   2.075   5.801   5.525  2.0688  1.0765 -0.5916
 1638TIP3   OH226328   0.227   2.332   2.155  0.2785 -0.0219  0.0913
 1638TIP3    H126329   0.187   2.309   2.071 -0.5783  3.1150 -0.4251
 1638TIP3    H226330   0.321   2.321   2.140  0.0571 -0.6213 -0.9162
 1639TIP3   OH226331   3.317   6.091  16.376  0.6907 -0.4125 -0.2341
 1639TIP3    H126332   3.251   6.073  16.443  0.3161  0.1145 -0.4602
 1639TIP3    H226333   3.370   6.011  16.372  2.6259  0.6384  2.8421
 1640TIP3   OH226334   5.447   4.058  12.989  0.2767  0.5140  0.1004
 1640TIP3    H126335   5.467   3.992  13.055 -0.7264  1.3085  1.2019
 1640TIP3    H226336   5.485   4.139  13.022 -1.1881  1.1564  0.2645
 1641TIP3   OH226337   4.413   5.249  15.543 -0.4415 -0.3965 -0.0425
 1641TIP3    H126338   4.320   5.240  15.568 -0.5742 -0.1077 -0.4445
 1641TIP3    H226339   4.422   5.340  15.515 -0.1568 -0.5680 -0.5109
 1642TIP3   OH226340   4.334   3.632   4.313  0.1325 -0.3705 -0.3825
 1642TIP3    H126341   4.261   3.627   4.252  0.1652 -0.1588 -0.4380
 1642TIP3    H226342   4.367   3.721   4.304 -1.5524  0.5236  1.9083
 1643TIP3   OH226343   5.822   0.398  12.866  0.2334  0.1591  0.2226
 1643TIP3    H126344   5.905   0.413  12.822  0.4030 -1.4024 -0.0182
 1643TIP3    H226345   5.771   0.346  12.804 -1.2012  1.6862  0.0756
 1644TIP3   OH226346   4.982   0.480  13.526 -0.1543  0.0537 -0.0015
 1644TIP3    H126347   4.890   0.488  13.549  0.3601  1.5864  1.6905
 1644TIP3    H226348   5.011   0.402  13.573 -0.0379  0.9776  1.5264
 1645TIP3   OH226349   5.975   2.961   6.440 -0.0761 -0.3173  0.3595
 1645TIP3    H126350   6.039   2.919   6.498  0.2103  0.0407  0.3028
 1645TIP3    H226351   5.891   2.949   6.485  0.1278 -0.1434  0.7915
 1646TIP3   OH226352   5.636   6.453  16.627  0.8369  0.0690  0.3177
 1646TIP3    H126353   5.636   6.519  16.697 -1.1470  1.9141 -1.3870
 1646TIP3    H226354   5.707   6.480  16.569 -0.6387  1.3123 -0.9250
 1647TIP3   OH226355   4.210   5.647   4.517 -0.5003 -0.1386 -0.4518
 1647TIP3    H126356   4.125   5.690   4.525 -0.0487  0.6892 -0.0312
 1647TIP3    H226357   4.230   5.615   4.605 -0.0418  0.3208 -0.3840
 1648TIP3   OH226358   3.958   5.402   5.338 -0.3714 -0.2289 -0.0458
 1648TIP3    H126359   3.975   5.496   5.350 -0.8909 -0.0168 -0.9391
 1648TIP3    H226360   3.865   5.392   5.361 -1.2383  0.0854 -3.1962
 1649TIP3   OH226361   5.984   0.097   2.203  0.0588  0.2969 -0.4235
 1649TIP3    H126362   5.920   0.056   2.261 -0.2802 -0.0147 -1.0130
 1649TIP3    H226363   5.931   0.154   2.146  0.4495  1.0400 -0.0508
 1650TIP3   OH226364   0.733   1.929  11.235  0.3947 -0.0485 -0.6199
 1650TIP3    H126365   0.698   1.963  11.152  0.3641  1.7566  0.1353
 1650TIP3    H226366   0.783   2.001  11.272 -0.5598 -0.4588  1.5068
 1651TIP3   OH226367   3.411   0.464  14.643  0.5783 -0.2626  0.7642
 1651TIP3    H126368   3.411   0.541  14.699  1.5009  1.6404 -1.7488
 1651TIP3    H226369   3.319   0.447  14.624  0.4395  1.3897 -0.1461
 1652TIP3   OH226370   1.637   4.106   3.241  0.2829  0.6168  0.3574
 1652TIP3    H126371   1.661   4.120   3.332  0.9388  0.2492  0.2400
 1652TIP3    H226372   1.546   4.137   3.235 -0.6541 -1.7612  1.7223
 1653TIP3   OH226373   4.536   4.822  13.351  0.0323  0.4921 -0.0628
 1653TIP3    H126374   4.548   4.790  13.262 -0.0394  0.2155  0.0252
 1653TIP3    H226375   4.467   4.766  13.388 -0.9848  1.5342 -0.3124
 1654TIP3   OH226376   3.860   5.274  15.392  0.3871  0.2059  0.2824
 1654TIP3    H126377   3.790   5.253  15.454  0.3055 -0.3005  0.0259
 1654TIP3    H226378   3.905   5.349  15.431 -0.8247  1.0872  0.0518
 1655TIP3   OH226379   0.575   0.728  13.173  0.5315 -0.5408  0.2872
 1655TIP3    H126380   0.629   0.806  13.165 -1.1265  0.4587 -1.6108
 1655TIP3    H226381   0.587   0.699  13.264  0.7813  2.2161  1.1554
 1656TIP3   OH226382   2.528   0.353  11.707  0.0617  0.2424 -0.3885
 1656TIP3    H126383   2.529   0.423  11.642  1.2247  1.0989  0.5410
 1656TIP3    H226384   2.567   0.278  11.662  1.3448  0.9823 -0.5264
 1657TIP3   OH226385   3.679   3.269   5.697  0.4655 -0.2128 -0.1249
 1657TIP3    H126386   3.715   3.182   5.683 -2.1170 -1.7185  2.0018
 1657TIP3    H226387   3.748   3.329   5.669  2.4452 -2.9270 -1.2546
 1658TIP3   OH226388   3.109   5.785   1.984 -0.0034  0.0668 -0.1531
 1658TIP3    H126389   3.020   5.819   1.994 -0.1175 -0.2231 -0.1936
 1658TIP3    H226390   3.153   5.851   1.930 -0.4316 -0.2109 -0.8458
 1659TIP3   OH226391   2.003   5.911   2.312  0.1370  0.2852 -0.0538
 1659TIP3    H126392   1.984   5.827   2.353 -0.1191  0.6280  0.5304
 1659TIP3    H226393   1.921   5.935   2.268  0.4385 -0.1261 -0.8475
 1660TIP3   OH226394   2.484   4.646  16.594  0.1856  0.5193  0.2223
 1660TIP3    H126395   2.511   4.600  16.514 -0.3008  1.5563 -0.5428
 1660TIP3    H226396   2.393   4.620  16.607  0.1428  0.6727  0.2234
 1661TIP3   OH226397   5.992   2.180  15.755  0.0925  0.0565 -0.1459
 1661TIP3    H126398   6.042   2.122  15.811 -2.0992  0.6048  2.4824
 1661TIP3    H226399   6.008   2.268  15.790  1.1675  0.7864 -2.3484
 1662TIP3   OH226400   0.644   6.643  13.593 -0.0847 -0.1797 -0.4506
 1662TIP3    H126401   0.650   6.594  13.510  0.5542 -0.2821 -0.3489
 1662TIP3    H226402   0.581   6.713  13.575 -0.8453 -0.9145 -0.6593
 1663TIP3   OH226403   5.850   3.088   4.434  0.0361 -0.1335  0.1198
 1663TIP3    H126404   5.812   3.036   4.364 -1.6052  1.6294 -0.3653
 1663TIP3    H226405   5.804   3.060   4.513 -0.9039  0.5945 -0.1536
 1664TIP3   OH226406   4.559   3.186   2.402 -0.3262  0.3066 -0.4409
 1664TIP3    H126407   4.531   3.164   2.491 -0.9173 -1.6530 -1.1021
 1664TIP3    H226408   4.479   3.211   2.356  0.0026  1.4822 -0.4056
 1665TIP3   OH226409   3.018   6.609  15.210 -0.1226 -0.2647 -0.0986
 1665TIP3    H126410   3.013   6.620  15.115 -0.6880  1.2803  0.0987
 1665TIP3    H226411   3.052   6.693  15.242  0.4086 -0.9063  1.0311
 1666TIP3   OH226412   6.576   1.686  16.467 -0.0061  0.6712  0.0683
 1666TIP3    H126413   6.662   1.691  16.508  0.2265 -2.3681  0.0384
 1666TIP3    H226414   6.589   1.720  16.379  1.9414 -2.7653 -1.0368
 1667TIP3   OH226415   1.618   4.647  16.098  0.0611 -0.2904  0.7775
 1667TIP3    H126416   1.569   4.569  16.122  0.2302 -0.7910 -0.5073
 1667TIP3    H226417   1.612   4.704  16.175 -1.7857 -0.7072  0.9401
 1668TIP3   OH226418   1.142   0.000  16.982 -1.1161 -0.4483 -0.3514
 1668TIP3    H126419   1.188   0.068  17.031 -2.1744 -0.2367  0.3824
 1668TIP3    H226420   1.206  -0.070  16.971 -0.2341  0.3640 -0.4847
 1669TIP3   OH226421   0.527   4.764  14.068 -0.1267  0.1817  0.1230
 1669TIP3    H126422   0.571   4.754  13.984  0.5336  1.0103  0.3608
 1669TIP3    H226423   0.437   4.790  14.046 -0.2293 -0.5640 -0.3433
 1670TIP3   OH226424   5.032   5.905   5.969  0.4258 -0.2279  0.1426
 1670TIP3    H126425   5.124   5.877   5.975  0.8404  0.4318 -2.2774
 1670TIP3    H226426   5.032   5.996   5.998  0.5299 -0.2611  0.2470
 1671TIP3   OH226427   2.559   6.386  13.319  0.3361  0.4708  0.1035
 1671TIP3    H126428   2.477   6.336  13.329 -1.0095  2.6940  0.5679
 1671TIP3    H226429   2.552   6.425  13.232  2.4544 -1.9427 -1.2271
 1672TIP3   OH226430   6.173   5.159  16.895 -0.7788  0.6846 -0.0453
 1672TIP3    H126431   6.254   5.195  16.930 -0.5698  2.1441 -1.9468
 1672TIP3    H226432   6.139   5.104  16.965  1.9659 -0.1376  0.7071
 1673TIP3   OH226433   2.412   3.825   6.537  0.3832 -0.5201 -0.6934
 1673TIP3    H126434   2.433   3.891   6.604 -1.5874  0.4718 -1.0139
 1673TIP3    H226435   2.447   3.743   6.572  2.7400  0.6443 -0.2020
 1674TIP3   OH226436   1.922   1.248  13.066  0.0006 -0.2413 -0.2966
 1674TIP3    H126437   1.880   1.289  12.990  0.1258 -0.1555 -0.3191
 1674TIP3    H226438   1.981   1.183  13.028 -1.8756 -2.0591 -0.2148
 1675TIP3   OH226439   0.307   4.146  14.142  0.3612  0.3890  0.0095
 1675TIP3    H126440   0.234   4.179  14.089  1.3309  0.8659 -1.0632
 1675TIP3    H226441   0.329   4.219  14.200  2.5256  1.7579 -2.3854
 1676TIP3   OH226442   1.518   4.447  12.939  0.3684  0.6322  0.3407
 1676TIP3    H126443   1.437   4.495  12.919 -0.9202 -1.7479 -0.3753
 1676TIP3    H226444   1.555   4.426  12.853  0.6987  0.0082  0.6326
 1677TIP3   OH226445   4.584   4.064   6.245 -0.5838 -0.4167  0.1406
 1677TIP3    H126446   4.653   4.001   6.266  0.1849  0.1547 -0.6494
 1677TIP3    H226447   4.563   4.105   6.329 -0.3982 -1.0247  0.4879
 1678TIP3   OH226448   4.470   2.727   1.660  0.1682 -0.1483 -0.0011
 1678TIP3    H126449   4.491   2.813   1.695  0.5399 -0.4950  0.6395
 1678TIP3    H226450   4.505   2.728   1.571  0.6612  0.1716  0.1918
 1679TIP3   OH226451   4.043   4.496  11.711 -0.3344 -0.0604  0.3959
 1679TIP3    H126452   4.119   4.546  11.680  0.6865 -1.5491  0.4229
 1679TIP3    H226453   4.081   4.428  11.766 -1.7557 -0.4264  0.9267
 1680TIP3   OH226454   5.961   1.613   5.394 -0.3562 -0.0784  0.1745
 1680TIP3    H126455   6.049   1.586   5.418  0.5181  1.0751 -1.6338
 1680TIP3    H226456   5.939   1.682   5.457  0.0533 -0.3449  0.6035
 1681TIP3   OH226457   6.221   0.111  11.612 -0.6969  0.6228  0.3286
 1681TIP3    H126458   6.164   0.183  11.640  1.2344  0.8296  3.9422
 1681TIP3    H226459   6.308   0.135  11.643  0.0190 -3.2581  1.5699
 1682TIP3   OH226460   5.383   3.646   1.865  0.6009 -0.7159 -0.8292
 1682TIP3    H126461   5.456   3.658   1.925 -0.3943 -1.1595  0.4869
 1682TIP3    H226462   5.414   3.684   1.782  2.5529 -1.4849 -0.4840
 1683TIP3   OH226463   0.402   1.421   0.618  0.3025 -0.6024  0.4201
 1683TIP3    H126464   0.411   1.495   0.558 -1.9810 -2.1145 -1.8760
 1683TIP3    H226465   0.315   1.430   0.655  0.2552 -1.7812  0.6068
 1684TIP3   OH226466   1.227   0.207   2.875 -0.0969 -0.0395 -0.7389
 1684TIP3    H126467   1.275   0.148   2.817 -1.8139 -1.4941 -0.7617
 1684TIP3    H226468   1.157   0.152   2.912 -1.8101  2.0009 -0.8147
 1685TIP3   OH226469   1.574   0.974  13.156  0.1769  0.1205  0.2968
 1685TIP3    H126470   1.569   1.024  13.074  0.4187 -1.1574 -0.5135
 1685TIP3    H226471   1.649   1.012  13.202  0.5716  0.2779 -0.4669
 1686TIP3   OH226472   5.687   1.883  11.132  0.2226 -0.8932 -0.3550
 1686TIP3    H126473   5.772   1.851  11.102 -0.6096 -2.1730 -1.4129
 1686TIP3    H226474   5.647   1.922  11.054 -0.3925 -0.8271 -0.0083
 1687TIP3   OH226475   5.005   2.653   3.295 -0.2118  0.4037 -0.0484
 1687TIP3    H126476   4.992   2.738   3.251  1.8353  0.5966 -0.3364
 1687TIP3    H226477   5.084   2.665   3.347 -0.5369 -1.0051  0.7839
 1688TIP3   OH226478   4.279   2.628  14.983 -0.4920  0.0955 -0.3553
 1688TIP3    H126479   4.207   2.670  15.030 -0.3056  0.6236 -0.5438
 1688TIP3    H226480   4.250   2.537  14.972 -0.9753  0.2170 -0.1189
 1689TIP3   OH226481   6.007   4.951   6.148 -0.7925  0.0016  0.4914
 1689TIP3    H126482   5.939   4.992   6.201  0.1400 -0.2351  1.8967
 1689TIP3    H226483   6.083   4.945   6.206  0.0426 -0.8830 -0.6586
 1690TIP3   OH226484   2.472   1.838  16.395 -0.1667  0.0756 -0.4292
 1690TIP3    H126485   2.503   1.886  16.318  0.9126 -0.0620 -0.0846
 1690TIP3    H226486   2.384   1.872  16.411  0.3646  1.5087 -0.5445
 1691TIP3   OH226487   4.133   3.595  16.497 -0.4429 -0.2070 -0.1817
 1691TIP3    H126488   4.107   3.568  16.585  0.2340  1.0160  0.4024
 1691TIP3    H226489   4.204   3.535  16.474 -0.0806 -0.0095  0.4212
 1692TIP3   OH226490   3.038   2.077   3.058  0.3957 -0.6126 -0.4338
 1692TIP3    H126491   3.115   2.061   3.003  0.5542  1.0561 -0.7136
 1692TIP3    H226492   3.069   2.137   3.126 -0.8302  0.6266 -0.9619
 1693TIP3   OH226493   6.307   4.450  11.809 -0.5709  0.3645 -0.3010
 1693TIP3    H126494   6.301   4.531  11.860  0.6490  0.4910 -0.3412
 1693TIP3    H226495   6.346   4.477  11.726 -0.1915 -0.2613 -0.3260
 1694TIP3   OH226496   2.044   6.456   5.128  0.1032  0.7077 -0.2821
 1694TIP3    H126497   2.132   6.490   5.143  0.1786  0.3275  0.1380
 1694TIP3    H226498   1.994   6.485   5.204 -0.3127  1.5182 -0.8539
 1695TIP3   OH226499   2.351   0.446  16.308  0.4174  0.8134  0.1032
 1695TIP3    H126500   2.305   0.518  16.263 -0.4387  0.3612  0.2324
 1695TIP3    H226501   2.300   0.368  16.286 -0.3573  0.6524  2.2915
 1696TIP3   OH226502   2.770   0.345  15.639  0.4190 -0.5912  0.4541
 1696TIP3    H126503   2.791   0.400  15.713 -0.9829 -0.3148  0.6683
 1696TIP3    H226504   2.854   0.325  15.598  1.3628 -1.8811  2.9007
 1697TIP3   OH226505   2.648   3.322   3.654  0.4837  0.9270  0.3958
 1697TIP3    H126506   2.563   3.358   3.680  0.3451  0.3270  0.7809
 1697TIP3    H226507   2.712   3.384   3.689  0.2447  0.8732  0.9284
 1698TIP3   OH226508   3.720   0.834   4.702  0.6694 -0.1695 -0.1351
 1698TIP3    H126509   3.633   0.808   4.730  0.3207  2.8443  1.7752
 1698TIP3    H226510   3.706   0.915   4.652  2.3223  0.2455  0.0376
 1699TIP3   OH226511   4.147   2.433   5.673 -0.2449  0.2976  0.2128
 1699TIP3    H126512   4.113   2.518   5.645 -0.8393  0.5597  1.7083
 1699TIP3    H226513   4.123   2.426   5.765  1.5116 -0.6543  0.6191
 1700TIP3   OH226514   3.206   1.927   2.568  0.4140  0.6769 -0.2684
 1700TIP3    H126515   3.242   1.925   2.657  1.7082  3.2573 -0.6602
 1700TIP3    H226516   3.282   1.909   2.512 -0.0947  0.4694 -0.8905
 1701TIP3   OH226517   3.798   0.002  13.559  0.2988 -0.0011  0.3685
 1701TIP3    H126518   3.883  -0.028  13.527  0.6003  1.1855  0.0406
 1701TIP3    H226519   3.813   0.092  13.589 -1.3137  1.0340 -1.7762
 1702TIP3   OH226520   4.248   5.614  13.636  0.1339 -0.2989  0.0266
 1702TIP3    H126521   4.248   5.581  13.726  1.5468 -0.0380  0.1349
 1702TIP3    H226522   4.246   5.535  13.582 -0.7404 -0.4553  0.2862
 1703TIP3   OH226523   6.087   5.507  14.831  0.2983 -0.2531  0.3334
 1703TIP3    H126524   6.002   5.513  14.875  0.2649  1.7783  0.0350
 1703TIP3    H226525   6.145   5.468  14.897 -0.4666 -0.0792  1.1306
 1704TIP3   OH226526   1.967   5.015  13.801 -0.0048 -0.1177 -0.3127
 1704TIP3    H126527   1.881   5.054  13.783 -0.1352 -0.2027  0.1099
 1704TIP3    H226528   1.987   4.964  13.723 -1.1592 -1.5567  0.3184
 1705TIP3   OH226529   0.201   4.870  12.971 -0.2212 -0.0712  0.1220
 1705TIP3    H126530   0.151   4.798  12.933 -0.4218  0.0043  0.2442
 1705TIP3    H226531   0.264   4.827  13.028 -3.1292 -0.0019  3.5600
 1706TIP3   OH226532   0.776   5.001   1.982  0.2330 -0.1360  0.0393
 1706TIP3    H126533   0.801   5.018   2.072  0.3340 -1.1706  0.2094
 1706TIP3    H226534   0.698   4.947   1.988  0.4723 -0.5474 -0.4857
 1707TIP3   OH226535   3.376   6.018   5.004 -0.1000 -0.4494  0.0446
 1707TIP3    H126536   3.333   6.079   4.943  1.1181  0.9847  0.5778
 1707TIP3    H226537   3.336   6.037   5.088  1.3707  0.7375  0.5037
 1708TIP3   OH226538   2.244   2.142  13.091 -0.1480 -0.3053 -0.3552
 1708TIP3    H126539   2.225   2.235  13.078 -0.8390 -0.4147 -0.1491
 1708TIP3    H226540   2.163   2.106  13.129  0.7248 -0.6162  1.2824
 1709TIP3   OH226541   6.230   3.145  13.952 -0.1619 -0.5983 -0.0583
 1709TIP3    H126542   6.214   3.231  13.912  0.1833  0.1232  1.3163
 1709TIP3    H226543   6.263   3.165  14.039 -3.2491 -2.1565  1.5175
 1710TIP3   OH226544   4.559   2.500  14.099 -1.5164 -0.0432  0.2635
 1710TIP3    H126545   4.528   2.457  14.178 -0.3554 -0.7773  0.3332
 1710TIP3    H226546   4.554   2.432  14.031  1.7624 -0.7853  0.7041
 1711TIP3   OH226547   4.350   0.637  13.800  0.3706  0.1210  0.1798
 1711TIP3    H126548   4.415   0.567  13.796  0.1095 -0.0532 -1.2022
 1711TIP3    H226549   4.317   0.634  13.890  2.1871  0.1414  0.8577
 1712TIP3   OH226550   6.255   1.852   1.785 -0.0489 -0.2246  0.0707
 1712TIP3    H126551   6.268   1.896   1.868  1.1144  0.9455 -0.7155
 1712TIP3    H226552   6.239   1.760   1.808  2.1733 -0.2878  1.5104
 1713TIP3   OH226553   2.586   2.122  14.411 -0.5488 -0.3967 -0.3612
 1713TIP3    H126554   2.570   2.030  14.431 -1.6895  0.1235  1.2765
 1713TIP3    H226555   2.618   2.159  14.493 -1.0374  0.8583 -0.7174
 1714TIP3   OH226556   1.859   3.344  15.574 -0.1851 -0.2079  0.0024
 1714TIP3    H126557   1.794   3.279  15.603  0.8883 -0.8415  1.0494
 1714TIP3    H226558   1.944   3.303  15.593  0.5539  0.2968 -2.0293
 1715TIP3   OH226559   5.291   1.707   0.963  0.1315  0.2758 -0.1681
 1715TIP3    H126560   5.327   1.724   0.876  0.8115  0.6573  0.1794
 1715TIP3    H226561   5.281   1.794   1.002  0.3312  0.0794  0.3248
 1716TIP3   OH226562   2.003   6.166   3.287  0.1941  1.1009 -0.0448
 1716TIP3    H126563   1.978   6.081   3.322  2.0679 -0.3291 -2.0542
 1716TIP3    H226564   2.061   6.146   3.213  1.0633  4.1215 -0.2593
 1717TIP3   OH226565   1.263   1.500  14.190  0.5115 -0.0087 -0.3607
 1717TIP3    H126566   1.267   1.596  14.190  0.8911 -0.0185  0.4074
 1717TIP3    H226567   1.322   1.473  14.121 -0.6638  0.3434 -1.5319
 1718TIP3   OH226568   2.219   3.782  12.347 -0.4489  0.2976 -0.8375
 1718TIP3    H126569   2.305   3.741  12.352 -0.8279 -0.3684  0.2746
 1718TIP3    H226570   2.238   3.876  12.348  0.4154  0.1756 -3.3918
 1719TIP3   OH226571   3.842   2.523  11.404 -0.0373 -0.0673  0.4014
 1719TIP3    H126572   3.761   2.477  11.383  0.2753 -0.3874 -0.1094
 1719TIP3    H226573   3.877   2.478  11.481  0.1253 -0.5037  0.0702
 1720TIP3   OH226574   6.568   4.266   0.654 -0.5225  0.3192  0.3548
 1720TIP3    H126575   6.573   4.251   0.559  1.6150 -0.2214  0.5262
 1720TIP3    H226576   6.594   4.183   0.693 -3.0157  0.0206  1.4605
 1721TIP3   OH226577   0.640   2.838   5.686 -0.0097 -0.0602 -0.2378
 1721TIP3    H126578   0.632   2.929   5.658 -1.0013  0.6274  2.1112
 1721TIP3    H226579   0.660   2.789   5.606  0.3157  2.1856 -1.5576
 1722TIP3   OH226580   0.432   5.343   5.226  0.1086  0.2564  0.1202
 1722TIP3    H126581   0.347   5.298   5.230  0.9946 -1.3197  1.9616
 1722TIP3    H226582   0.409   5.436   5.225 -1.6590 -0.1536 -0.0328
 1723TIP3   OH226583   0.058   3.328  17.079  0.6044  0.2612 -0.2153
 1723TIP3    H126584   0.076   3.370  16.995  0.6557 -0.8842 -0.7805
 1723TIP3    H226585   0.144   3.317  17.120  0.9614 -2.3739 -1.5566
 1724TIP3   OH226586   2.370   5.786  12.174  0.1068  0.9188  0.0702
 1724TIP3    H126587   2.416   5.720  12.122 -1.2688 -0.8164  1.0134
 1724TIP3    H226588   2.317   5.834  12.110 -2.3127 -1.8280 -0.0972
 1725TIP3   OH226589   3.809   0.302  11.147 -0.5462 -0.6809  0.2948
 1725TIP3    H126590   3.835   0.310  11.238  0.2183 -0.5922  0.0692
 1725TIP3    H226591   3.713   0.299  11.150 -0.5736  0.5579  1.0086
 1726TIP3   OH226592   0.488   2.363  14.156 -0.7509  0.7062 -0.1112
 1726TIP3    H126593   0.411   2.404  14.115  0.0077  0.3901 -1.9157
 1726TIP3    H226594   0.547   2.346  14.083 -0.4271 -2.2727  0.7690
 1727TIP3   OH226595   3.092   4.909   5.461  0.5196 -0.0395 -1.1204
 1727TIP3    H126596   3.073   5.002   5.478  0.2470 -0.1648 -0.7123
 1727TIP3    H226597   3.166   4.889   5.519  0.0510 -0.2839 -0.5953
 1728TIP3   OH226598   2.264   3.015   1.936  0.2900 -0.1447  0.7514
 1728TIP3    H126599   2.175   3.033   1.967  1.1977  0.8139  2.8400
 1728TIP3    H226600   2.298   3.100   1.908 -0.0429 -0.7801 -1.7705
 1729TIP3   OH226601   2.971   6.397   6.023  0.4723 -0.5270 -0.2296
 1729TIP3    H126602   2.931   6.310   6.023 -0.4147 -0.1503 -3.0391
 1729TIP3    H226603   3.065   6.380   6.032  0.1174 -1.6029  2.0289
 1730TIP3   OH226604   0.736   6.697   1.028 -0.0717 -0.2255  0.4056
 1730TIP3    H126605   0.753   6.650   1.109 -0.7208 -0.8457  0.1852
 1730TIP3    H226606   0.641   6.706   1.025 -0.2054 -1.8020 -1.1613
 1731TIP3   OH226607   3.331   6.358  10.648  0.2700 -0.1217  0.3203
 1731TIP3    H126608   3.335   6.283  10.707  2.1295 -0.3039 -0.0175
 1731TIP3    H226609   3.418   6.396  10.652  0.0406  0.6001 -1.3787
 1732TIP3   OH226610   2.080   5.159  16.042  0.1149 -0.0757 -0.4250
 1732TIP3    H126611   2.025   5.234  16.066  0.3790  0.1673 -0.5769
 1732TIP3    H226612   2.118   5.130  16.126  0.7576  0.5541 -0.4937
 1733TIP3   OH226613   3.922   3.134  14.845  0.4480  0.3981  0.1460
 1733TIP3    H126614   4.017   3.121  14.841  0.4341  0.2045  0.3824
 1733TIP3    H226615   3.890   3.057  14.892 -0.0101 -0.3624 -1.4018
 1734TIP3   OH226616   5.674   1.124   1.471 -0.5871 -0.0501 -0.1331
 1734TIP3    H126617   5.759   1.116   1.514  0.3549 -2.3203 -2.2953
 1734TIP3    H226618   5.685   1.196   1.409 -0.4656  0.1197  0.0858
 1735TIP3   OH226619   1.042   3.197   1.998 -0.1154  0.3492 -0.5584
 1735TIP3    H126620   1.007   3.260   2.061 -0.1948 -0.2269 -0.0146
 1735TIP3    H226621   0.966   3.148   1.968 -0.0987  0.7234 -1.2250
 1736TIP3   OH226622   4.054   4.966  16.423 -0.2361  0.2923  0.3259
 1736TIP3    H126623   4.069   4.874  16.446  0.6034  0.9998  2.7866
 1736TIP3    H226624   4.137   5.009  16.442 -0.2520  1.3897 -1.9296
 1737TIP3   OH226625   5.336   0.566   0.546 -0.4210  0.7929 -0.1678
 1737TIP3    H126626   5.250   0.535   0.575  1.5479 -3.3619  1.7283
 1737TIP3    H226627   5.352   0.519   0.464  0.3924  0.9488 -0.1014
 1738TIP3   OH226628   5.320   5.196  15.231  0.6608 -0.0554 -0.5553
 1738TIP3    H126629   5.343   5.104  15.223  0.1208 -0.5326  2.6471
 1738TIP3    H226630   5.393   5.242  15.189  0.4307 -1.9340 -3.1000
 1739TIP3   OH226631   3.528   0.274  16.222  0.5405 -0.2139 -0.2737
 1739TIP3    H126632   3.489   0.251  16.138  1.0775  0.0097 -0.5865
 1739TIP3    H226633   3.544   0.368  16.217 -1.4496  0.2111  0.9321
 1740TIP3   OH226634   3.358   2.369  15.527  0.1747 -0.1781  0.0402
 1740TIP3    H126635   3.288   2.434  15.531 -0.5131 -0.9462  0.4965
 1740TIP3    H226636   3.373   2.343  15.618  1.8402  0.8048  0.0719
 1741TIP3   OH226637   1.647   0.553  14.030  0.0974  0.2577 -0.3449
 1741TIP3    H126638   1.654   0.485  13.963 -1.1066  0.2635 -0.4945
 1741TIP3    H226639   1.566   0.533  14.076 -0.5863  1.9369 -0.7840
 1742TIP3   OH226640   2.389   3.751  15.357  0.1672 -0.0567  0.7657
 1742TIP3    H126641   2.299   3.748  15.389 -0.0002 -0.0342  0.2998
 1742TIP3    H226642   2.417   3.660  15.354 -0.2592 -0.1588 -0.2631
 1743TIP3   OH226643   1.068   5.070  17.117  0.2000 -0.4577 -0.0027
 1743TIP3    H126644   1.139   5.131  17.100 -0.6075  1.1088  1.9175
 1743TIP3    H226645   1.018   5.067  17.036  0.4484  1.1975 -0.2326
 1744TIP3   OH226646   5.688   6.771  15.741 -0.5480  0.2782 -0.4630
 1744TIP3    H126647   5.769   6.789  15.695  0.2866  0.8859  1.1933
 1744TIP3    H226648   5.629   6.842  15.716  0.2320  1.1550  0.1894
 1745TIP3   OH226649   0.168   6.390   0.816 -0.1897  0.5515  0.3951
 1745TIP3    H126650   0.210   6.304   0.827 -0.7711  0.1537 -0.4868
 1745TIP3    H226651   0.210   6.427   0.738 -0.5256  0.7137  0.2912
 1746TIP3   OH226652   4.334   2.441  11.821 -0.0519  0.2689 -0.3482
 1746TIP3    H126653   4.293   2.421  11.737  1.7506  0.1781 -1.2480
 1746TIP3    H226654   4.284   2.514  11.855 -3.0804 -2.0073  0.2403
 1747TIP3   OH226655   4.822   6.053  11.266  0.4813 -0.2841 -0.5386
 1747TIP3    H126656   4.806   5.984  11.202 -1.3438  0.6399 -1.1010
 1747TIP3    H226657   4.736   6.072  11.303  1.4816 -0.7268  2.1349
 1748TIP3   OH226658   0.516   1.776   0.063  0.1781  0.5864 -0.0799
 1748TIP3    H126659   0.466   1.804   0.139 -3.2455 -1.7781 -1.3369
 1748TIP3    H226660   0.560   1.695   0.091  0.4184  0.7310 -0.0411
 1749TIP3   OH226661   3.629   4.668   0.460  0.5425  0.0972 -0.3492
 1749TIP3    H126662   3.607   4.576   0.471  1.2660  0.1122  1.3953
 1749TIP3    H226663   3.682   4.671   0.380 -0.6534 -0.7840 -1.1924
 1750TIP3   OH226664   5.263   3.479   2.212  0.4816  0.1208  0.1577
 1750TIP3    H126665   5.219   3.454   2.130  2.3277 -1.9872 -0.2449
 1750TIP3    H226666   5.198   3.462   2.279 -0.2795 -0.3152 -0.6742
 1751TIP3   OH226667   5.258   4.152   5.152 -0.0223 -0.2671 -0.2468
 1751TIP3    H126668   5.226   4.080   5.206  0.3103  0.7561  1.3265
 1751TIP3    H226669   5.271   4.224   5.213  1.1195  0.6686 -1.5662
 1752TIP3   OH226670   5.974   1.604   1.094  0.4359 -0.1045  0.7073
 1752TIP3    H126671   5.979   1.533   1.030 -0.6989  0.7265 -0.3178
 1752TIP3    H226672   5.883   1.634   1.090  0.6782  0.8066  1.7753
 1753TIP3   OH226673   6.652   0.254   2.617  0.1577  0.2096 -0.7968
 1753TIP3    H126674   6.714   0.321   2.592  1.4140 -1.0288 -1.0649
 1753TIP3    H226675   6.608   0.230   2.536 -0.5067  0.9018 -0.6505
 1754TIP3   OH226676   4.929   5.226   6.091  0.2943 -0.1992 -0.4874
 1754TIP3    H126677   4.862   5.227   6.023 -0.0180  0.0020 -0.1756
 1754TIP3    H226678   4.887   5.184   6.166  1.1596 -1.9573 -0.9527
 1755TIP3   OH226679   1.033   1.512  12.400  0.2837  0.3413  0.6859
 1755TIP3    H126680   0.997   1.582  12.345  1.9828  0.9222  0.2693
 1755TIP3    H226681   1.077   1.454  12.338  1.2685  0.4105  1.3217
 1756TIP3   OH226682   3.356   6.124  12.240 -0.1382 -1.0099  0.4091
 1756TIP3    H126683   3.398   6.210  12.238 -2.5489  0.2057  0.0545
 1756TIP3    H226684   3.369   6.092  12.329  0.8347 -0.3282  0.5175
 1757TIP3   OH226685   4.207   1.833   4.682 -0.2147  0.2875 -0.8471
 1757TIP3    H126686   4.145   1.804   4.616 -1.6187 -0.1197  0.6254
 1757TIP3    H226687   4.261   1.755   4.700 -2.2769 -0.7140  1.1957
 1758TIP3   OH226688   4.150   3.579   1.361  0.2249  0.0164 -0.0247
 1758TIP3    H126689   4.093   3.612   1.430  0.3987 -1.2443  0.7467
 1758TIP3    H226690   4.093   3.527   1.304  0.1794  0.6207 -0.5341
 1759TIP3   OH226691   1.509   1.309  14.245  0.4393  0.0458  0.2906
 1759TIP3    H126692   1.431   1.330  14.295  1.4063  1.1555  1.3621
 1759TIP3    H226693   1.500   1.216  14.225 -0.7204 -0.0382  1.1553
 1760TIP3   OH226694   3.702   1.058   3.229  0.4240  0.6422 -0.4606
 1760TIP3    H126695   3.628   1.044   3.170 -0.0330  1.1381 -0.0033
 1760TIP3    H226696   3.776   1.073   3.170  0.9262 -3.4946 -1.0158
 1761TIP3   OH226697   2.213   4.983   0.195  0.3485  0.8820 -0.0614
 1761TIP3    H126698   2.122   4.952   0.188  0.1837  0.8826  1.7375
 1761TIP3    H226699   2.258   4.942   0.122 -0.6738 -0.6989  0.1645
 1762TIP3   OH226700   4.603   5.767  16.474 -0.1813 -0.3260  0.1239
 1762TIP3    H126701   4.652   5.700  16.425 -0.5560 -0.4218 -0.1227
 1762TIP3    H226702   4.518   5.772  16.429 -0.3589 -0.0855  0.4859
 1763TIP3   OH226703   4.458   4.693  11.513 -0.0771  0.7789 -0.6072
 1763TIP3    H126704   4.535   4.678  11.457  3.8121  0.8947  4.3882
 1763TIP3    H226705   4.442   4.609  11.555  0.2569  1.8722  1.7901
 1764TIP3   OH226706   6.410   1.829  14.212  0.7339  0.2065  0.5114
 1764TIP3    H126707   6.355   1.841  14.289  1.0879 -0.3930  0.8589
 1764TIP3    H226708   6.448   1.742  14.223 -0.2232 -0.4173 -0.9755
 1765TIP3   OH226709   1.302   6.743   3.076  0.1181  0.3377  0.4692
 1765TIP3    H126710   1.352   6.666   3.100  0.9445  0.7685  0.1452
 1765TIP3    H226711   1.228   6.744   3.138 -0.4853 -1.2804 -0.2161
 1766TIP3   OH226712   0.906   4.107   5.612  0.3782  0.4160  0.5337
 1766TIP3    H126713   0.996   4.121   5.639  0.3519  0.6762  0.4840
 1766TIP3    H226714   0.861   4.078   5.691  1.1647 -2.6971 -0.0955
 1767TIP3   OH226715   3.879   4.952  16.219  0.0212  0.0345 -0.1558
 1767TIP3    H126716   3.928   4.983  16.143  1.6757  0.7674  1.1634
 1767TIP3    H226717   3.936   4.972  16.293 -1.7727 -0.2178  1.3165
 1768TIP3   OH226718   2.282   1.717   4.649 -0.2242 -0.2309  0.1405
 1768TIP3    H126719   2.332   1.672   4.717  0.9882 -1.1294 -1.3383
 1768TIP3    H226720   2.347   1.751   4.588 -1.2780  0.9664 -0.3526
 1769TIP3   OH226721   2.524   6.063  16.443  0.2270 -0.2475  0.4941
 1769TIP3    H126722   2.577   6.127  16.489 -0.1978  0.4884 -0.0356
 1769TIP3    H226723   2.587   6.003  16.403  0.6134 -0.4192  1.3542
 1770TIP3   OH226724   6.329   2.171  10.729 -0.0511 -0.4561 -0.4958
 1770TIP3    H126725   6.423   2.178  10.711 -0.0404  0.6282 -0.0875
 1770TIP3    H226726   6.290   2.146  10.646  0.6763 -1.6176 -0.4996
 1771TIP3   OH226727   3.208   5.026   0.646 -0.2292  0.1416  0.3301
 1771TIP3    H126728   3.217   5.118   0.671  0.0542  0.4731 -0.9737
 1771TIP3    H226729   3.298   4.994   0.637 -0.3256  0.0156 -0.2212
 1772TIP3   OH226730   1.598   3.481  15.504 -0.0213  0.1742 -0.0259
 1772TIP3    H126731   1.647   3.550  15.550  0.5534  0.5399 -1.1549
 1772TIP3    H226732   1.665   3.417  15.479 -0.3358 -0.0359 -0.3361
 1773TIP3   OH226733   3.923   6.786  13.902  0.3297  0.4433 -0.8431
 1773TIP3    H126734   3.900   6.830  13.821  0.2562  1.4478 -0.2814
 1773TIP3    H226735   3.859   6.715  13.910  0.3913  0.2832 -1.6996
 1774TIP3   OH226736   2.870   5.094   5.946 -0.2412 -0.1485  0.6891
 1774TIP3    H126737   2.952   5.121   5.987 -0.0853 -0.4262  0.5614
 1774TIP3    H226738   2.805   5.099   6.016 -0.0607 -0.1980  0.8597
 1775TIP3   OH226739   0.430   1.502  10.915  0.4789  0.1844  0.4170
 1775TIP3    H126740   0.420   1.419  10.962 -2.1295  0.2141 -0.0122
 1775TIP3    H226741   0.478   1.479  10.835  1.0600 -0.6306  0.9877
 1776TIP3   OH226742   0.438   1.118   0.273 -0.0786 -0.2446 -0.2970
 1776TIP3    H126743   0.527   1.101   0.245 -0.5621  0.5266 -2.3882
 1776TIP3    H226744   0.390   1.038   0.254 -0.5022  0.4306 -2.1319
 1777TIP3   OH226745   2.504   5.088   6.485 -0.7328  0.3466 -0.1213
 1777TIP3    H126746   2.448   5.101   6.561  0.0524 -0.5977  0.6400
 1777TIP3    H226747   2.571   5.156   6.492 -1.0203  0.6525 -0.3183
 1778TIP3   OH226748   4.611   3.377   4.632  0.4965  0.4044 -0.1779
 1778TIP3    H126749   4.590   3.440   4.700  0.5381  1.0863 -0.7829
 1778TIP3    H226750   4.634   3.431   4.556  3.3450 -0.3140  0.1314
 1779TIP3   OH226751   3.216   6.368  14.934  0.2745 -0.1191 -0.1711
 1779TIP3    H126752   3.130   6.339  14.966  0.1920 -0.3288 -0.5744
 1779TIP3    H226753   3.265   6.286  14.921  1.0442  0.0652  1.4554
 1780TIP3   OH226754   1.795   1.655  14.458 -0.1894  0.4759  0.4021
 1780TIP3    H126755   1.715   1.614  14.488  0.3652 -0.4983  0.5580
 1780TIP3    H226756   1.805   1.627  14.367 -0.0919  0.7054  0.3395
 1781TIP3   OH226757   1.721   4.129   0.523  0.5192  0.2371 -0.2051
 1781TIP3    H126758   1.815   4.138   0.510  0.6441  0.2750  0.6688
 1781TIP3    H226759   1.695   4.211   0.566 -0.0098  0.4640 -0.9419
 1782TIP3   OH226760   2.756   2.238   1.344  0.1104  0.3124 -0.4918
 1782TIP3    H126761   2.848   2.219   1.330 -0.1033 -0.9403 -0.3087
 1782TIP3    H226762   2.731   2.183   1.419 -0.7582  0.7078 -0.4754
 1783TIP3   OH226763   3.900   4.323   5.200 -0.0809  0.0509  0.5101
 1783TIP3    H126764   3.961   4.280   5.259  0.7778  2.0251  1.1189
 1783TIP3    H226765   3.952   4.392   5.158 -1.1578 -0.1265 -1.1506
 1784TIP3   OH226766   5.284   1.906  16.421  0.4708 -0.0197  0.0475
 1784TIP3    H126767   5.291   1.865  16.335  1.6827 -1.0295  0.6113
 1784TIP3    H226768   5.200   1.876  16.455  0.7534 -0.9989 -0.0929
 1785TIP3   OH226769   2.593   4.887  10.768 -0.6392  0.0706 -0.0462
 1785TIP3    H126770   2.656   4.874  10.839 -1.9462  1.2887  1.3589
 1785TIP3    H226771   2.647   4.922  10.696  0.2801  1.4276  1.2485
 1786TIP3   OH226772   6.663   1.468  12.962  0.5727 -0.3488 -0.4304
 1786TIP3    H126773   6.739   1.418  12.932  0.9943  0.1322 -0.1784
 1786TIP3    H226774   6.696   1.558  12.971  0.1451 -0.2681  0.3472
 1787TIP3   OH226775   2.581   1.463   2.565 -0.0199 -0.6970 -0.2296
 1787TIP3    H126776   2.657   1.521   2.557  0.7008 -1.4236  1.0570
 1787TIP3    H226777   2.613   1.389   2.617 -1.3301 -1.5256 -0.5735
 1788TIP3   OH226778   2.687   3.334  12.594  0.3337 -0.4408 -0.3978
 1788TIP3    H126779   2.722   3.419  12.567 -1.9869  1.0013  0.9746
 1788TIP3    H226780   2.700   3.332  12.689 -1.1545 -0.8877 -0.2008
 1789TIP3   OH226781   5.049   0.812  15.530  0.0850 -0.3280  0.6169
 1789TIP3    H126782   4.975   0.806  15.470 -0.3385  1.8960  0.8763
 1789TIP3    H226783   5.064   0.906  15.541  2.7885 -0.7197  0.7542
 1790TIP3   OH226784   3.244   6.296   5.760  0.0676  0.5060  0.4850
 1790TIP3    H126785   3.150   6.290   5.739  0.3656 -3.2419 -0.1107
 1790TIP3    H226786   3.246   6.339   5.845 -2.1682  1.2942  0.1787
 1791TIP3   OH226787   5.174   2.065   2.964 -0.2796  0.1691  0.6596
 1791TIP3    H126788   5.125   2.029   2.891  0.3731  1.2871 -0.3432
 1791TIP3    H226789   5.151   2.158   2.964  1.6244  0.6429  0.3550
 1792TIP3   OH226790   5.369   4.824  14.504  0.1165  0.4797  0.0324
 1792TIP3    H126791   5.401   4.736  14.484 -2.2643 -0.6235  0.9906
 1792TIP3    H226792   5.308   4.844  14.434  0.7563  1.4580 -0.2630
 1793TIP3   OH226793   5.710   5.436   4.979  0.2178  0.7239 -0.2843
 1793TIP3    H126794   5.642   5.386   5.025 -0.1573 -0.3816 -2.0234
 1793TIP3    H226795   5.782   5.375   4.969  0.3095  0.9621 -1.1284
 1794TIP3   OH226796   2.124   0.189  12.272 -0.1476 -0.0781  0.2649
 1794TIP3    H126797   2.137   0.166  12.180 -1.1088 -0.6205  0.2627
 1794TIP3    H226798   2.076   0.272  12.270  1.9061  1.1313  0.2812
 1795TIP3   OH226799   4.254   6.581   5.548 -0.1247  0.6931  0.2406
 1795TIP3    H126800   4.299   6.549   5.470  0.3228 -0.9144  1.1204
 1795TIP3    H226801   4.305   6.656   5.577  0.9535 -0.0129  0.1873
 1796TIP3   OH226802   6.703   5.048  10.742 -0.1175  0.6846  0.4217
 1796TIP3    H126803   6.674   5.081  10.827 -1.7887 -1.7548  0.8359
 1796TIP3    H226804   6.682   5.119  10.680  0.8622  2.3586  1.9548
 1797TIP3   OH226805   0.803   3.739  15.140 -0.6364 -0.3052  0.0272
 1797TIP3    H126806   0.873   3.760  15.202 -0.2463  1.1612 -0.9038
 1797TIP3    H226807   0.728   3.789  15.171 -0.6605 -0.1790 -0.2365
 1798TIP3   OH226808   6.670   2.297   4.918  0.0570 -0.0524 -0.2385
 1798TIP3    H126809   6.608   2.261   4.855 -1.8636 -2.5322  2.9699
 1798TIP3    H226810   6.741   2.233   4.920 -1.0741 -1.2840  1.9017
 1799TIP3   OH226811   1.896   1.114   1.707 -0.1134 -0.1879  0.2497
 1799TIP3    H126812   1.978   1.147   1.669  0.3697  0.3663  1.7452
 1799TIP3    H226813   1.871   1.042   1.649 -0.3356  1.7577 -2.1490
 1800TIP3   OH226814   3.351   6.247   2.990 -0.3678  0.8785  0.5713
 1800TIP3    H126815   3.382   6.325   3.035 -1.4060  1.9834 -0.5803
 1800TIP3    H226816   3.272   6.275   2.944  0.0394 -0.4636 -1.0310
 1801TIP3   OH226817   4.798   3.439   5.156 -0.5665 -0.4265  0.0909
 1801TIP3    H126818   4.730   3.478   5.211 -0.8620 -1.3132  0.3650
 1801TIP3    H226819   4.877   3.488   5.177 -0.8343 -0.2854  0.7792
 1802TIP3   OH226820   4.671   2.893  13.874  0.4235 -0.3234 -0.3037
 1802TIP3    H126821   4.584   2.926  13.851  0.9467  0.9297 -0.5270
 1802TIP3    H226822   4.730   2.967  13.856  1.6822 -1.5434 -1.2827
 1803TIP3   OH226823   2.358   3.073   4.336  0.4549  0.4105 -0.1709
 1803TIP3    H126824   2.336   2.994   4.387  1.6287  0.6156  0.6694
 1803TIP3    H226825   2.340   3.048   4.246  0.7887 -0.8346  0.0852
 1804TIP3   OH226826   6.210   1.021   3.548  0.2168  0.7080  0.3054
 1804TIP3    H126827   6.125   0.994   3.583 -0.6221  3.0115  0.1199
 1804TIP3    H226828   6.244   0.943   3.504 -0.8485 -0.8418  2.1527
 1805TIP3   OH226829   1.999   5.056   1.262  0.6690 -0.1036 -0.0036
 1805TIP3    H126830   1.939   4.983   1.278 -0.5499  0.5162 -1.5997
 1805TIP3    H226831   1.984   5.116   1.335 -0.4808 -0.0915 -0.2405
 1806TIP3   OH226832   2.457   5.985  12.553  0.2699  0.4181  0.1001
 1806TIP3    H126833   2.427   5.946  12.635  1.8139 -0.2875  0.3489
 1806TIP3    H226834   2.411   6.069  12.548 -1.6417 -0.5960  0.4963
 1807TIP3   OH226835   2.847   4.756  14.630  0.7801  0.0623  0.0270
 1807TIP3    H126836   2.851   4.671  14.673  2.1044  0.7133  1.2338
 1807TIP3    H226837   2.772   4.749  14.571 -0.0159 -1.4492  1.1557
 1808TIP3   OH226838   3.663   4.971  14.230 -0.3801  0.1609  0.5293
 1808TIP3    H126839   3.727   4.917  14.183 -0.9060 -0.1394  0.1555
 1808TIP3    H226840   3.685   5.061  14.206 -0.3505  0.0369  0.0832
 1809TIP3   OH226841   3.728   6.549   4.842  0.1400  0.1494 -0.2564
 1809TIP3    H126842   3.756   6.552   4.934  1.5437  1.4172 -0.7041
 1809TIP3    H226843   3.706   6.640   4.821  0.3718 -0.0385 -1.3304
 1810TIP3   OH226844   0.985   0.454  11.442 -0.6909 -0.1510 -0.3530
 1810TIP3    H126845   0.930   0.378  11.423  0.4708 -1.5533  1.6979
 1810TIP3    H226846   0.927   0.516  11.486 -0.5777 -1.8575  2.3215
 1811TIP3   OH226847   6.267   6.196   0.115  0.2884 -0.0183  0.0778
 1811TIP3    H126848   6.226   6.270   0.071  0.1878 -0.7127 -1.0001
 1811TIP3    H226849   6.317   6.151   0.047  1.1809 -0.3678  0.9412
 1812TIP3   OH226850   5.841   5.631  14.874  0.2359 -0.4581 -0.2390
 1812TIP3    H126851   5.768   5.683  14.907  1.1139  1.0145 -0.6012
 1812TIP3    H226852   5.875   5.681  14.800  0.2643 -2.1856 -1.4376
 1813TIP3   OH226853   5.834   2.713   5.766  0.2339 -0.7649  0.8965
 1813TIP3    H126854   5.810   2.755   5.849  0.6784 -0.4949  0.8902
 1813TIP3    H226855   5.841   2.620   5.788  1.0535 -0.6022  1.3216
 1814TIP3   OH226856   3.404   4.174  14.419 -0.2800 -0.2864  0.2744
 1814TIP3    H126857   3.383   4.155  14.328 -3.2528  0.3762  0.7637
 1814TIP3    H226858   3.421   4.268  14.421  0.5956 -0.4442  0.2605
 1815TIP3   OH226859   0.449   1.970   2.927  0.0210 -0.1568  0.1958
 1815TIP3    H126860   0.356   1.962   2.945 -0.0080  1.6578  0.9535
 1815TIP3    H226861   0.454   2.002   2.837 -0.1789  1.5386  0.7553
 1816TIP3   OH226862   5.096   0.385   2.063  0.1679 -0.2319  0.1323
 1816TIP3    H126863   5.025   0.398   2.000 -1.3561 -1.8202  1.4895
 1816TIP3    H226864   5.091   0.462   2.120 -0.2995 -0.2045  0.0602
 1817TIP3   OH226865   6.310   6.213  16.032 -0.5688  0.3380 -0.1420
 1817TIP3    H126866   6.293   6.133  15.982 -0.5005  0.0713  0.2596
 1817TIP3    H226867   6.245   6.275  15.999 -0.9031 -0.0123 -0.1586
 1818TIP3   OH226868   3.293   3.094   4.203  0.1435  0.3042  0.4741
 1818TIP3    H126869   3.286   3.018   4.146 -1.0080  0.3657  0.5307
 1818TIP3    H226870   3.283   3.058   4.292 -1.3954  0.6463  0.4455
 1819TIP3   OH226871   2.058   0.929  15.108  0.6598  0.5217 -0.2535
 1819TIP3    H126872   2.009   0.980  15.043 -0.4188  0.4170  0.4684
 1819TIP3    H226873   2.089   0.852  15.060 -1.2738 -0.2320 -0.3267
 1820TIP3   OH226874   1.323   0.874  11.995  0.4107 -0.0872  0.1347
 1820TIP3    H126875   1.269   0.799  11.970 -1.5768  1.1776  0.5581
 1820TIP3    H226876   1.265   0.929  12.047  1.6027  2.1899 -0.9067
 1821TIP3   OH226877   0.029   2.227  15.610  0.1705  0.1893  0.6179
 1821TIP3    H126878   0.096   2.159  15.602  0.8608  0.9786 -0.3551
 1821TIP3    H226879   0.069   2.305  15.573 -0.4584  1.2645  2.1690
 1822TIP3   OH226880   0.319   6.504   1.653  0.4937 -0.8644 -0.1805
 1822TIP3    H126881   0.290   6.573   1.592  0.1699 -1.9500 -1.2830
 1822TIP3    H226882   0.330   6.549   1.736 -1.2534  0.2280 -0.5083
 1823TIP3   OH226883   2.147   3.359  14.388  0.0440 -0.2506  0.2592
 1823TIP3    H126884   2.119   3.437  14.340  0.5644 -1.0719 -1.4545
 1823TIP3    H226885   2.120   3.374  14.478 -1.8897  0.9189 -0.4873
 1824TIP3   OH226886   6.400   2.723   0.954 -0.3002 -0.1546  0.0042
 1824TIP3    H126887   6.318   2.716   0.905 -0.8791 -1.2180  1.1051
 1824TIP3    H226888   6.400   2.647   1.012  2.2567 -1.1078 -1.1563
 1825TIP3   OH226889   1.895   1.603  14.174 -0.4766  0.7668  0.1252
 1825TIP3    H126890   1.812   1.556  14.166  0.5356 -0.8024 -1.6053
 1825TIP3    H226891   1.960   1.543  14.138  1.3607  2.1365  1.0728
 1826TIP3   OH226892   3.942   2.544  14.997  0.1242 -0.4516 -0.3182
 1826TIP3    H126893   3.850   2.538  15.023 -0.2949  0.9405 -1.3830
 1826TIP3    H226894   3.988   2.570  15.077 -0.6139  0.1702 -0.0804
 1827TIP3   OH226895   5.864   6.195  15.258 -0.0914 -0.0865 -0.5715
 1827TIP3    H126896   5.818   6.272  15.292  1.7469  1.2763 -1.0878
 1827TIP3    H226897   5.905   6.225  15.177  1.1403 -1.4375 -0.4776
 1828TIP3   OH226898   2.353   2.702   6.391 -0.4812 -0.5118  0.1811
 1828TIP3    H126899   2.408   2.671   6.463  0.1329 -2.1002 -0.9291
 1828TIP3    H226900   2.391   2.786   6.366 -1.4301  0.6275  2.4629
 1829TIP3   OH226901   5.113   3.509  11.968 -0.0821 -0.1537 -0.2472
 1829TIP3    H126902   5.041   3.542  12.022  1.3001  3.6290 -0.5701
 1829TIP3    H226903   5.178   3.477  12.031 -0.2902  0.3048  0.2010
 1830TIP3   OH226904   0.829   0.290   2.274  0.1751  0.5939  0.5352
 1830TIP3    H126905   0.835   0.251   2.362 -0.0795  0.4760  0.5012
 1830TIP3    H226906   0.760   0.356   2.283  0.5916  1.0220  0.5869
 1831TIP3   OH226907   2.943   6.436  14.477  0.0386  0.2349  0.0074
 1831TIP3    H126908   3.022   6.383  14.466  0.9697  1.6066 -0.0623
 1831TIP3    H226909   2.935   6.450  14.571 -1.2965 -1.6124  0.1983
 1832TIP3   OH226910   4.253   0.697  14.693 -0.1266  0.0890  0.8513
 1832TIP3    H126911   4.207   0.621  14.731  0.1884 -0.9230 -0.7346
 1832TIP3    H226912   4.186   0.739  14.639  0.3061 -0.3648 -0.0494
 1833TIP3   OH226913   5.128   6.028  14.717  0.0333 -0.1506  0.5665
 1833TIP3    H126914   5.188   6.103  14.715  0.0062 -0.1066  1.2134
 1833TIP3    H226915   5.172   5.964  14.774  0.4068 -0.9357 -0.5748
 1834TIP3   OH226916   6.714   6.202   2.767 -0.5964  0.1780  0.1735
 1834TIP3    H126917   6.692   6.290   2.799  0.8909  0.8838 -0.6477
 1834TIP3    H226918   6.710   6.210   2.672  1.7950  0.0095  0.0191
 1835TIP3   OH226919   2.939   5.881  15.613 -0.4209 -0.3034 -0.3507
 1835TIP3    H126920   2.981   5.873  15.698 -0.2434  0.4460 -0.3701
 1835TIP3    H226921   2.955   5.971  15.586  2.3619 -1.4109 -2.6803
 1836TIP3   OH226922   3.456   1.357   0.313 -0.2326  0.2374  0.4347
 1836TIP3    H126923   3.518   1.315   0.372  1.3249 -0.8859 -1.9230
 1836TIP3    H226924   3.506   1.428   0.272 -0.2838 -0.9812 -1.8439
 1837TIP3   OH226925   0.902   0.072  11.707 -0.1974 -0.1648  0.1532
 1837TIP3    H126926   0.982   0.065  11.759  0.9945 -0.9360 -1.7165
 1837TIP3    H226927   0.887  -0.017  11.674 -1.0812  0.2405 -0.5651
 1838TIP3   OH226928   0.558   2.369  15.904 -0.1596 -0.1564 -0.4376
 1838TIP3    H126929   0.617   2.328  15.841 -0.7114 -1.1523 -0.3241
 1838TIP3    H226930   0.616   2.411  15.967  0.4140 -0.2814 -0.8749
 1839TIP3   OH226931   5.513   0.558   6.482  1.0446  0.4813 -1.2419
 1839TIP3    H126932   5.577   0.545   6.412  1.4014 -1.1350 -0.6133
 1839TIP3    H226933   5.537   0.495   6.550  0.3036  1.5866  0.0724
 1840TIP3   OH226934   4.950   6.716  15.486 -0.1592  0.0996 -0.1658
 1840TIP3    H126935   5.039   6.692  15.460  0.3902  1.1769  0.6672
 1840TIP3    H226936   4.940   6.806  15.455 -0.8389  0.0997  0.0474
 1841TIP3   OH226937   6.419   3.492  16.625 -0.5404 -0.3884 -0.3238
 1841TIP3    H126938   6.372   3.427  16.572  1.8554 -3.0315  0.7187
 1841TIP3    H226939   6.364   3.503  16.703 -1.0656 -0.9645 -0.6066
 1842TIP3   OH226940   3.562   6.753  13.824  0.4568 -0.2490  0.0466
 1842TIP3    H126941   3.481   6.783  13.864  1.2433  0.6195  1.0070
 1842TIP3    H226942   3.545   6.757  13.730 -0.3258  0.7815  0.2204
 1843TIP3   OH226943   6.727   2.959   5.701 -0.8050  0.3158  0.1901
 1843TIP3    H126944   6.713   2.998   5.788  0.9569 -0.6660  0.9497
 1843TIP3    H226945   6.773   3.026   5.652  1.4381 -0.4184  1.2133
 1844TIP3   OH226946   2.450   4.382   4.487  0.1342 -0.1660 -1.0998
 1844TIP3    H126947   2.504   4.372   4.565  0.5113  1.0527 -1.2048
 1844TIP3    H226948   2.466   4.471   4.458  1.1304 -1.0620 -3.4227
 1845TIP3   OH226949   2.087   4.633   1.095  0.0245 -1.0698 -0.5084
 1845TIP3    H126950   2.051   4.640   1.184  0.9674 -1.0643 -0.1234
 1845TIP3    H226951   2.044   4.703   1.047  0.2248 -0.4582  0.1895
 1846TIP3   OH226952   0.444   0.480   0.673 -0.1957  0.6204  0.3264
 1846TIP3    H126953   0.510   0.413   0.655 -0.2309  1.0296 -1.4165
 1846TIP3    H226954   0.481   0.533   0.743  1.0360  0.4516 -0.1956
 1847TIP3   OH226955   6.296   3.739   0.779  0.3920  0.0227  0.4337
 1847TIP3    H126956   6.284   3.831   0.756  0.7298  0.3211  1.4297
 1847TIP3    H226957   6.210   3.711   0.809  0.5592  0.3241  1.1991
 1848TIP3   OH226958   0.803   3.898  13.316 -0.2267 -0.2426 -0.0941
 1848TIP3    H126959   0.734   3.942  13.266 -0.3659 -0.5766 -0.1999
 1848TIP3    H226960   0.802   3.942  13.401 -1.1663 -0.8098  0.2073
 1849TIP3   OH226961   2.037   3.584  15.975 -0.5901 -0.1444 -0.1523
 1849TIP3    H126962   1.998   3.522  16.036  0.3542 -1.2663 -0.6697
 1849TIP3    H226963   2.086   3.530  15.913  0.7663  1.1401 -0.2483
 1850TIP3   OH226964   3.685   2.760  17.125  0.3757 -0.3772 -0.4061
 1850TIP3    H126965   3.616   2.694  17.133 -1.7725  1.7131 -1.2773
 1850TIP3    H226966   3.677   2.793  17.036  2.4239  0.0108 -0.4705
 1851TIP3   OH226967   3.871   4.824  15.569  0.3467  0.4699 -0.1316
 1851TIP3    H126968   3.892   4.750  15.512 -0.7290  1.2573 -1.5968
 1851TIP3    H226969   3.869   4.787  15.657 -0.1618 -1.2399 -0.8456
 1852TIP3   OH226970   3.786   0.453   1.303 -0.0798 -0.2329 -0.2578
 1852TIP3    H126971   3.816   0.538   1.270  0.3629 -0.8350 -1.4422
 1852TIP3    H226972   3.846   0.432   1.374  0.8703 -0.3227 -1.0724
 1853TIP3   OH226973   4.785   2.415   1.684 -0.7741  0.0474  0.4308
 1853TIP3    H126974   4.706   2.459   1.715  0.4454  0.7765  2.6564
 1853TIP3    H226975   4.855   2.477   1.702  0.7188 -1.9451  1.7366
 1854TIP3   OH226976   0.777   3.496   3.735  0.6897 -0.5802 -0.1089
 1854TIP3    H126977   0.839   3.521   3.666  1.3490 -0.5222  0.4987
 1854TIP3    H226978   0.820   3.423   3.780 -0.5061 -1.7647 -0.8489
 1855TIP3   OH226979   1.713   0.590   4.948 -0.0723 -0.1422 -0.4874
 1855TIP3    H126980   1.805   0.564   4.934 -0.2029 -1.3950  0.9263
 1855TIP3    H226981   1.718   0.658   5.015 -0.1666 -0.0851 -0.5385
 1856TIP3   OH226982   0.190   1.292   0.247 -0.3725 -0.2419  0.3283
 1856TIP3    H126983   0.264   1.232   0.241 -1.1501 -1.2522  0.6810
 1856TIP3    H226984   0.218   1.371   0.200  1.3931 -0.1212  1.5588
 1857TIP3   OH226985   1.757   3.718  14.730  0.3448 -0.0063 -0.0153
 1857TIP3    H126986   1.747   3.789  14.666 -1.2689 -2.3010 -2.4214
 1857TIP3    H226987   1.685   3.733  14.792 -0.8274 -0.2874 -1.2780
 1858TIP3   OH226988   0.919   5.322   2.914 -0.1032  0.4189 -0.7284
 1858TIP3    H126989   0.832   5.351   2.887  0.0353  1.4394 -0.1421
 1858TIP3    H226990   0.974   5.399   2.900  0.7090 -0.2333 -1.1285
 1859TIP3   OH226991   6.209   1.301  16.148 -0.2205  0.3309  0.2159
 1859TIP3    H126992   6.193   1.270  16.059 -1.6912 -2.1258  1.3102
 1859TIP3    H226993   6.304   1.291  16.160 -0.0378  0.5549 -1.0232
 1860TIP3   OH226994   5.370   1.935   3.516 -1.0288 -0.2343 -0.2008
 1860TIP3    H126995   5.303   1.938   3.449 -1.1503 -1.8946 -0.1645
 1860TIP3    H226996   5.433   1.871   3.485 -0.1593  0.3005  0.4234
 1861TIP3   OH226997   2.686   0.033  15.027  0.2851  0.3895 -0.4134
 1861TIP3    H126998   2.600  -0.006  15.036  0.1484  0.7296 -0.2513
 1861TIP3    H226999   2.708   0.023  14.934 -0.5002  1.5070 -0.7273
 1862TIP3   OH227000   5.206   5.060   4.479 -0.2620  0.4454 -0.3622
 1862TIP3    H127001   5.120   5.042   4.442  0.1600  0.3017 -1.2678
 1862TIP3    H227002   5.220   5.154   4.464 -0.3533  0.5212  0.0005
 1863TIP3   OH227003   5.821   3.128  14.671  0.1286  0.4289 -0.0045
 1863TIP3    H127004   5.777   3.197  14.621 -1.1084 -0.1977  0.2049
 1863TIP3    H227005   5.773   3.048  14.649  0.9897 -0.2272  0.4585
 1864TIP3   OH227006   1.267   4.885  14.359  0.6968 -0.0633  0.4027
 1864TIP3    H127007   1.207   4.835  14.414 -0.0192  0.6944  0.3155
 1864TIP3    H227008   1.224   4.970  14.347  1.4470  0.2282 -0.2629
 1865TIP3   OH227009   5.890   0.829   1.534  0.3300  0.3339 -0.2963
 1865TIP3    H127010   5.882   0.780   1.452  2.0022 -0.7716  0.1666
 1865TIP3    H227011   5.875   0.764   1.603 -1.0509  1.2481  0.2800
 1866TIP3   OH227012   5.122   3.719   1.481 -0.3038 -0.1902  0.0667
 1866TIP3    H127013   5.103   3.662   1.556 -1.0740 -0.0742 -0.0340
 1866TIP3    H227014   5.133   3.658   1.408 -0.9571 -0.2198 -0.0067
 1867TIP3   OH227015   5.543   6.481  13.165 -0.1358  0.0609  0.2386
 1867TIP3    H127016   5.639   6.483  13.169 -0.1237 -0.3628  0.2041
 1867TIP3    H227017   5.518   6.570  13.141  0.2751  0.0616 -0.1933
 1868TIP3   OH227018   4.570   4.109  13.073 -0.7385  0.1130 -0.3598
 1868TIP3    H127019   4.540   4.131  12.985  1.3874  1.2338 -0.8290
 1868TIP3    H227020   4.528   4.174  13.130 -2.6475 -1.0153 -0.4129
 1869TIP3   OH227021   5.881   4.015  11.402 -0.4682 -0.2643  0.1557
 1869TIP3    H127022   5.855   4.025  11.494 -1.9481 -3.6846  0.1784
 1869TIP3    H227023   5.805   3.973  11.360  1.6311 -2.2912 -1.7792
 1870TIP3   OH227024   0.823   0.382   2.676 -0.1244 -0.3546 -0.2113
 1870TIP3    H127025   0.743   0.431   2.657 -0.7072 -1.2529 -0.1231
 1870TIP3    H227026   0.836   0.393   2.771  0.9842  1.4388 -0.5328
 1871TIP3   OH227027   4.187   4.682   4.149  0.1973  0.0487 -0.4100
 1871TIP3    H127028   4.151   4.633   4.223  0.3357  3.1041  1.8064
 1871TIP3    H227029   4.117   4.684   4.084 -0.4969 -1.3662  0.2784
 1872TIP3   OH227030   4.252   1.957   1.904 -0.3946 -0.3220  0.3279
 1872TIP3    H127031   4.210   2.019   1.844 -0.4809 -1.1523 -0.4716
 1872TIP3    H227032   4.188   1.888   1.917  1.0826 -2.1721 -1.7824
 1873TIP3   OH227033   6.523   0.854   5.738  0.7440  0.0926  0.5081
 1873TIP3    H127034   6.466   0.848   5.814 -0.2763 -0.2713 -0.2685
 1873TIP3    H227035   6.498   0.779   5.684  1.2261  0.5310 -0.3316
 1874TIP3   OH227036   4.597   0.669  11.075 -0.3547  0.1309 -0.0537
 1874TIP3    H127037   4.527   0.703  11.131  0.3209  2.4843 -0.5863
 1874TIP3    H227038   4.661   0.740  11.072  0.6291 -0.8225 -2.0385
 1875TIP3   OH227039   6.547   0.175   2.393  0.0166 -0.5011 -0.5453
 1875TIP3    H127040   6.463   0.150   2.432  0.1709  0.1279  0.2028
 1875TIP3    H227041   6.526   0.199   2.303 -0.6405 -0.1628 -0.3053
 1876TIP3   OH227042   1.096   4.028   4.041  0.3781 -0.5551 -0.2290
 1876TIP3    H127043   1.147   4.076   4.106  0.7814 -0.3674 -0.6839
 1876TIP3    H227044   1.161   3.999   3.976 -0.1961  0.2813 -1.1726
 1877TIP3   OH227045   3.147   6.414  13.402 -0.3941  0.3209  0.2124
 1877TIP3    H127046   3.055   6.440  13.394 -0.0200  1.2409 -1.3358
 1877TIP3    H227047   3.143   6.320  13.419 -1.6117  0.1861 -0.6894
 1878TIP3   OH227048   1.669   3.738   1.652  0.3444 -0.6110  0.1416
 1878TIP3    H127049   1.638   3.652   1.626 -2.0144  1.0768 -3.0466
 1878TIP3    H227050   1.756   3.745   1.610 -0.0529 -0.9274 -0.7542
 1879TIP3   OH227051   6.750   0.918  14.130 -0.0443  0.0929 -0.1710
 1879TIP3    H127052   6.722   0.837  14.172 -0.5556 -0.5185 -1.6728
 1879TIP3    H227053   6.685   0.983  14.158 -0.5128 -0.3548 -0.2113
 1880TIP3   OH227054   2.149   4.926   4.265  0.0768  0.1506 -0.0116
 1880TIP3    H127055   2.058   4.940   4.289 -0.3207 -0.3856 -1.1854
 1880TIP3    H227056   2.148   4.912   4.170  1.2886 -0.5752  0.0658
 1881TIP3   OH227057   5.435   1.646  14.106  0.0722 -0.1171 -0.3262
 1881TIP3    H127058   5.468   1.734  14.125  0.9567 -0.7511  1.1204
 1881TIP3    H227059   5.505   1.605  14.055  0.2810 -0.4820  0.2547
 1882TIP3   OH227060   5.722   6.574  12.192 -0.1427  0.2383  0.1517
 1882TIP3    H127061   5.632   6.585  12.222  0.6828  2.8416  1.8759
 1882TIP3    H227062   5.715   6.563  12.098 -2.3851 -1.5507  0.4829
 1883TIP3   OH227063   6.415   4.770  13.558 -0.0921  0.2183 -0.2246
 1883TIP3    H127064   6.481   4.737  13.498  0.4590  2.1840 -0.7229
 1883TIP3    H227065   6.464   4.797  13.636 -0.5040  0.0636  0.0896
 1884TIP3   OH227066   2.144   1.720  13.777  0.5197  0.0179  0.0181
 1884TIP3    H127067   2.174   1.707  13.687 -0.5838  0.7261 -0.4630
 1884TIP3    H227068   2.080   1.651  13.791  0.4320  0.1240  0.1386
 1885TIP3   OH227069   0.826   2.415   0.010  0.3574 -0.2529  0.0939
 1885TIP3    H127070   0.871   2.475  -0.050  2.0678  0.4309  2.0048
 1885TIP3    H227071   0.740   2.401  -0.030  1.1313  0.8928 -2.0385
 1886TIP3   OH227072   2.014   2.092  15.132  0.7510  0.1179 -0.7640
 1886TIP3    H127073   2.042   2.159  15.070  2.1884 -0.3392 -0.6481
 1886TIP3    H227074   2.084   2.090  15.197 -0.8769  0.8031  1.0531
 1887TIP3   OH227075   0.522   5.175  14.876  0.0189  0.3277 -0.4062
 1887TIP3    H127076   0.569   5.156  14.795  1.2268  1.4333  0.0163
 1887TIP3    H227077   0.476   5.257  14.860  2.5524  2.0620  0.9440
 1888TIP3   OH227078   3.413   5.781   1.800 -0.2734 -0.2184 -0.0749
 1888TIP3    H127079   3.493   5.789   1.852  1.3108  0.0704 -2.5000
 1888TIP3    H227080   3.349   5.834   1.847  0.6812 -1.1787  2.3830
 1889TIP3   OH227081   6.344   3.449  11.885 -0.1992  0.4102 -0.4615
 1889TIP3    H127082   6.306   3.525  11.930  2.8715  1.1023  1.1433
 1889TIP3    H227083   6.380   3.396  11.956  2.1743  0.0456 -1.8809
 1890TIP3   OH227084   4.634   2.990   3.804 -0.7611 -0.0875 -0.0981
 1890TIP3    H127085   4.707   3.010   3.746 -1.4290 -0.2600 -1.0081
 1890TIP3    H227086   4.562   3.044   3.772 -1.2797 -0.5627  0.2456
 1891TIP3   OH227087   5.745   0.931  13.773  0.4019 -0.0369 -0.0714
 1891TIP3    H127088   5.827   0.894  13.742  1.3556  1.2455  0.8842
 1891TIP3    H227089   5.694   0.856  13.802  1.8145 -0.7191  0.6790
 1892TIP3   OH227090   2.061   6.410  15.810 -0.3040  0.4163 -0.4563
 1892TIP3    H127091   1.969   6.434  15.809 -0.8461 -1.5268 -0.2143
 1892TIP3    H227092   2.075   6.368  15.895  0.7044  0.3824 -0.6246
 1893TIP3   OH227093   6.550   3.665   3.196 -0.5960 -0.1508  0.7581
 1893TIP3    H127094   6.515   3.599   3.136 -0.9294  0.5059  0.2291
 1893TIP3    H227095   6.477   3.726   3.209  0.7831  2.0475 -1.5104
 1894TIP3   OH227096   3.197   2.864   4.120  0.0406 -0.0591  0.1704
 1894TIP3    H127097   3.223   2.776   4.149  0.6618 -0.0211 -0.2659
 1894TIP3    H227098   3.208   2.861   4.025 -1.6045 -0.0624 -0.0309
 1895TIP3   OH227099   1.786   0.166  12.188  0.2568  0.7822  0.4291
 1895TIP3    H127100   1.793   0.214  12.105 -0.5153  2.3890  1.2655
 1895TIP3    H227101   1.744   0.228  12.248  0.3054 -0.5523  1.8740
 1896TIP3   OH227102   0.578   3.730   0.487  0.1442  0.0218 -0.4529
 1896TIP3    H127103   0.543   3.647   0.518 -0.6755  0.1550 -1.0005
 1896TIP3    H227104   0.606   3.712   0.397  1.3759 -0.0517 -0.0599
 1897TIP3   OH227105   2.979   6.703  16.465 -0.0510 -0.0111 -0.6609
 1897TIP3    H127106   2.902   6.756  16.444  0.6095  0.8161 -0.9955
 1897TIP3    H227107   3.016   6.680  16.380  1.2906  1.3929 -0.4838
 1898TIP3   OH227108   3.321   6.768   4.323  0.6641  0.5791 -0.2996
 1898TIP3    H127109   3.304   6.701   4.257  0.8739  1.9958 -1.8270
 1898TIP3    H227110   3.240   6.774   4.373  0.5164 -0.5325 -0.3950
 1899TIP3   OH227111   6.246   0.335   4.302 -0.1209 -0.3512  0.3972
 1899TIP3    H127112   6.187   0.316   4.229  0.3085  0.3902 -0.1533
 1899TIP3    H227113   6.333   0.330   4.264  0.1316 -0.4900  0.9873
 1900TIP3   OH227114   1.509   5.807  14.539  0.0310  0.4315  0.3016
 1900TIP3    H127115   1.478   5.719  14.561  1.8537 -0.2341  0.3375
 1900TIP3    H227116   1.584   5.821  14.597 -0.3455  2.0999  0.4289
 1901TIP3   OH227117   0.287   0.316  15.629 -0.5606  0.1793 -0.3609
 1901TIP3    H127118   0.378   0.320  15.659 -0.4179  1.3036 -0.9098
 1901TIP3    H227119   0.290   0.259  15.553 -0.6767 -1.4986  0.8833
 1902TIP3   OH227120   3.001   2.674  16.956 -0.9290 -0.5753  0.1988
 1902TIP3    H127121   2.978   2.767  16.958  3.4440  0.6402  0.7576
 1902TIP3    H227122   2.986   2.644  17.045 -2.3015 -0.3930  0.0341
 1903TIP3   OH227123   3.403   4.669  16.225 -0.3796 -0.4392 -0.2440
 1903TIP3    H127124   3.411   4.722  16.146 -2.1780  0.5353  0.1942
 1903TIP3    H227125   3.308   4.661  16.240 -0.1719 -3.6269 -0.1747
 1904TIP3   OH227126   1.530   3.128   1.530 -0.4704 -0.6978 -0.5901
 1904TIP3    H127127   1.522   3.218   1.561  2.2305 -0.6396  0.0679
 1904TIP3    H227128   1.479   3.125   1.449  0.8997  1.9210 -1.5875
 1905TIP3   OH227129   4.980   1.691   3.912  0.0018 -0.0789 -0.1665
 1905TIP3    H127130   4.942   1.671   3.827  0.3332  1.0734 -0.6079
 1905TIP3    H227131   4.917   1.752   3.953 -0.8917 -1.7705  1.0459
 1906TIP3   OH227132   4.287   3.739   2.314  0.4782  0.2216 -0.4117
 1906TIP3    H127133   4.312   3.732   2.406  0.0793 -1.1600 -0.4013
 1906TIP3    H227134   4.347   3.682   2.267 -0.9940 -1.1392 -0.6870
 1907TIP3   OH227135   4.005   0.234   6.444  0.5291 -0.0166 -0.1688
 1907TIP3    H127136   4.055   0.250   6.524  1.4238 -2.2416 -0.2488
 1907TIP3    H227137   4.036   0.300   6.382  0.3757  1.2355  1.0656
 1908TIP3   OH227138   3.866   5.206  11.690 -0.2140 -0.2039  0.1598
 1908TIP3    H127139   3.778   5.178  11.665 -0.2393 -0.7410  0.8295
 1908TIP3    H227140   3.851   5.277  11.753 -0.1751 -0.5337  0.5445
 1909TIP3   OH227141   1.503   5.726   2.165  0.5600  0.6471  0.0722
 1909TIP3    H127142   1.490   5.659   2.233 -1.1319  0.9969  0.1163
 1909TIP3    H227143   1.431   5.712   2.104  0.9175  1.6320 -0.5781
 1910TIP3   OH227144   0.542   3.804  15.602  0.5700  0.5258 -0.3511
 1910TIP3    H127145   0.449   3.782  15.599  0.4958  0.5910  1.0670
 1910TIP3    H227146   0.586   3.720  15.615  0.5853  0.6889  0.6889
 1911TIP3   OH227147   4.962   2.843  13.180  0.5810  0.0860  0.0156
 1911TIP3    H127148   4.877   2.872  13.211  0.7796  0.4394  0.2369
 1911TIP3    H227149   4.986   2.906  13.113 -0.0931 -0.9951 -1.2533
 1912TIP3   OH227150   0.725   4.122  17.014  0.7295  0.3219  0.2040
 1912TIP3    H127151   0.752   4.148  16.926  1.3916  2.5860  1.0444
 1912TIP3    H227152   0.636   4.090  17.003  0.4704  1.4701 -1.1350
 1913TIP3   OH227153   6.571   3.509   4.536 -0.3733  0.8381  0.4385
 1913TIP3    H127154   6.658   3.537   4.565  0.1020 -0.5217  0.3386
 1913TIP3    H227155   6.538   3.455   4.608 -0.2705 -0.3725 -0.4052
 1914TIP3   OH227156   1.065   2.544  14.733 -0.2373  0.1248 -0.1915
 1914TIP3    H127157   1.105   2.540  14.646  0.7403  0.8995  0.1976
 1914TIP3    H227158   1.062   2.638  14.753  1.7850 -0.1534  1.6020
 1915TIP3   OH227159   2.357   5.628  13.142  0.5256  0.2126 -0.1538
 1915TIP3    H127160   2.272   5.602  13.176  1.1322 -0.4508  0.8964
 1915TIP3    H227161   2.379   5.562  13.077  0.7622 -0.2693  0.4153
 1916TIP3   OH227162   4.962   2.385  13.666  0.0326  0.2819 -0.1368
 1916TIP3    H127163   5.003   2.472  13.663  0.2674  0.1605 -0.4584
 1916TIP3    H227164   5.015   2.336  13.729 -0.4025  0.5241  0.4262
 1917TIP3   OH227165   1.068   4.315   3.632  0.2827  0.4798  0.1853
 1917TIP3    H127166   1.014   4.329   3.554 -0.9464  0.3536  0.9865
 1917TIP3    H227167   1.024   4.244   3.679  1.8259 -0.4270  0.2778
 1918TIP3   OH227168   5.386   4.276  15.545  0.0050  0.3969  0.1929
 1918TIP3    H127169   5.296   4.242  15.547  0.9708 -2.2196  1.5885
 1918TIP3    H227170   5.440   4.201  15.567  2.5540  2.0062 -0.3847
 1919TIP3   OH227171   2.863   2.865   2.477 -0.2703  0.3930 -0.1695
 1919TIP3    H127172   2.843   2.855   2.570  0.9966  1.2050  0.2153
 1919TIP3    H227173   2.872   2.960   2.465  1.8426  0.1624 -0.5992
 1920TIP3   OH227174   4.074   3.817   4.775  0.4274 -0.2811  0.2145
 1920TIP3    H127175   4.152   3.762   4.771  0.1571 -0.7172  0.8328
 1920TIP3    H227176   4.034   3.808   4.688  1.0160 -0.1188 -0.0769
 1921TIP3   OH227177   1.711   3.386  12.844  0.1117 -0.5813 -0.0327
 1921TIP3    H127178   1.711   3.445  12.920  2.3346  0.4794 -0.8077
 1921TIP3    H227179   1.696   3.444  12.769 -0.4039 -1.3924 -0.5660
 1922TIP3   OH227180   4.300   2.739   3.203 -0.1006  0.2588  0.1810
 1922TIP3    H127181   4.226   2.777   3.156 -0.4484 -0.6931 -0.0372
 1922TIP3    H227182   4.265   2.661   3.245  0.3872  0.6934  1.4119
 1923TIP3   OH227183   6.659   0.740  11.256 -0.2226  0.2850  0.2088
 1923TIP3    H127184   6.694   0.704  11.175 -0.1380 -1.5360  1.0418
 1923TIP3    H227185   6.669   0.835  11.246  2.2296 -0.0324 -0.8018
 1924TIP3   OH227186   0.352   5.294   1.423 -0.3908  0.0397 -0.4240
 1924TIP3    H127187   0.425   5.326   1.475 -0.6763  0.5142 -0.3221
 1924TIP3    H227188   0.338   5.361   1.356 -0.3753 -0.3114 -0.7864
 1925TIP3   OH227189   0.653   1.433  14.617  0.0737  0.4250 -0.4844
 1925TIP3    H127190   0.566   1.465  14.594 -0.1648 -0.0891 -0.3193
 1925TIP3    H227191   0.661   1.450  14.711 -0.6873 -1.3970 -0.0528
 1926TIP3   OH227192   5.936   4.534   6.437 -0.4600  0.1734 -0.3769
 1926TIP3    H127193   5.864   4.591   6.465  0.3415  0.4933  1.0606
 1926TIP3    H227194   5.984   4.587   6.374 -1.2428  0.1087 -1.0404
 1927TIP3   OH227195   4.229   0.870  12.447 -0.1279  0.9390  0.2011
 1927TIP3    H127196   4.236   0.813  12.371 -0.2186  1.7818 -0.4446
 1927TIP3    H227197   4.137   0.863  12.474 -0.3788  1.5475 -0.4818
 1928TIP3   OH227198   6.508   0.633   1.487  0.1741  0.5941  0.0634
 1928TIP3    H127199   6.559   0.573   1.432  0.0657  0.2379  0.3510
 1928TIP3    H227200   6.422   0.637   1.444  0.5328  1.4249 -0.5863
 1929TIP3   OH227201   5.160   1.587   3.599  0.1221 -0.1799 -0.6871
 1929TIP3    H127202   5.080   1.639   3.601  0.8747  1.1003 -2.0876
 1929TIP3    H227203   5.140   1.508   3.648 -2.3061 -0.2877 -1.8054
 1930TIP3   OH227204   2.495   3.522   0.752  0.1060 -0.3169  0.2052
 1930TIP3    H127205   2.456   3.539   0.666  2.5539 -0.2772 -0.9610
 1930TIP3    H227206   2.513   3.609   0.788  0.5011 -0.3402  0.0676
 1931TIP3   OH227207   1.671   3.100   6.241 -0.2363 -0.8084 -0.4900
 1931TIP3    H127208   1.667   3.004   6.241  3.9935 -1.0878 -2.4948
 1931TIP3    H227209   1.740   3.121   6.304  0.7219  0.7721 -2.0358
 1932TIP3   OH227210   3.038   4.053   3.721 -0.0948 -0.0871 -0.5048
 1932TIP3    H127211   3.114   4.108   3.699 -0.1045  0.4727  0.7636
 1932TIP3    H227212   2.964   4.114   3.722  0.2400  0.4256  3.1504
 1933TIP3   OH227213   4.109   1.893   6.299 -1.2166 -0.6742  0.5353
 1933TIP3    H127214   4.035   1.839   6.274 -2.0799 -0.0932  1.7682
 1933TIP3    H227215   4.079   1.983   6.282 -0.1351 -0.5328 -0.6468
 1934TIP3   OH227216   5.947   2.469   2.581  0.0681 -0.7341 -0.1803
 1934TIP3    H127217   5.942   2.395   2.641 -0.5368 -1.2600 -0.8748
 1934TIP3    H227218   5.861   2.471   2.538 -0.3501  1.1013  0.7041
 1935TIP3   OH227219   6.404   4.796   4.397  0.6706  0.4761  0.7003
 1935TIP3    H127220   6.407   4.793   4.493 -1.0848  0.0891  0.7464
 1935TIP3    H227221   6.412   4.705   4.370  2.0346  0.6639  0.4374
 1936TIP3   OH227222   0.953   4.078  15.576  0.1220 -0.2292 -0.1472
 1936TIP3    H127223   1.037   4.110  15.609  1.3005 -1.8431 -1.4999
 1936TIP3    H227224   0.888   4.140  15.610  1.8202  0.8589  1.1625
 1937TIP3   OH227225   6.568   2.673   6.575  0.3401 -0.4460 -0.2449
 1937TIP3    H127226   6.590   2.580   6.578 -0.8619 -0.7252  0.5812
 1937TIP3    H227227   6.497   2.683   6.638 -1.2171  0.5767 -2.0880
 1938TIP3   OH227228   3.939   4.399   6.046  0.4387 -0.3825  0.5493
 1938TIP3    H127229   3.948   4.313   6.087  1.4317  1.0242  3.4315
 1938TIP3    H227230   3.873   4.445   6.099 -2.6804 -0.5070 -3.0588
 1939TIP3   OH227231   1.473   0.233   6.345 -0.2109 -0.1897 -0.0694
 1939TIP3    H127232   1.441   0.320   6.367 -0.4135 -0.2754 -0.0178
 1939TIP3    H227233   1.437   0.215   6.258 -1.1019 -0.6736  0.3943
 1940TIP3   OH227234   5.117   4.435   1.440  0.1315  0.3760  0.3648
 1940TIP3    H127235   5.205   4.400   1.453 -0.1154 -0.4931 -0.2430
 1940TIP3    H227236   5.099   4.485   1.520  0.6971 -0.4561  1.0214
 1941TIP3   OH227237   0.029   0.406   5.737  0.2386 -0.3356  0.0662
 1941TIP3    H127238   0.035   0.495   5.702  0.8444 -1.2177 -2.1717
 1941TIP3    H227239   0.110   0.394   5.786  0.4518  0.1453 -0.1610
 1942TIP3   OH227240   2.977   6.362  16.983 -0.4622 -0.3650  0.3860
 1942TIP3    H127241   2.947   6.340  16.895  0.4739  2.3125 -0.6551
 1942TIP3    H227242   2.897   6.384  17.031 -0.8695 -0.6681 -0.1485
 1943TIP3   OH227243   6.038   3.200  13.581 -0.6610 -0.5272 -0.1710
 1943TIP3    H127244   6.040   3.114  13.540 -0.1806  0.0458 -1.3686
 1943TIP3    H227245   6.113   3.200  13.641 -0.5829 -0.8840 -0.2678
 1944TIP3   OH227246   5.092   0.059  15.003 -0.6006 -0.4188 -0.4207
 1944TIP3    H127247   5.128   0.086  14.918 -0.8305  1.6564  0.1157
 1944TIP3    H227248   5.077  -0.035  14.994  1.7875 -0.7089 -1.8118
 1945TIP3   OH227249   5.033   5.951  11.474  0.0606 -0.2572 -0.4378
 1945TIP3    H127250   4.972   5.993  11.413 -0.4619 -1.0472 -0.4749
 1945TIP3    H227251   5.030   5.858  11.449  1.4178 -0.2794 -0.5605
 1946TIP3   OH227252   0.817   1.990   1.715  0.0026 -0.0885 -0.1140
 1946TIP3    H127253   0.764   2.069   1.730 -1.4636 -0.9322 -0.6770
 1946TIP3    H227254   0.763   1.919   1.751  1.4824 -0.7973  0.7357
 1947TIP3   OH227255   5.861   2.260   4.164  0.4792  0.1308 -0.5126
 1947TIP3    H127256   5.852   2.171   4.199 -1.4200 -0.8706 -3.3567
 1947TIP3    H227257   5.783   2.272   4.109  2.2645  2.3499 -2.6826
 1948TIP3   OH227258   1.755   4.518   4.829 -0.1216 -0.2758 -0.2353
 1948TIP3    H127259   1.779   4.428   4.851  0.6681 -0.2370 -0.9213
 1948TIP3    H227260   1.823   4.546   4.767 -0.0770  0.9576  0.3674
 1949TIP3   OH227261   2.653   2.496   1.596  0.3448 -0.7607 -0.4548
 1949TIP3    H127262   2.597   2.572   1.611 -0.6081 -1.6238  0.4488
 1949TIP3    H227263   2.701   2.517   1.516 -0.1731  0.6328 -0.4098
 1950TIP3   OH227264   1.760   2.762   5.848  0.3688  0.1218  0.1417
 1950TIP3    H127265   1.769   2.757   5.943  1.4574  1.2539  0.1063
 1950TIP3    H227266   1.691   2.827   5.833  0.2201 -0.0332  0.1463
 1951TIP3   OH227267   2.748   5.536   5.727  0.3116  0.3176 -0.7047
 1951TIP3    H127268   2.760   5.620   5.771 -0.3788 -0.0694  0.2629
 1951TIP3    H227269   2.663   5.544   5.683 -0.2457 -0.2098  0.2364
 1952TIP3   OH227270   0.553   3.604   1.771  0.0642 -0.0857  0.7744
 1952TIP3    H127271   0.638   3.644   1.751  0.3850 -1.3769 -0.5718
 1952TIP3    H227272   0.518   3.657   1.842  1.6528  0.9458  0.8285
 1953TIP3   OH227273   2.650   3.532   2.284  0.0225 -0.2493  0.3860
 1953TIP3    H127274   2.642   3.469   2.356 -1.6043  0.2465  0.6574
 1953TIP3    H227275   2.594   3.605   2.310 -0.0421  0.2282 -1.0803
 1954TIP3   OH227276   1.021   0.325   0.014 -0.4287 -0.2832  0.1439
 1954TIP3    H127277   1.010   0.381  -0.063 -0.1030  0.2700  0.5044
 1954TIP3    H227278   0.934   0.288   0.029 -1.4481  2.6822  1.8839
 1955TIP3   OH227279   0.452   2.492   1.207  0.4794 -0.0150  0.2697
 1955TIP3    H127280   0.491   2.521   1.290  0.6013  0.3980  0.0730
 1955TIP3    H227281   0.456   2.397   1.211  1.5190  0.0154  0.2607
 1956TIP3   OH227282   4.848   4.011  11.807 -0.3467 -0.4627 -0.1505
 1956TIP3    H127283   4.790   3.937  11.825  1.1244 -1.3761  1.0597
 1956TIP3    H227284   4.907   3.979  11.738 -0.8706  0.2255 -0.9195
 1957TIP3   OH227285   3.947   5.604   5.807 -0.2401 -0.1644 -0.5730
 1957TIP3    H127286   3.957   5.652   5.725 -1.0408  0.5156 -0.2703
 1957TIP3    H227287   3.914   5.668   5.870  0.9803 -0.5128  0.4641
 1958TIP3   OH227288   2.390   5.515   2.204 -1.0492  0.0246  0.2799
 1958TIP3    H127289   2.423   5.602   2.181 -1.6401  0.0762 -0.3486
 1958TIP3    H227290   2.469   5.467   2.232 -0.6572  0.6185  0.2048
 1959TIP3   OH227291   5.893   0.198   0.693  0.0016  0.5658 -0.4434
 1959TIP3    H127292   5.818   0.141   0.674 -0.0536  0.0908  1.1338
 1959TIP3    H227293   5.920   0.174   0.782  0.3805  2.5534  0.0073
 1960TIP3   OH227294   1.401   1.686  17.224  0.2626 -0.6802  0.0553
 1960TIP3    H127295   1.468   1.741  17.184 -0.1845  0.3839  0.7781
 1960TIP3    H227296   1.421   1.686  17.317 -0.6994 -0.4033  0.2685
 1961TIP3   OH227297   5.292   0.065   2.337 -0.2863  0.1301 -0.1901
 1961TIP3    H127298   5.265   0.154   2.315 -0.6300  0.5819  1.9588
 1961TIP3    H227299   5.387   0.065   2.326 -0.5168  0.0780 -2.4478
 1962TIP3   OH227300   4.057   2.195  10.376  0.0359 -0.2625 -0.0346
 1962TIP3    H127301   3.986   2.162  10.320 -0.0852 -2.2975  1.2380
 1962TIP3    H227302   4.012   2.234  10.451  0.2272  1.2939 -0.7058
 1963TIP3   OH227303   2.776   5.720   2.102  0.2059 -0.0815 -0.7015
 1963TIP3    H127304   2.793   5.809   2.070  0.7786  0.3593  0.8269
 1963TIP3    H227305   2.821   5.715   2.186 -1.5229 -1.1418  0.1990
 1964TIP3   OH227306   3.264   5.155  16.981 -0.1491  0.3342 -0.1008
 1964TIP3    H127307   3.241   5.111  17.063 -0.3130 -0.2924 -0.4814
 1964TIP3    H227308   3.245   5.090  16.913 -0.5817  1.0662 -0.6789
 1965TIP3   OH227309   0.266   1.150   2.152  0.0735 -0.6359  0.0055
 1965TIP3    H127310   0.284   1.061   2.121 -0.6332 -1.1990  1.2011
 1965TIP3    H227311   0.351   1.181   2.184  0.3054 -0.9021 -0.3366
 1966TIP3   OH227312   2.063   0.585  16.703  0.2444  0.1821  0.1556
 1966TIP3    H127313   2.100   0.498  16.718  0.4298  0.2119 -0.1227
 1966TIP3    H227314   1.969   0.573  16.715  0.3652  0.1740  1.1896
 1967TIP3   OH227315   0.157   1.615   5.726 -0.3246  0.0897 -0.3472
 1967TIP3    H127316   0.233   1.559   5.711 -0.5680 -0.1133 -0.8231
 1967TIP3    H227317   0.156   1.629   5.821  0.4457  0.2954 -0.3662
 1968TIP3   OH227318   1.196   4.874  13.731 -0.5124  0.2429  0.4297
 1968TIP3    H127319   1.221   4.922  13.810 -1.1861  0.3493  0.5775
 1968TIP3    H227320   1.169   4.788  13.764 -1.5169  0.5442  0.3834
 1969TIP3   OH227321   5.422   6.210  16.373 -0.3497  0.6980 -0.1299
 1969TIP3    H127322   5.508   6.221  16.413 -0.6123 -0.4903  0.7939
 1969TIP3    H227323   5.361   6.204  16.447 -1.0852  0.4489 -0.7471
 1970TIP3   OH227324   1.567   0.081  10.717  0.5511 -0.3958 -0.5921
 1970TIP3    H127325   1.659   0.053  10.719  1.6602  3.0388 -0.5789
 1970TIP3    H227326   1.522   0.018  10.773  2.6613 -2.8732 -1.5665
 1971TIP3   OH227327   0.897   3.672   5.769  0.0267 -0.2350  0.3058
 1971TIP3    H127328   0.950   3.602   5.806 -0.1902 -0.8267 -0.4939
 1971TIP3    H227329   0.858   3.716   5.844  0.5752 -0.6458  0.8306
 1972TIP3   OH227330   5.271   0.527  12.093 -0.0140 -0.2134  0.1606
 1972TIP3    H127331   5.315   0.580  12.159  1.1745 -0.0553 -0.7553
 1972TIP3    H227332   5.341   0.492  12.039 -0.9362 -0.9435 -0.5795
 1973TIP3   OH227333   4.341   6.514  10.485  0.0721  0.2568  0.6037
 1973TIP3    H127334   4.278   6.585  10.491  0.6567  0.7407  1.1525
 1973TIP3    H227335   4.411   6.539  10.545  0.6420 -0.4157  0.2308
 1974TIP3   OH227336   1.082   1.000   0.671  0.3410 -0.2450  0.1956
 1974TIP3    H127337   1.079   0.918   0.621 -0.7203  0.4052 -0.8470
 1974TIP3    H227338   0.990   1.025   0.681  0.6562  0.7952  0.5454
 1975TIP3   OH227339   5.827   2.030  12.432 -0.3050 -0.7027  0.2335
 1975TIP3    H127340   5.917   2.011  12.406 -0.5655 -0.9772 -0.4723
 1975TIP3    H227341   5.834   2.109  12.486  0.4080 -0.9723  0.5430
 1976TIP3   OH227342   1.311   6.136  11.578  0.0833 -0.7419 -0.4016
 1976TIP3    H127343   1.253   6.195  11.625  1.4693  0.9796 -0.7821
 1976TIP3    H227344   1.257   6.096  11.510 -0.7894  0.3764 -0.3674
 1977TIP3   OH227345   4.514   5.840  11.286  0.6862 -0.6394 -0.3036
 1977TIP3    H127346   4.475   5.864  11.203 -1.2417 -0.6772  0.5664
 1977TIP3    H227347   4.527   5.923  11.332 -0.9386 -0.8273  0.5138
 1978TIP3   OH227348   3.056   5.160  13.459 -0.2547 -1.0336  0.4770
 1978TIP3    H127349   3.066   5.073  13.497 -0.0904 -0.7830  1.0154
 1978TIP3    H227350   2.967   5.186  13.480 -0.7829 -1.6557 -0.9302
 1979TIP3   OH227351   5.840   2.819  14.127 -0.2845  1.1071  0.4349
 1979TIP3    H127352   5.884   2.902  14.108 -1.6245  1.9503  0.9406
 1979TIP3    H227353   5.844   2.812  14.223 -0.0111  0.5030  0.3774
 1980TIP3   OH227354   1.333   3.002   3.649  0.8311 -0.1519 -0.1120
 1980TIP3    H127355   1.387   2.926   3.631  0.9679 -0.3324  1.0611
 1980TIP3    H227356   1.260   2.968   3.701  0.1882  0.2827 -0.7217
 1981TIP3   OH227357   6.398   6.236   5.239 -0.5122 -0.1594 -0.2345
 1981TIP3    H127358   6.425   6.162   5.183  1.8100 -0.8748  1.7328
 1981TIP3    H227359   6.335   6.198   5.300  1.4740 -0.8407  1.4648
 1982TIP3   OH227360   6.711   6.040  13.059 -0.9166  0.1287 -0.0798
 1982TIP3    H127361   6.627   5.999  13.078 -1.4930  1.2732 -0.1024
 1982TIP3    H227362   6.751   5.983  12.993 -0.8829 -1.3831  1.2271
 1983TIP3   OH227363   0.932   1.943   2.971  0.0411 -0.2023 -0.6009
 1983TIP3    H127364   0.844   1.981   2.975 -0.0069 -0.2652 -1.0088
 1983TIP3    H227365   0.939   1.891   3.051 -0.6129 -0.8747 -0.9759
 1984TIP3   OH227366   4.874   4.332   3.083  0.6110  0.1883  0.1513
 1984TIP3    H127367   4.893   4.420   3.052  0.1167  0.4136  0.4961
 1984TIP3    H227368   4.786   4.313   3.051  0.2719  0.2526  1.0353
 1985TIP3   OH227369   2.631   5.983   1.379  0.7593 -0.3623 -0.3104
 1985TIP3    H127370   2.659   5.941   1.461  1.3438 -1.3861 -1.0204
 1985TIP3    H227371   2.596   5.911   1.327 -2.3849  0.7552  0.1846
 1986TIP3   OH227372   2.113   1.872  13.210  0.2350 -0.1758  0.7158
 1986TIP3    H127373   2.039   1.811  13.205 -1.7736  2.2820 -0.9555
 1986TIP3    H227374   2.075   1.952  13.247  2.4279  0.6304  1.2891
 1987TIP3   OH227375   2.831   5.575   5.311  0.1221  0.1508 -0.1687
 1987TIP3    H127376   2.743   5.556   5.345  0.4413 -0.1933  0.4680
 1987TIP3    H227377   2.877   5.491   5.315  0.2755  0.1832 -1.1359
 1988TIP3   OH227378   0.875   0.238  15.200  0.5398 -0.2509 -0.2783
 1988TIP3    H127379   0.796   0.247  15.146 -0.8778 -1.3873  1.5385
 1988TIP3    H227380   0.942   0.207  15.139 -0.8574 -0.9158 -1.5144
 1989TIP3   OH227381   0.835   2.259  15.286 -0.4200  0.2174  0.5867
 1989TIP3    H127382   0.808   2.284  15.198 -1.5283  1.0234  1.1374
 1989TIP3    H227383   0.813   2.335  15.341  0.2203 -0.2825  1.5536
 1990TIP3   OH227384   4.188   4.327  12.971  0.0669 -0.1554 -0.5111
 1990TIP3    H127385   4.115   4.382  12.999  1.5707  2.3595 -1.3874
 1990TIP3    H227386   4.249   4.329  13.044  1.0869  1.1294 -1.3794
 1991TIP3   OH227387   2.055   2.933  13.842  0.2714  0.0645 -0.0503
 1991TIP3    H127388   2.038   3.026  13.854 -1.2976 -0.4052  1.4281
 1991TIP3    H227389   2.144   2.920  13.876 -0.2453  0.6636  1.5618
 1992TIP3   OH227390   3.783   5.542   6.394 -0.3504  0.6101 -0.4988
 1992TIP3    H127391   3.706   5.486   6.399 -1.4508  2.1010 -0.2587
 1992TIP3    H227392   3.820   5.526   6.307 -2.8705  2.3190 -1.9481
 1993TIP3   OH227393   3.581   5.746  11.656 -0.3618  0.1828 -0.1695
 1993TIP3    H127394   3.578   5.776  11.747 -0.7138  0.4836 -0.2777
 1993TIP3    H227395   3.655   5.687  11.653 -1.3698 -1.1486  0.7082
 1994TIP3   OH227396   0.062   4.712  15.955 -0.0805  0.1667  0.3505
 1994TIP3    H127397   0.086   4.786  15.899 -2.2402  1.2943  0.8718
 1994TIP3    H227398  -0.014   4.672  15.913  1.9858 -2.7816 -0.7730
 1995TIP3   OH227399   3.631   1.205  16.012 -0.1648 -0.2184 -0.4038
 1995TIP3    H127400   3.540   1.200  16.043  0.2239  0.1754  0.8474
 1995TIP3    H227401   3.654   1.297  16.022  0.2262 -0.2368 -1.1604
 1996TIP3   OH227402   5.512   3.905  13.241  0.4065 -0.1982  0.1724
 1996TIP3    H127403   5.602   3.872  13.236  0.0657 -0.7758 -3.1237
 1996TIP3    H227404   5.521   3.990  13.285  2.7644  0.3278 -1.1914
 1997TIP3   OH227405   4.663   3.755   1.331  0.4210  0.0759 -0.5176
 1997TIP3    H127406   4.706   3.756   1.246  1.1020 -0.4989 -0.1866
 1997TIP3    H227407   4.572   3.779   1.313  0.7325  0.6637 -1.3052
 1998TIP3   OH227408   6.165   5.365  12.497 -0.2330 -0.0482 -0.1504
 1998TIP3    H127409   6.140   5.273  12.501 -0.2574  0.0247  2.0557
 1998TIP3    H227410   6.146   5.391  12.407  0.3104 -2.3354 -0.9568
 1999TIP3   OH227411   0.936   0.265   1.713 -0.1492  0.3354 -0.2082
 1999TIP3    H127412   1.024   0.292   1.685 -1.1811  1.3754 -2.5731
 1999TIP3    H227413   0.905   0.337   1.767  0.8302 -0.4846  1.4669
 2000TIP3   OH227414   0.275   0.954  12.436 -0.0524 -0.5465 -0.0675
 2000TIP3    H127415   0.206   0.951  12.370  0.1603 -0.7941 -0.2746
 2000TIP3    H227416   0.284   0.864  12.466 -1.0913 -0.2323  1.2709
 2001TIP3   OH227417   4.534   3.377  15.507  0.2219  0.0505  0.1122
 2001TIP3    H127418   4.519   3.297  15.457 -0.3973 -0.1368  0.5989
 2001TIP3    H227419   4.533   3.447  15.442  4.1071 -0.6281 -0.8468
 2002TIP3   OH227420   0.469   4.697   2.870 -0.4259 -0.1650 -0.6286
 2002TIP3    H127421   0.452   4.761   2.939  2.3072 -1.9704  1.8371
 2002TIP3    H227422   0.416   4.621   2.894 -0.8972 -0.1287 -1.5487
 2003TIP3   OH227423   3.388   6.094  14.932 -0.7325 -0.1146  0.1095
 2003TIP3    H127424   3.445   6.117  14.859 -0.2563  0.2695  0.5997
 2003TIP3    H227425   3.424   6.142  15.007 -2.5063  1.2252  0.1402
 2004TIP3   OH227426   0.495   4.492  15.355  0.5753 -0.3073 -0.1738
 2004TIP3    H127427   0.517   4.436  15.429  2.4235 -1.2343 -1.3904
 2004TIP3    H227428   0.531   4.578  15.377 -2.4794  0.5416  1.8101
 2005TIP3   OH227429   2.790   1.778   3.034 -0.6748  0.1504 -0.4545
 2005TIP3    H127430   2.817   1.846   2.972 -0.9484  0.2418 -0.4725
 2005TIP3    H227431   2.799   1.696   2.984 -0.2410  0.1639 -0.3968
 2006TIP3   OH227432   5.792   1.080   5.526  0.1669  0.1312  0.4422
 2006TIP3    H127433   5.841   1.159   5.549 -0.0144  0.6417 -0.9215
 2006TIP3    H227434   5.701   1.107   5.528  0.0749 -0.1783  0.4384
 2007TIP3   OH227435   2.722   3.981   1.612  0.1769 -0.1520 -0.3978
 2007TIP3    H127436   2.711   4.076   1.615 -0.2318 -0.1019 -2.3883
 2007TIP3    H227437   2.674   3.948   1.687  0.5300  1.2370  0.4538
 2008TIP3   OH227438   6.369   5.378   2.664  0.6041 -0.0370  0.5949
 2008TIP3    H127439   6.386   5.455   2.611  0.1620  0.4516  1.1552
 2008TIP3    H227440   6.450   5.327   2.659  0.5490 -0.0199 -0.5746
 2009TIP3   OH227441   2.708   2.132   4.290  0.0582  0.1076  0.0398
 2009TIP3    H127442   2.762   2.154   4.366  1.5099  1.5975 -1.4005
 2009TIP3    H227443   2.619   2.126   4.325  0.8576 -0.2488  2.0451
 2010TIP3   OH227444   1.416   1.469  16.825 -0.7516 -0.2747  0.1057
 2010TIP3    H127445   1.396   1.547  16.774 -0.7924  0.7797  1.7049
 2010TIP3    H227446   1.398   1.494  16.915  0.7860 -1.6136  0.8178
 2011TIP3   OH227447   4.372   1.939   0.199  0.0081 -0.9358 -0.0065
 2011TIP3    H127448   4.339   1.851   0.219  1.3596 -1.1367  1.4356
 2011TIP3    H227449   4.420   1.964   0.277 -1.8591  1.8360  0.3218
 2012TIP3   OH227450   3.200   2.948  12.542  0.1378  0.0103 -0.2130
 2012TIP3    H127451   3.245   2.946  12.457  1.2679 -0.9105  0.3882
 2012TIP3    H227452   3.122   3.001  12.526 -0.3171 -1.1553 -2.1367
 2013TIP3   OH227453   4.496   2.028   0.810  0.9798 -0.0459  0.9247
 2013TIP3    H127454   4.541   1.944   0.799  1.4446  0.3500 -0.2822
 2013TIP3    H227455   4.403   2.006   0.804  1.0812 -0.5398  1.1007
 2014TIP3   OH227456   1.286   3.795  16.910  0.1564 -0.3401 -0.4372
 2014TIP3    H127457   1.206   3.747  16.933 -1.6805  2.5139 -0.5893
 2014TIP3    H227458   1.344   3.782  16.985 -1.7527  0.2776  1.2117
 2015TIP3   OH227459   4.169   0.423   0.550  0.3839  0.2974 -0.8353
 2015TIP3    H127460   4.249   0.469   0.575  1.4504 -2.0932  0.3429
 2015TIP3    H227461   4.174   0.416   0.455  2.6620 -1.6341 -0.6164
 2016TIP3   OH227462   2.257   5.505   5.480  0.1470  0.1767  0.0278
 2016TIP3    H127463   2.161   5.505   5.483  0.1702 -0.9676  1.1918
 2016TIP3    H227464   2.282   5.595   5.499 -0.6823  0.3548  0.2871
 2017TIP3   OH227465   3.023   0.012  11.296  0.0976 -0.3205  0.2884
 2017TIP3    H127466   2.945   0.020  11.241 -2.8290  0.4615  4.2586
 2017TIP3    H227467   3.013  -0.073  11.340 -0.0133  0.9547  2.8562
 2018TIP3   OH227468   1.898   2.429  15.256 -0.7072 -0.4868 -0.1565
 2018TIP3    H127469   1.919   2.364  15.324 -0.7216  0.5629  0.8650
 2018TIP3    H227470   1.806   2.412  15.235 -0.8054 -0.6044  0.3440
 2019TIP3   OH227471   4.309   1.185  13.195 -0.0232 -0.0973  0.0810
 2019TIP3    H127472   4.274   1.215  13.279  0.3699 -0.9044  0.5325
 2019TIP3    H227473   4.252   1.112  13.170 -0.1136  0.1152 -0.3367
 2020TIP3   OH227474   0.878   2.205   6.134  0.0794  0.1550 -0.3433
 2020TIP3    H127475   0.821   2.132   6.160 -0.2145  0.0262 -1.3198
 2020TIP3    H227476   0.945   2.208   6.201  0.3392 -1.2928 -0.5217
 2021TIP3   OH227477   1.863   0.715   3.000 -0.3394  0.4869 -0.2524
 2021TIP3    H127478   1.830   0.635   3.040 -0.1822  0.9576  0.8260
 2021TIP3    H227479   1.896   0.767   3.073  2.5765  0.1509 -1.2560
 2022TIP3   OH227480   1.435   5.852   3.140  0.2737  0.7595 -0.0487
 2022TIP3    H127481   1.346   5.880   3.163  0.2033  0.3960  0.1115
 2022TIP3    H227482   1.487   5.870   3.218 -0.1520 -1.3681  0.7605
 2023TIP3   OH227483   3.946   4.509   1.451 -0.3825 -0.1774 -0.1505
 2023TIP3    H127484   3.870   4.527   1.395 -0.9036 -0.1124  0.5779
 2023TIP3    H227485   3.949   4.414   1.458 -1.5567 -0.1154  1.4038
 2024TIP3   OH227486   3.149   6.693  14.133  0.3886  0.3588 -0.2214
 2024TIP3    H127487   3.055   6.694  14.152  0.2817  1.1251 -0.7406
 2024TIP3    H227488   3.171   6.601  14.123 -0.0519  0.0824  1.1363
 2025TIP3   OH227489   0.247   1.436  13.129  0.0949  0.0064  0.6171
 2025TIP3    H127490   0.232   1.345  13.106  0.0621 -0.2916  1.7682
 2025TIP3    H227491   0.233   1.485  13.048  0.8994 -1.0902 -0.1997
 2026TIP3   OH227492   3.072   5.426   4.085 -0.4021  0.3516 -0.3345
 2026TIP3    H127493   3.117   5.434   4.168  0.4466  1.0224 -0.8533
 2026TIP3    H227494   3.051   5.516   4.060 -0.5126  0.1695 -0.9195
 2027TIP3   OH227495   2.260   4.628   5.024 -0.1047 -0.7859 -0.2140
 2027TIP3    H127496   2.177   4.589   4.996 -0.9978  0.1315  1.0741
 2027TIP3    H227497   2.257   4.625   5.120  1.2553 -0.5284 -0.1474
 2028TIP3   OH227498   5.897   1.498   4.292 -0.0829  0.3775  0.4891
 2028TIP3    H127499   5.891   1.436   4.219 -2.6934  0.8355  0.2773
 2028TIP3    H227500   5.930   1.445   4.365 -3.3480 -1.6056  0.6184
 2029TIP3   OH227501   0.784   0.239   0.794  0.0951 -0.0889  0.2548
 2029TIP3    H127502   0.809   0.273   0.880  0.8873  0.9075 -0.3544
 2029TIP3    H227503   0.866   0.207   0.756 -0.0727  0.4022 -0.5274
 2030TIP3   OH227504   4.587   6.591  12.030  0.4537 -0.4315 -0.1603
 2030TIP3    H127505   4.624   6.652  11.967  0.0339  0.7033  0.6800
 2030TIP3    H227506   4.608   6.629  12.116  0.5114 -1.6532  0.3781
 2031TIP3   OH227507   0.257   6.396   5.465  0.8505  0.4881 -0.4665
 2031TIP3    H127508   0.258   6.490   5.486  2.9148  0.4154 -0.1684
 2031TIP3    H227509   0.230   6.393   5.373 -1.8259  1.1992  0.2604
 2032TIP3   OH227510   6.665   5.665   1.903  0.2864 -0.2052 -0.2841
 2032TIP3    H127511   6.612   5.706   1.971 -1.0452 -0.7465 -0.9822
 2032TIP3    H227512   6.684   5.736   1.841 -1.4056 -0.4386 -1.1142
 2033TIP3   OH227513   2.042   1.846  14.199  0.0406  0.1152  0.0012
 2033TIP3    H127514   2.019   1.759  14.231 -1.4412  0.6815  0.5342
 2033TIP3    H227515   2.056   1.897  14.279  2.9093 -0.1349 -0.3128
 2034TIP3   OH227516   2.952   2.289   2.504  0.8353 -0.4430 -0.8419
 2034TIP3    H127517   2.962   2.380   2.476 -0.4798  1.1255  3.4142
 2034TIP3    H227518   3.012   2.240   2.447  2.2137  3.1599 -2.6657
 2035TIP3   OH227519   4.832   1.472  14.112 -0.5627 -0.5445 -0.0794
 2035TIP3    H127520   4.899   1.519  14.064  2.6746 -2.7966  2.0242
 2035TIP3    H227521   4.805   1.401  14.053  1.2247 -1.5235  0.2668
 2036TIP3   OH227522   3.510   3.815   4.499  0.0579 -0.5088  0.2699
 2036TIP3    H127523   3.493   3.905   4.526  0.0341 -0.3473 -0.2796
 2036TIP3    H227524   3.451   3.800   4.425  0.1198 -0.9521  0.3051
 2037TIP3   OH227525   2.819   2.258  11.910  0.4331 -0.7776 -0.6589
 2037TIP3    H127526   2.747   2.283  11.968  0.0984 -2.1772 -0.4519
 2037TIP3    H227527   2.873   2.337  11.904  0.8291 -0.7762  2.0997
 2038TIP3   OH227528   2.678   3.611   1.780 -0.5022 -0.3487  0.7087
 2038TIP3    H127529   2.602   3.578   1.731 -0.4451 -0.7192  0.8713
 2038TIP3    H227530   2.678   3.705   1.763  0.7709 -0.7417 -1.7768
 2039TIP3   OH227531   1.527   2.626   0.425 -0.3640  0.2931  0.1363
 2039TIP3    H127532   1.513   2.563   0.496  0.2078 -0.9261 -0.8116
 2039TIP3    H227533   1.622   2.641   0.424 -0.2555 -0.3547 -0.8962
 2040TIP3   OH227534   6.712   6.057  15.002  0.1719 -0.3535  0.0564
 2040TIP3    H127535   6.747   5.991  15.062  1.1233 -0.5607 -0.6982
 2040TIP3    H227536   6.689   6.008  14.923 -2.6505 -0.3436  0.8276
 2041TIP3   OH227537   2.950   1.956  14.282  0.0214  0.2734 -0.1726
 2041TIP3    H127538   2.959   1.896  14.356  0.2056  1.8109  1.0919
 2041TIP3    H227539   2.866   1.933  14.242 -0.2187 -0.3832  0.6937
 2042TIP3   OH227540   0.074   4.799  12.195 -0.1712  0.5022  0.1149
 2042TIP3    H127541   0.113   4.736  12.255  0.5398 -0.1069 -0.9727
 2042TIP3    H227542  -0.017   4.773  12.187 -0.0570  0.0693  0.2630
 2043TIP3   OH227543   6.159   5.509  14.553 -0.3524  0.5664 -0.1630
 2043TIP3    H127544   6.123   5.491  14.640 -0.1453  0.4868 -0.0922
 2043TIP3    H227545   6.125   5.439  14.498  0.6070 -0.1567  0.1554
 2044TIP3   OH227546   5.258   2.023   5.708  0.7865  0.4900 -0.5786
 2044TIP3    H127547   5.278   1.968   5.783  0.6018 -1.2351 -1.7787
 2044TIP3    H227548   5.203   1.969   5.652  2.3980  1.1154 -2.8170
 2045TIP3   OH227549   6.411   5.466  13.136  0.1266  0.3172  1.0021
 2045TIP3    H127550   6.456   5.421  13.065  0.1640  2.5673 -0.4574
 2045TIP3    H227551   6.322   5.433  13.133  0.6460 -1.1711  1.3145
 2046TIP3   OH227552   0.430   2.086   0.624  0.4987 -0.2074  0.4883
 2046TIP3    H127553   0.386   2.086   0.709  1.8808  1.0965  1.2321
 2046TIP3    H227554   0.404   2.169   0.583  1.4858  0.1270  0.5245
 2047TIP3   OH227555   3.044   2.642  16.414  0.2008  0.7075 -0.5990
 2047TIP3    H127556   3.047   2.641  16.510 -0.4831  0.7985 -0.5731
 2047TIP3    H227557   3.087   2.724  16.390  0.2515  0.7502 -0.3641
 2048TIP3   OH227558   1.655   6.764   2.182 -0.0084  0.2421  0.7661
 2048TIP3    H127559   1.641   6.803   2.095 -0.1500  3.1615  2.0352
 2048TIP3    H227560   1.709   6.687   2.165  1.1862  1.5654 -1.8153
 2049TIP3   OH227561   1.172   5.905   3.233 -0.4988 -0.4233  0.0323
 2049TIP3    H127562   1.097   5.954   3.200  0.8614  1.4662 -0.4027
 2049TIP3    H227563   1.175   5.925   3.326 -0.0694  0.1848 -0.1055
 2050TIP3   OH227564   0.141   5.596   1.572 -0.0047 -0.3592  0.3390
 2050TIP3    H127565   0.115   5.685   1.595  0.5932  0.4471 -1.9852
 2050TIP3    H227566   0.222   5.581   1.621 -0.4105  0.1504  1.1776
 2051TIP3   OH227567   3.450   1.605   5.611 -0.1356  0.9094 -0.0053
 2051TIP3    H127568   3.441   1.517   5.574  2.7081  1.5332 -2.4273
 2051TIP3    H227569   3.465   1.590   5.704  0.3370 -1.2236 -0.3910
 2052TIP3   OH227570   1.711   3.376   0.946 -0.2494 -0.2287 -0.1388
 2052TIP3    H127571   1.716   3.334   0.861  0.8407 -1.5150  0.5443
 2052TIP3    H227572   1.692   3.305   1.007  1.6328  0.2413  1.0279
 2053TIP3   OH227573   1.388   2.431  11.040  0.2116  0.1107 -0.2898
 2053TIP3    H127574   1.469   2.471  11.009  1.1212 -1.5771 -0.1473
 2053TIP3    H227575   1.360   2.374  10.969 -0.2752 -0.1253  0.0862
 2054TIP3   OH227576   4.230   0.558  10.514  0.3094 -0.6493  0.5123
 2054TIP3    H127577   4.171   0.628  10.486  0.5954 -0.6137 -0.0089
 2054TIP3    H227578   4.180   0.510  10.580 -0.1484 -0.3688  0.3744
 2055TIP3   OH227579   2.388   3.165  14.734  0.2449 -0.1465 -0.1485
 2055TIP3    H127580   2.296   3.155  14.709 -0.3288 -0.1597  1.8686
 2055TIP3    H227581   2.405   3.258  14.728  0.1891 -0.1821 -0.8445
 2056TIP3   OH227582   1.035   6.037   3.525  0.1235 -0.0579 -0.1967
 2056TIP3    H127583   0.997   6.108   3.474 -1.1732 -0.3802  0.3028
 2056TIP3    H227584   0.962   5.977   3.541 -0.1583  1.2506  4.1851
 2057TIP3   OH227585   6.565   2.285  16.140  0.7147 -0.3269 -0.2563
 2057TIP3    H127586   6.572   2.364  16.088 -0.5290 -0.6688 -0.9562
 2057TIP3    H227587   6.573   2.315  16.231  1.3077  0.4554 -0.5610
 2058TIP3   OH227588   0.548   1.269  16.376  0.0940 -0.5647  0.4052
 2058TIP3    H127589   0.478   1.329  16.351  0.1493 -1.2227 -1.4009
 2058TIP3    H227590   0.510   1.182  16.366  0.9264 -0.9106  0.1976
 2059TIP3   OH227591   1.455   2.624   0.828  0.7215 -0.2619 -0.2192
 2059TIP3    H127592   1.423   2.637   0.917 -0.5435  1.0476 -0.8486
 2059TIP3    H227593   1.503   2.541   0.831  1.2006  0.0750  1.8067
 2060TIP3   OH227594   3.765   0.258  15.810 -0.0441  0.5432 -0.5477
 2060TIP3    H127595   3.676   0.250  15.776 -0.1014 -2.7982  0.2708
 2060TIP3    H227596   3.753   0.289  15.900 -0.4539 -0.7497 -0.1444
 2061TIP3   OH227597   3.624   3.352   4.516  0.1937  0.0555  0.6913
 2061TIP3    H127598   3.646   3.259   4.508 -2.0814 -0.3938 -0.9496
 2061TIP3    H227599   3.708   3.397   4.518  1.3259 -2.0487  1.4879
 2062TIP3   OH227600   2.132   3.628   3.705  0.0049  0.0579 -0.2426
 2062TIP3    H127601   2.065   3.580   3.655 -1.5688  2.3903 -0.4813
 2062TIP3    H227602   2.116   3.604   3.796 -0.5306 -0.1740 -0.3942
 2063TIP3   OH227603   5.260   2.323  10.647 -0.4504 -0.5997  0.2909
 2063TIP3    H127604   5.236   2.255  10.585 -0.0870 -0.6608  0.2128
 2063TIP3    H227605   5.337   2.287  10.693 -1.4116 -1.0419  1.5775
 2064TIP3   OH227606   6.319   0.738   6.157 -0.4505  0.5057  0.2644
 2064TIP3    H127607   6.282   0.656   6.123  1.6402  0.1131 -1.1400
 2064TIP3    H227608   6.320   0.727   6.252  1.1788 -1.7059  0.0085
 2065TIP3   OH227609   5.853   1.519  14.620  0.0488 -0.9364 -0.5663
 2065TIP3    H127610   5.781   1.579  14.598  0.5636 -0.7735 -1.8617
 2065TIP3    H227611   5.810   1.436  14.640 -0.5417 -0.6604 -0.6818
 2066TIP3   OH227612   4.726   2.994  11.528  0.0643 -0.7502  0.4376
 2066TIP3    H127613   4.771   2.917  11.494 -0.5201 -0.3264 -1.3393
 2066TIP3    H227614   4.695   2.967  11.615 -0.6926 -2.7515 -0.4270
 2067TIP3   OH227615   5.182   5.508   2.941  0.9159  0.0951  0.1139
 2067TIP3    H127616   5.267   5.536   2.973 -0.3694  1.9771  2.0533
 2067TIP3    H227617   5.154   5.441   3.003  0.5919  0.1552  0.0364
 2068TIP3   OH227618   0.419   2.847  11.877  0.3235  0.3756 -0.3600
 2068TIP3    H127619   0.490   2.861  11.814  3.1136 -1.9735  2.1485
 2068TIP3    H227620   0.413   2.752  11.886 -3.1070  0.5310 -0.3792
 2069TIP3   OH227621   4.436   1.669   0.546 -0.2384 -0.2993  0.8540
 2069TIP3    H127622   4.491   1.596   0.515 -0.2306  0.0171  0.1160
 2069TIP3    H227623   4.356   1.627   0.577 -1.0513 -0.4654 -1.4178
 2070TIP3   OH227624   1.188   0.105  13.174 -0.1536  0.0009 -0.0510
 2070TIP3    H127625   1.193   0.147  13.088  1.8410 -1.0755 -0.4957
 2070TIP3    H227626   1.227   0.169  13.233  1.8273 -0.6959 -0.5496
 2071TIP3   OH227627   1.204   3.245  16.842  0.2286 -0.0470  0.5879
 2071TIP3    H127628   1.114   3.265  16.817  1.0207  1.3225 -1.2746
 2071TIP3    H227629   1.256   3.262  16.763  2.0580 -1.3757  1.4570
 2072TIP3   OH227630   4.783   4.635  13.954  0.2526  0.1580  0.0990
 2072TIP3    H127631   4.738   4.598  13.878 -1.2223  1.1297  0.4665
 2072TIP3    H227632   4.819   4.559  14.000 -0.7870 -0.6281 -0.3554
 2073TIP3   OH227633   1.153   1.767  15.796  0.4421 -0.2608  0.1411
 2073TIP3    H127634   1.071   1.812  15.817  1.3230  0.9920  0.9546
 2073TIP3    H227635   1.130   1.674  15.798 -0.9113  0.0693  0.5633
 2074TIP3   OH227636   1.182   2.270  16.935 -0.6375 -0.5935  0.4907
 2074TIP3    H127637   1.246   2.249  17.004  0.0924  1.0491  0.3319
 2074TIP3    H227638   1.194   2.363  16.919 -1.0106 -0.8946 -1.6746
 2075TIP3   OH227639   1.308   5.417   4.588 -0.0077 -0.5357  0.4821
 2075TIP3    H127640   1.271   5.336   4.622 -1.4765  0.3696  1.1016
 2075TIP3    H227641   1.252   5.486   4.623  1.7135  0.8210  0.6376
 2076TIP3   OH227642   5.758   3.963   4.859  0.1242  0.8521  0.5606
 2076TIP3    H127643   5.802   3.961   4.774 -1.5946 -0.6273 -0.3149
 2076TIP3    H227644   5.734   4.055   4.871  0.1363  1.0302 -0.6769
 2077TIP3   OH227645   0.982   0.430   3.290 -0.2500 -0.2226  0.2130
 2077TIP3    H127646   0.969   0.355   3.348  0.6818  0.2814  1.0973
 2077TIP3    H227647   1.020   0.393   3.210 -2.0939 -0.9991 -0.3299
 2078TIP3   OH227648   2.056   1.773  15.212 -0.2915  0.2912 -0.5100
 2078TIP3    H127649   2.095   1.757  15.297 -1.3995 -2.3620 -0.4770
 2078TIP3    H227650   1.972   1.815  15.231  0.7937  2.4944 -0.4427
 2079TIP3   OH227651   0.124   1.427   0.731  0.4624  0.3798 -0.3421
 2079TIP3    H127652   0.118   1.412   0.637  2.8065  0.2768 -0.5078
 2079TIP3    H227653   0.044   1.389   0.767 -1.0093  1.4509 -2.4022
 2080TIP3   OH227654   1.491   2.230   2.634  0.2178 -0.5151 -0.0003
 2080TIP3    H127655   1.399   2.213   2.614  0.0186 -0.2405  0.6739
 2080TIP3    H227656   1.514   2.167   2.703  0.3365 -0.1211  0.3241
 2081TIP3   OH227657   1.430   0.880  12.854  0.3262  0.4696 -0.1183
 2081TIP3    H127658   1.429   0.965  12.899  0.8858  0.7205 -0.5860
 2081TIP3    H227659   1.365   0.828  12.902  1.2213  0.5886  1.2587
 2082TIP3   OH227660   0.270   0.457  17.017  0.1250 -0.2244  0.3937
 2082TIP3    H127661   0.264   0.451  16.921 -0.7315 -1.1062  0.4821
 2082TIP3    H227662   0.212   0.529  17.040  0.0888 -0.2145  0.2753
 2083TIP3   OH227663   3.103   6.367   3.202 -0.0030 -0.2214 -0.1375
 2083TIP3    H127664   3.084   6.323   3.119 -1.7880 -0.5380  0.4190
 2083TIP3    H227665   3.199   6.369   3.206  0.1275  0.1446 -2.3753
 2084TIP3   OH227666   6.773   0.929  12.476 -0.1708 -0.0397 -0.3208
 2084TIP3    H127667   6.730   0.875  12.410 -0.3420  0.6523 -0.7778
 2084TIP3    H227668   6.835   0.870  12.519  0.2617 -0.3788 -1.3949
 2085TIP3   OH227669   0.219   2.833   2.334  0.1575 -0.1038 -0.0745
 2085TIP3    H127670   0.271   2.766   2.377 -0.9491 -1.0018 -0.1375
 2085TIP3    H227671   0.224   2.811   2.241  1.7774  1.2973 -0.3452
 2086TIP3   OH227672   4.924   3.970   1.946  0.7508 -0.5705 -0.4957
 2086TIP3    H127673   4.900   3.911   1.874  1.0972 -1.6336  0.2476
 2086TIP3    H227674   4.996   3.925   1.990 -0.7329 -0.8597  1.6993
 2087TIP3   OH227675   3.196   5.907   3.305  0.2509 -0.2356 -0.0096
 2087TIP3    H127676   3.217   5.938   3.393  5.1594 -2.1335 -0.3576
 2087TIP3    H227677   3.190   5.812   3.313 -1.5243 -0.2636 -1.3572
 2088TIP3   OH227678   4.376   6.636  14.971 -0.2294 -0.4436 -0.1979
 2088TIP3    H127679   4.357   6.728  14.950 -0.9505 -0.5083  0.1770
 2088TIP3    H227680   4.459   6.640  15.019  0.6515 -0.1574 -1.6949
 2089TIP3   OH227681   5.844   5.627  16.514  0.4108  0.0747  0.4014
 2089TIP3    H127682   5.902   5.639  16.439  0.5225  0.0766  0.4887
 2089TIP3    H227683   5.865   5.700  16.573 -2.6336  2.5600 -1.4396
 2090TIP3   OH227684   3.936   5.001  11.471  0.4000 -0.2481 -0.1041
 2090TIP3    H127685   3.880   5.072  11.503  1.2514  1.6469 -2.6149
 2090TIP3    H227686   4.023   5.021  11.507  0.0644 -1.6580  1.5422
 2091TIP3   OH227687   5.182   1.130   5.942  0.3283 -0.0218  0.2500
 2091TIP3    H127688   5.136   1.149   6.024 -1.1418 -0.8730 -0.3667
 2091TIP3    H227689   5.238   1.055   5.962 -1.8092 -1.7489 -0.1430
 2092TIP3   OH227690   2.946   4.831   5.717  0.4180  0.9906 -0.6254
 2092TIP3    H127691   2.969   4.792   5.633  1.0466  2.8631 -1.3453
 2092TIP3    H227692   3.026   4.874   5.746  0.5670 -0.6722  1.5615
 2093TIP3   OH227693   6.374   3.450   1.893 -0.0711  0.0789  0.3381
 2093TIP3    H127694   6.363   3.431   1.987  0.7773  0.5066  0.5253
 2093TIP3    H227695   6.466   3.473   1.884 -0.1431 -0.0072 -0.6175
 2094TIP3   OH227696   0.287   1.461   2.288 -0.2189  0.2719 -0.4252
 2094TIP3    H127697   0.265   1.541   2.239  0.9646  0.5145 -0.5789
 2094TIP3    H227698   0.217   1.453   2.353  0.1561  1.9727  0.2226
 2095TIP3   OH227699   1.002   3.763   0.896 -0.0181  0.0774 -0.1285
 2095TIP3    H127700   1.064   3.803   0.835 -0.2661  1.5638  0.5618
 2095TIP3    H227701   0.919   3.809   0.880  0.0859  0.9976  1.7938
 2096TIP3   OH227702   6.206   3.741  14.539 -0.1203 -0.0774  0.3026
 2096TIP3    H127703   6.132   3.684  14.520 -1.5943  2.0363 -0.5633
 2096TIP3    H227704   6.166   3.826  14.561  2.0074  0.8785  0.6242
 2097TIP3   OH227705   5.164   4.542  11.619 -0.0462 -0.1441  0.0043
 2097TIP3    H127706   5.126   4.584  11.542  1.7159 -0.5284 -1.1203
 2097TIP3    H227707   5.094   4.488  11.654 -0.7785 -0.2557 -1.5672
 2098TIP3   OH227708   2.424   3.566   6.223  0.1349 -0.2840  0.1791
 2098TIP3    H127709   2.487   3.613   6.169  1.3333 -1.9014  0.1106
 2098TIP3    H227710   2.469   3.552   6.306 -1.0093  0.5854  0.9431
 2099TIP3   OH227711   4.828   3.739  12.662 -0.2301 -0.3841 -0.3380
 2099TIP3    H127712   4.753   3.715  12.716 -0.2577  0.0401 -0.1896
 2099TIP3    H227713   4.794   3.809  12.605  0.5713  1.1465  1.0328
 2100TIP3   OH227714   1.551   5.111  12.237 -0.3593  0.1136  0.5288
 2100TIP3    H127715   1.511   5.179  12.291  1.0870  1.9378 -0.6368
 2100TIP3    H227716   1.635   5.093  12.281 -0.0603  0.1889 -0.0092
 2101TIP3   OH227717   1.571   3.714  15.663 -0.5747  1.2359 -0.0261
 2101TIP3    H127718   1.487   3.677  15.639  0.0703 -0.2275 -0.0701
 2101TIP3    H227719   1.550   3.792  15.715 -1.9394 -0.3320  1.8021
 2102TIP3   OH227720   0.170   6.302  10.944  0.1330  0.4544  0.3879
 2102TIP3    H127721   0.130   6.255  11.018  1.7288 -0.6001  0.6037
 2102TIP3    H227722   0.262   6.279  10.949  0.6164  2.1393 -0.6475
 2103TIP3   OH227723   4.838   2.910   5.346 -0.0013  0.1651  0.1482
 2103TIP3    H127724   4.868   2.991   5.304  0.6604  1.0803  2.3136
 2103TIP3    H227725   4.742   2.916   5.344 -0.0476 -0.9348 -3.3013
 2104TIP3   OH227726   2.329   6.754   5.919  0.0527 -0.2618  0.7501
 2104TIP3    H127727   2.354   6.725   6.006 -1.6945 -0.4241  1.2027
 2104TIP3    H227728   2.254   6.700   5.895  1.0497 -0.8503 -1.2365
 2105TIP3   OH227729   5.079   5.926  10.824  0.1994  0.1095 -0.3712
 2105TIP3    H127730   5.019   5.987  10.868  0.9164  2.4961 -2.5835
 2105TIP3    H227731   5.166   5.964  10.837  1.0925 -2.2990  1.1356
 2106TIP3   OH227732   1.798   0.605   1.265 -0.1206 -0.4535  0.2038
 2106TIP3    H127733   1.792   0.522   1.218 -1.3871  0.1383 -0.7239
 2106TIP3    H227734   1.815   0.671   1.197  0.7575  0.0538  0.9130
 2107TIP3   OH227735   0.889   2.639   3.668  0.4075  0.0112 -0.1175
 2107TIP3    H127736   0.951   2.570   3.643  0.8850  0.5949 -0.5658
 2107TIP3    H227737   0.803   2.596   3.668  0.9372 -1.1244  1.7602
 2108TIP3   OH227738   1.516   5.394   3.114  0.6976  0.0221  0.1436
 2108TIP3    H127739   1.442   5.333   3.118  1.6383 -1.1027  0.7368
 2108TIP3    H227740   1.540   5.409   3.205  1.2216  0.3649 -0.0484
 2109TIP3   OH227741   0.062   0.709   6.109 -0.0714 -0.3425 -0.5800
 2109TIP3    H127742   0.116   0.782   6.139  0.6602 -1.6052  1.3425
 2109TIP3    H227743   0.086   0.697   6.017  2.2329 -0.2330 -0.0418
 2110TIP3   OH227744   3.052   2.736  12.565 -0.5869  0.3585  0.2984
 2110TIP3    H127745   3.091   2.672  12.506 -1.3614  0.6564 -0.5441
 2110TIP3    H227746   3.125   2.792  12.591 -0.0165 -0.4906  0.5685
 2111TIP3   OH227747   1.494   0.691  12.483  0.5927  0.5232  0.5490
 2111TIP3    H127748   1.421   0.659  12.536 -0.7783  1.7454 -0.5582
 2111TIP3    H227749   1.462   0.685  12.393  1.4982  1.9853  0.1170
 2112TIP3   OH227750   0.190   5.356  12.231  0.3912 -0.3866 -0.2453
 2112TIP3    H127751   0.185   5.272  12.185  1.0778 -0.0444 -0.9536
 2112TIP3    H227752   0.159   5.420  12.167 -1.3328 -0.2303  0.7041
 2113TIP3   OH227753   1.789   6.443  16.242 -0.4993 -0.1132 -0.7136
 2113TIP3    H127754   1.770   6.533  16.270  2.9069  0.1020  1.0278
 2113TIP3    H227755   1.877   6.448  16.204 -0.2853 -2.7369 -0.6016
 2114TIP3   OH227756   5.604   2.625   3.995  0.4694  0.9430 -0.0803
 2114TIP3    H127757   5.526   2.677   3.977  0.8827  1.7495  0.4141
 2114TIP3    H227758   5.630   2.650   4.084 -0.0812 -1.1008  0.6711
 2115TIP3   OH227759   0.272   2.860  14.962  0.3785  0.1412 -0.6237
 2115TIP3    H127760   0.241   2.895  15.045 -2.6600  0.8740 -2.0186
 2115TIP3    H227761   0.209   2.792  14.940  2.5938 -1.8228 -1.1274
 2116TIP3   OH227762   3.642   1.907   3.141 -0.1940 -0.3589 -0.2342
 2116TIP3    H127763   3.562   1.884   3.189  0.2753 -0.7730  0.3442
 2116TIP3    H227764   3.707   1.844   3.171  0.5003  0.3291 -0.2975
 2117TIP3   OH227765   0.705   3.333   4.591  0.2069  0.2321  0.1757
 2117TIP3    H127766   0.667   3.360   4.674  1.6783  1.1692  0.5650
 2117TIP3    H227767   0.707   3.414   4.538  0.1445 -0.1515 -0.4162
 2118TIP3   OH227768   3.450   2.266   3.983  0.3332  0.0743 -0.0592
 2118TIP3    H127769   3.469   2.349   3.939  0.8644 -0.0788 -0.1190
 2118TIP3    H227770   3.527   2.211   3.966 -0.8549 -1.1391 -1.7103
 2119TIP3   OH227771   0.734   6.628  10.930 -0.0182  0.2440  0.2969
 2119TIP3    H127772   0.714   6.720  10.917 -1.8857 -0.3337 -1.1668
 2119TIP3    H227773   0.829   6.622  10.917 -0.1102  1.7052 -1.2111
 2120TIP3   OH227774   5.835   0.348  13.312 -0.3062  1.0181  0.3272
 2120TIP3    H127775   5.850   0.352  13.407 -2.3607 -0.4602  0.7388
 2120TIP3    H227776   5.744   0.373  13.301  0.2723  2.4966 -1.4236
 2121TIP3   OH227777   3.300   0.459  13.363 -0.5805 -0.5412  0.5176
 2121TIP3    H127778   3.243   0.438  13.437  0.8275 -2.2400  1.1502
 2121TIP3    H227779   3.335   0.546  13.384 -0.2765 -0.9572  1.8006
 2122TIP3   OH227780   6.485   1.839   5.993 -0.0937 -0.3266  0.5900
 2122TIP3    H127781   6.459   1.889   6.070 -0.6469  0.5565 -0.1690
 2122TIP3    H227782   6.541   1.898   5.942 -0.0470 -0.7670  0.1154
 2123TIP3   OH227783   6.205   2.415  12.494  0.2472  0.4145 -0.2836
 2123TIP3    H127784   6.296   2.411  12.462 -0.5738  0.5835 -2.7889
 2123TIP3    H227785   6.189   2.508  12.508 -0.1046  0.5720 -1.6470
 2124TIP3   OH227786   4.184   3.671  12.097  0.0230  0.6662  0.1459
 2124TIP3    H127787   4.129   3.597  12.074  0.0860  0.7831 -0.4063
 2124TIP3    H227788   4.123   3.742  12.115  0.0050  1.0532 -1.3840
 2125TIP3   OH227789   3.248   1.395   4.626 -0.5381 -0.1836  0.5631
 2125TIP3    H127790   3.160   1.419   4.598 -0.1973 -0.3187 -0.6586
 2125TIP3    H227791   3.253   1.301   4.609 -0.1476 -0.1739  0.6240
 2126TIP3   OH227792   3.205   4.841  13.674  0.7623  0.5646 -0.5437
 2126TIP3    H127793   3.198   4.876  13.763  0.3384 -0.5659 -0.1352
 2126TIP3    H227794   3.120   4.860  13.633  0.0167 -1.2757  0.1437
 2127TIP3   OH227795   0.635   3.059  10.654 -0.7104 -0.2182 -0.0859
 2127TIP3    H127796   0.685   2.997  10.708 -0.6851 -1.7859 -1.8542
 2127TIP3    H227797   0.694   3.133  10.641  0.0804 -0.7747  0.2553
 2128TIP3   OH227798   5.807   1.044  12.859 -0.3221 -0.0025 -0.0269
 2128TIP3    H127799   5.858   1.102  12.915  0.0529 -0.0604 -0.3128
 2128TIP3    H227800   5.864   0.969  12.842  0.6596  1.3027 -2.8136
 2129TIP3   OH227801   2.800   5.424  12.085 -0.4168  0.1602  0.2385
 2129TIP3    H127802   2.767   5.362  12.150 -2.5925  3.1091  2.1371
 2129TIP3    H227803   2.784   5.510  12.125  2.0262  1.9686 -2.4701
 2130TIP3   OH227804   6.640   4.219   5.123  0.1705 -0.1437 -0.1285
 2130TIP3    H127805   6.607   4.296   5.077  0.8653  0.4082  0.2983
 2130TIP3    H227806   6.573   4.152   5.107  1.1891 -0.5022 -3.3748
 2131TIP3   OH227807   0.289   2.106  11.157 -0.9855  0.1220 -0.9299
 2131TIP3    H127808   0.357   2.162  11.195 -0.6370 -0.2932 -0.9423
 2131TIP3    H227809   0.325   2.018  11.162 -1.3076 -0.0384 -1.4160
 2132TIP3   OH227810   5.543   6.781   0.055  0.4484  0.3606  0.5850
 2132TIP3    H127811   5.633   6.796   0.026  0.5285  0.7946  1.0500
 2132TIP3    H227812   5.542   6.691   0.087  0.7276  0.3749  0.6300
 2133TIP3   OH227813   4.743   0.093   1.219 -0.3294  0.0032  0.6162
 2133TIP3    H127814   4.834   0.064   1.215 -0.6396 -0.8687 -0.6995
 2133TIP3    H227815   4.696   0.030   1.164 -1.3413  1.9284 -0.7549
 2134TIP3   OH227816   1.480   2.703  16.448  0.4348  0.0446 -0.7058
 2134TIP3    H127817   1.512   2.656  16.525  0.9396  0.1795 -0.8262
 2134TIP3    H227818   1.462   2.635  16.384 -0.3402 -0.0959 -0.3438
 2135TIP3   OH227819   4.478   4.213  13.520 -0.2213  0.4775  0.1935
 2135TIP3    H127820   4.436   4.187  13.602 -0.9603  0.8822 -0.0511
 2135TIP3    H227821   4.559   4.162  13.517 -0.2633  0.3504  1.1006
 2136TIP3   OH227822   3.060   5.643   6.270 -0.1261  0.2100 -0.5652
 2136TIP3    H127823   3.055   5.595   6.188  0.0401 -0.7418 -0.0217
 2136TIP3    H227824   3.143   5.616   6.309 -0.8615 -0.4239  0.5737
 2137TIP3   OH227825   3.137   2.745  10.880  0.3235 -0.2930  0.2702
 2137TIP3    H127826   3.163   2.831  10.848  0.6203 -0.6207 -0.3719
 2137TIP3    H227827   3.045   2.755  10.905  0.3589  0.2045  0.1999
 2138TIP3   OH227828   2.483   6.084   4.775 -0.1714 -0.2377 -0.0166
 2138TIP3    H127829   2.415   6.145   4.804 -0.6790 -1.3942  1.3049
 2138TIP3    H227830   2.497   6.026   4.850  1.2374 -0.9314 -0.7882
 2139TIP3   OH227831   0.078   4.980   4.796  0.2549 -0.0301  0.5084
 2139TIP3    H127832   0.072   5.014   4.707  0.5502 -0.4433  0.3260
 2139TIP3    H227833   0.078   5.058   4.852 -1.7631  0.1604  0.2565
 2140TIP3   OH227834   6.156   6.516  17.213 -0.4231 -0.3575 -0.3268
 2140TIP3    H127835   6.226   6.575  17.186  0.3990 -2.0628 -2.0825
 2140TIP3    H227836   6.117   6.558  17.289  1.8137  1.1671  0.0365
 2141TIP3   OH227837   3.044   3.220  12.853 -0.5107  0.3543 -0.0153
 2141TIP3    H127838   3.001   3.208  12.769 -0.1399 -2.5436  0.1595
 2141TIP3    H227839   3.133   3.249  12.831 -1.1398  1.9620 -0.5040
 2142TIP3   OH227840   2.706   0.431  15.279 -0.1301  0.5732 -0.3891
 2142TIP3    H127841   2.731   0.520  15.253 -0.2877  0.3287 -1.4161
 2142TIP3    H227842   2.611   0.435  15.292  0.0136  0.7967  0.5517
 2143TIP3   OH227843   1.077   0.396   2.338  0.3480  0.2401 -0.1992
 2143TIP3    H127844   1.128   0.316   2.326 -0.9739 -0.5683 -0.5030
 2143TIP3    H227845   1.002   0.387   2.279 -1.5744  0.1835  2.1543
 2144TIP3   OH227846   3.716   0.659  11.108  0.2046 -0.5384  0.4534
 2144TIP3    H127847   3.672   0.579  11.137  1.9358 -1.2780  1.1185
 2144TIP3    H227848   3.673   0.683  11.026 -0.5593 -1.9629  0.4393
 2145TIP3   OH227849   1.325   0.432   5.184 -0.4810  0.2860 -0.7986
 2145TIP3    H127850   1.364   0.364   5.238  2.3966  1.8942 -0.7724
 2145TIP3    H227851   1.281   0.385   5.113  1.1906 -1.6010 -0.6189
 2146TIP3   OH227852   0.950   2.900  16.671  0.6632 -0.0444  0.3013
 2146TIP3    H127853   0.891   2.975  16.660 -0.7498 -1.1318  0.3624
 2146TIP3    H227854   1.001   2.921  16.749  0.6927  1.1269 -0.0254
 2147TIP3   OH227855   6.630   3.515   1.784  0.3384 -0.2251 -0.0311
 2147TIP3    H127856   6.705   3.540   1.839  0.6018 -0.4864 -0.2704
 2147TIP3    H227857   6.664   3.520   1.694  0.0465 -0.2655 -0.1427
 2148TIP3   OH227858   4.380   3.619   6.501  0.6163  0.1507 -0.1680
 2148TIP3    H127859   4.314   3.595   6.565 -0.4451  1.5955 -0.6928
 2148TIP3    H227860   4.350   3.579   6.419  0.8888  0.0253 -0.2085
 2149TIP3   OH227861   2.768   4.590  11.443 -0.1389  0.0445  0.1293
 2149TIP3    H127862   2.782   4.576  11.350 -0.9115 -1.8807  0.2917
 2149TIP3    H227863   2.673   4.584  11.455 -0.1167  1.0607  0.9286
 2150TIP3   OH227864   0.233   0.795  10.826  0.4824 -0.4393 -0.3863
 2150TIP3    H127865   0.268   0.811  10.913  1.7510 -2.4780 -0.5052
 2150TIP3    H227866   0.309   0.799  10.768 -0.1887 -0.2100 -1.2680
 2151TIP3   OH227867   4.986   5.214  16.037 -0.3543 -0.0407 -0.1801
 2151TIP3    H127868   4.916   5.162  16.078  0.8332 -1.1303  0.4843
 2151TIP3    H227869   4.951   5.236  15.950 -1.3374 -0.9798 -0.0348
 2152TIP3   OH227870   1.116   6.412   3.377 -0.0403 -0.0121 -0.1462
 2152TIP3    H127871   1.026   6.382   3.384  0.3755 -1.4885 -1.0411
 2152TIP3    H227872   1.166   6.356   3.436  0.2634  0.9836  0.5658
 2153TIP3   OH227873   5.728   2.253   5.819  0.4044 -0.2279 -0.1166
 2153TIP3    H127874   5.756   2.168   5.855  1.5553 -0.6599 -1.9698
 2153TIP3    H227875   5.657   2.231   5.759 -0.6893  0.3641  0.9350
 2154TIP3   OH227876   4.577   4.146   3.371  0.6791 -0.1209  0.1118
 2154TIP3    H127877   4.587   4.055   3.342 -0.1209  0.5691 -2.4359
 2154TIP3    H227878   4.574   4.140   3.467  0.3119 -2.8105 -0.0197
 2155TIP3   OH227879   3.411   1.285  15.793 -0.4562 -0.2791 -0.2552
 2155TIP3    H127880   3.461   1.205  15.781 -0.7336 -0.8145  2.0112
 2155TIP3    H227881   3.341   1.279  15.728  1.1614 -0.4979 -2.0321
 2156TIP3   OH227882   1.652   2.513   5.874  0.0774 -0.1510  0.1441
 2156TIP3    H127883   1.622   2.473   5.793 -2.4467  1.0560  0.4218
 2156TIP3    H227884   1.650   2.608   5.857 -0.9979  0.1502  1.7168
 2157TIP3   OH227885   1.551   6.275   6.002 -0.0632  0.5413 -0.1390
 2157TIP3    H127886   1.552   6.210   6.071  0.9616  0.5980 -0.0948
 2157TIP3    H227887   1.535   6.358   6.047 -0.8765  0.3920 -0.1421
 2158TIP3   OH227888   3.490   3.950   3.082 -0.3207 -0.2136 -0.1796
 2158TIP3    H127889   3.544   4.026   3.058 -0.9406  0.6588  1.1352
 2158TIP3    H227890   3.488   3.951   3.177 -1.6713 -0.9428 -0.1839
 2159TIP3   OH227891   0.468   3.426  14.380 -0.1942 -0.4753 -0.2115
 2159TIP3    H127892   0.550   3.382  14.358  0.1665  0.7476 -1.3196
 2159TIP3    H227893   0.491   3.484  14.453  0.2048  0.7171 -1.2626
 2160TIP3   OH227894   1.103   3.116  15.312  0.1460  0.7000  0.3239
 2160TIP3    H127895   1.178   3.175  15.299  0.1768  0.7438  0.6757
 2160TIP3    H227896   1.032   3.173  15.342  0.2612  0.5238  0.9562
 2161TIP3   OH227897   3.274   5.638   3.329 -0.0083 -0.1140  0.3821
 2161TIP3    H127898   3.364   5.654   3.358  0.3029 -0.7100 -0.2429
 2161TIP3    H227899   3.279   5.557   3.279 -1.0386 -0.5613  0.9874
 2162TIP3   OH227900   0.896   2.135  13.524  0.3658  0.5662  0.6790
 2162TIP3    H127901   0.955   2.135  13.448 -1.5324  3.1760 -0.8661
 2162TIP3    H227902   0.839   2.060  13.510  0.5430  0.5632 -0.0705
 2163TIP3   OH227903   4.898   4.786   3.727  0.3995 -0.3022 -0.1077
 2163TIP3    H127904   4.868   4.839   3.653 -0.1827 -1.0269 -0.4020
 2163TIP3    H227905   4.882   4.696   3.700 -0.9097 -0.5324  1.3674
 2164TIP3   OH227906   2.234   1.861   4.284 -0.7422 -0.2536 -0.2243
 2164TIP3    H127907   2.326   1.840   4.265 -0.4827  0.2516  0.4754
 2164TIP3    H227908   2.203   1.905   4.205 -0.2978 -0.1558 -0.3452
 2165TIP3   OH227909   2.682   2.490   3.226 -0.5409  0.1862 -0.3398
 2165TIP3    H127910   2.697   2.546   3.302  2.8850 -2.1981  0.8898
 2165TIP3    H227911   2.641   2.412   3.263 -2.0406  0.4210 -1.4955
 2166TIP3   OH227912   3.314   2.667   2.846  0.4182 -0.2051  0.1840
 2166TIP3    H127913   3.320   2.598   2.912  1.1850 -0.6556 -0.3516
 2166TIP3    H227914   3.344   2.626   2.765 -1.9802 -0.1058 -0.7846
 2167TIP3   OH227915   6.764   2.577   5.239 -0.1735 -0.5078 -0.0411
 2167TIP3    H127916   6.843   2.626   5.263 -1.0784  0.9525  0.0277
 2167TIP3    H227917   6.787   2.485   5.254  2.0543 -0.2422 -1.5488
 2168TIP3   OH227918   5.395   3.170   5.069 -0.6011 -0.2638 -0.2411
 2168TIP3    H127919   5.434   3.228   5.135 -0.7446  0.4176 -0.7607
 2168TIP3    H227920   5.433   3.084   5.088  2.3290  0.6580 -1.6673
 2169TIP3   OH227921   1.777   4.317   4.467  0.0344 -0.2393  0.5674
 2169TIP3    H127922   1.686   4.337   4.487  0.1462 -1.2547  2.2215
 2169TIP3    H227923   1.773   4.251   4.397 -0.3891  2.7445 -2.3142
 2170TIP3   OH227924   5.103   3.333  16.917 -0.4447  0.5670 -0.1904
 2170TIP3    H127925   5.142   3.254  16.956  1.4143  0.1337 -2.7659
 2170TIP3    H227926   5.154   3.405  16.953  0.0056  0.3337 -0.3609
 2171TIP3   OH227927   0.259   3.944   1.198 -0.1482 -0.1553 -0.1282
 2171TIP3    H127928   0.321   3.880   1.163 -0.2356 -0.8964  1.0418
 2171TIP3    H227929   0.185   3.942   1.138  0.5948  0.0993 -1.0540
 2172TIP3   OH227930   0.653   5.330   2.898  0.1244 -0.5063  0.0165
 2172TIP3    H127931   0.561   5.340   2.922  0.1914 -0.8876  0.4236
 2172TIP3    H227932   0.659   5.242   2.860 -0.1228  0.3365 -2.0540
 2173TIP3   OH227933   6.251   5.084  15.887  0.0147  0.1477  0.7745
 2173TIP3    H127934   6.326   5.090  15.945  2.1906  0.5204 -1.9827
 2173TIP3    H227935   6.237   4.990  15.875  2.9147  0.0125 -2.1878
 2174TIP3   OH227936   5.067   0.707   3.597 -0.5901 -0.4638  0.3426
 2174TIP3    H127937   4.987   0.655   3.590  0.1545 -1.6487  0.5147
 2174TIP3    H227938   5.124   0.671   3.529  0.0711 -0.1237  0.7244
 2175TIP3   OH227939   3.184   3.241   5.152  0.2510  0.6834 -0.3980
 2175TIP3    H127940   3.153   3.260   5.063 -0.4714 -0.5754 -0.4179
 2175TIP3    H227941   3.125   3.290   5.209 -1.6929 -1.5309 -0.4427
 2176TIP3   OH227942   1.744   1.529   1.387  0.2089  0.3104  0.1881
 2176TIP3    H127943   1.797   1.465   1.339  1.0265  0.9255  0.2641
 2176TIP3    H227944   1.701   1.579   1.319 -0.8327 -0.6419  0.1312
 2177TIP3   OH227945   0.693   5.378   5.634  0.3842 -0.3202  0.3388
 2177TIP3    H127946   0.717   5.366   5.542  1.8800 -2.4009  0.9749
 2177TIP3    H227947   0.598   5.371   5.636  0.4491 -1.6312 -0.8603
 2178TIP3   OH227948   0.899   0.763  16.873  0.0961 -0.2558 -0.3955
 2178TIP3    H127949   0.854   0.686  16.909  0.8310 -0.5769 -0.1575
 2178TIP3    H227950   0.882   0.759  16.779  0.3153 -0.8284 -0.4110
 2179TIP3   OH227951   3.857   0.988   2.877 -0.5696 -0.1307  0.2873
 2179TIP3    H127952   3.905   0.905   2.887 -0.0606 -0.0179 -1.1767
 2179TIP3    H227953   3.769   0.969   2.910 -0.2939 -1.0933  0.4927
 2180TIP3   OH227954   1.229   1.543   3.295 -0.2848  0.4489  0.6385
 2180TIP3    H127955   1.140   1.566   3.269 -0.6306 -0.0688  1.3556
 2180TIP3    H227956   1.268   1.626   3.323 -0.7533  0.5714  0.9385
 2181TIP3   OH227957   5.401   4.572  13.732 -0.1809  0.3344 -0.1751
 2181TIP3    H127958   5.492   4.548  13.712 -0.3044 -0.0501 -0.2681
 2181TIP3    H227959   5.400   4.667  13.726  0.4832  0.4250  0.8910
 2182TIP3   OH227960   4.209   4.645  17.110  0.4563 -0.1140 -0.7350
 2182TIP3    H127961   4.207   4.646  17.206  2.6078  2.3357 -0.6569
 2182TIP3    H227962   4.213   4.552  17.087  0.0997 -0.7232  1.5424
 2183TIP3   OH227963   1.077   3.833   2.188  0.9840 -0.1965  0.3574
 2183TIP3    H127964   1.108   3.905   2.133  0.4469  0.1470  0.4963
 2183TIP3    H227965   1.128   3.840   2.269  2.1982 -1.0633 -0.3119
 2184TIP3   OH227966   4.371   2.226   4.286  0.4550  0.3522 -0.5586
 2184TIP3    H127967   4.430   2.228   4.211  0.0737  0.6583 -0.8467
 2184TIP3    H227968   4.364   2.317   4.314  1.4465  0.1108  0.5094
 2185TIP3   OH227969   5.145   0.212   4.895  0.4465 -0.1812  0.7089
 2185TIP3    H127970   5.068   0.189   4.948 -0.0826  0.6637  0.3220
 2185TIP3    H227971   5.220   0.184   4.948 -0.0934  0.1030  1.6320
 2186TIP3   OH227972   2.329   2.897   1.682  0.7827  0.0445 -0.4617
 2186TIP3    H127973   2.257   2.952   1.713  0.6906 -0.5464  0.4047
 2186TIP3    H227974   2.331   2.824   1.744  0.2135 -1.4747 -2.2238
 2187TIP3   OH227975   4.933   2.465   1.206 -0.2394 -0.2692  0.0501
 2187TIP3    H127976   4.992   2.444   1.133 -0.6831  0.9037 -0.6524
 2187TIP3    H227977   4.968   2.414   1.279  0.3646 -1.2695 -0.9049
 2188TIP3   OH227978   4.382   2.261   5.799 -0.5971 -0.3495 -0.4013
 2188TIP3    H127979   4.296   2.227   5.774 -0.3853 -2.1962  1.2772
 2188TIP3    H227980   4.370   2.292   5.889  0.7377 -1.4850  0.1627
 2189TIP3   OH227981   4.013   2.785   0.229  0.2031  0.1029 -0.1331
 2189TIP3    H127982   4.007   2.793   0.134  2.7091  1.1000 -0.2214
 2189TIP3    H227983   3.949   2.848   0.262 -0.5552 -0.1181 -1.1207
 2190TIP3   OH227984   5.819   0.408   0.154  0.1102 -0.6934  0.7309
 2190TIP3    H127985   5.847   0.498   0.139 -0.9154 -0.4676  0.1067
 2190TIP3    H227986   5.827   0.396   0.248  1.5620 -0.4019  0.6595
 2191TIP3   OH227987   5.591   0.849   1.572 -0.3425 -0.3124 -0.2920
 2191TIP3    H127988   5.583   0.942   1.552 -1.0007 -0.7027 -1.8790
 2191TIP3    H227989   5.641   0.812   1.499  1.1093 -0.9773  0.9978
 2192TIP3   OH227990   1.677   2.917   6.814 -0.0224 -0.0901 -0.3283
 2192TIP3    H127991   1.668   2.976   6.888  0.9770 -1.5975  1.0217
 2192TIP3    H227992   1.686   2.974   6.738  2.0104  1.5018  1.0787
 2193TIP3   OH227993   5.231   5.597  16.341  0.5789  0.4377  0.0753
 2193TIP3    H127994   5.192   5.510  16.332 -0.8102  1.0462  0.0100
 2193TIP3    H227995   5.175   5.641  16.405  2.4120  0.6478  1.5968
 2194TIP3   OH227996   5.453   2.789   1.213  0.1456  0.3880  0.5346
 2194TIP3    H127997   5.470   2.740   1.133 -0.7342  0.0736  0.5370
 2194TIP3    H227998   5.512   2.864   1.208  1.5003 -0.6623  0.5371
 2195TIP3   OH227999   0.700   3.545  11.613  0.5181  0.3324  0.3003
 2195TIP3    H128000   0.642   3.609  11.654 -2.2475 -1.9642  0.1238
 2195TIP3    H228001   0.735   3.494  11.686 -1.3901 -1.2816  0.1147
 2196TIP3   OH228002   3.678   4.401   0.516  0.3780  0.7765 -0.1715
 2196TIP3    H128003   3.620   4.327   0.497  2.8320 -1.1609 -0.3826
 2196TIP3    H228004   3.754   4.386   0.461  1.1875  3.1529  0.2763
 2197TIP3   OH228005   6.558   5.612  11.437 -0.2572  0.1538 -0.1789
 2197TIP3    H128006   6.503   5.551  11.388 -0.1514  0.2562 -0.4237
 2197TIP3    H228007   6.646   5.575  11.431 -0.4178 -0.4017  0.8356
 2198TIP3   OH228008   0.522   2.439   0.851 -0.4309 -0.4314 -0.0616
 2198TIP3    H128009   0.483   2.510   0.800  0.3167  0.1672  0.1822
 2198TIP3    H228010   0.613   2.435   0.819  0.7600  1.5136  2.7932
 2199TIP3   OH228011   4.988   1.894   5.696 -0.2592  0.9826  0.3165
 2199TIP3    H128012   4.927   1.829   5.731  1.9695 -0.7425  1.1380
 2199TIP3    H228013   5.012   1.861   5.610 -0.3197  1.5546  0.0783
 2200TIP3   OH228014   1.089   3.837  16.606  0.4373 -0.0812 -0.4414
 2200TIP3    H128015   1.054   3.881  16.529  1.5397  1.1230 -0.2673
 2200TIP3    H228016   1.115   3.908  16.665  0.1405 -0.9781  0.8010
 2201TIP3   OH228017   3.101   4.241   4.247  0.1324 -0.0416 -0.3928
 2201TIP3    H128018   3.020   4.291   4.256  0.4796  1.0429 -2.8543
 2201TIP3    H228019   3.086   4.161   4.297 -2.3200  0.2978 -0.5301
 2202TIP3   OH228020   2.865   6.132   6.005 -0.1730  0.7621 -0.0525
 2202TIP3    H128021   2.824   6.049   6.029  0.3122  0.9107  1.3453
 2202TIP3    H228022   2.811   6.166   5.934 -0.1150 -0.9641 -0.9464
 2203TIP3   OH228023   1.539   3.378   4.191 -0.1321  0.1214  0.4771
 2203TIP3    H128024   1.592   3.373   4.271  1.3277 -0.2959 -0.4943
 2203TIP3    H228025   1.480   3.451   4.206 -0.1444 -0.1964  2.1030
 2204TIP3   OH228026   2.742   3.640  11.573 -0.4213  0.4352 -0.3347
 2204TIP3    H128027   2.660   3.648  11.524 -1.5774 -2.4618  0.9744
 2204TIP3    H228028   2.715   3.647  11.665  0.7133 -0.9786  0.1211
 2205TIP3   OH228029   6.767   2.970   0.843 -0.0911  0.2792  0.6896
 2205TIP3    H128030   6.805   2.916   0.913  0.8528 -0.3417 -0.2833
 2205TIP3    H228031   6.748   2.908   0.773  2.2984  1.3713 -0.9820
 2206TIP3   OH228032   2.996   6.270   5.390  0.4219 -0.4913 -0.2026
 2206TIP3    H128033   2.991   6.295   5.298  0.3038 -0.2989 -0.1436
 2206TIP3    H228034   2.906   6.244   5.412  0.2767  0.2189  0.0718
 2207TIP3   OH228035   6.543   6.601  17.076 -0.3040  0.5843 -0.1084
 2207TIP3    H128036   6.627   6.564  17.050 -0.9848 -0.0060 -1.5090
 2207TIP3    H228037   6.527   6.566  17.164  1.5339  1.7731  0.7337
 2208TIP3   OH228038   2.478   4.133  14.026 -0.0856  0.5169 -0.2233
 2208TIP3    H128039   2.385   4.112  14.021 -0.0495  0.1234  0.5888
 2208TIP3    H228040   2.481   4.228  14.024 -0.5311  0.5397  0.0298
 2209TIP3   OH228041   0.555   3.132   0.102 -0.2832 -0.1878 -0.1378
 2209TIP3    H128042   0.492   3.064   0.078 -0.1319 -1.1492  2.0589
 2209TIP3    H228043   0.631   3.083   0.135  0.3513  1.0251  0.2137
 2210TIP3   OH228044   5.612   3.503  13.483  0.2210 -0.6711 -0.0771
 2210TIP3    H128045   5.594   3.468  13.396 -0.3125 -0.2224 -0.1479
 2210TIP3    H228046   5.705   3.524  13.481  0.3147 -1.1169 -0.3826
 2211TIP3   OH228047   5.774   3.768  10.995  0.1346  0.8882  0.5794
 2211TIP3    H128048   5.713   3.702  10.963  2.4328 -1.2451  0.4698
 2211TIP3    H228049   5.818   3.800  10.915 -1.5100  3.1891  0.5300
 2212TIP3   OH228050   4.472   3.660   6.080 -0.3620  0.3718  0.9471
 2212TIP3    H128051   4.539   3.722   6.054 -1.1459  1.1031  0.6403
 2212TIP3    H228052   4.489   3.643   6.173  1.5883 -1.1641  0.3386
 2213TIP3   OH228053   4.513   0.517  11.408  0.8366  0.7392 -0.0635
 2213TIP3    H128054   4.454   0.548  11.477 -0.9490  0.2266 -1.3129
 2213TIP3    H228055   4.490   0.569  11.331  3.4658  1.9686 -0.0633
 2214TIP3   OH228056   2.748   1.573  12.776 -0.2841 -0.0986  0.8099
 2214TIP3    H128057   2.681   1.505  12.786  0.0959 -0.6833 -0.5012
 2214TIP3    H228058   2.745   1.596  12.683  0.6151  0.6200  0.9538
 2215TIP3   OH228059   1.639   1.542  12.491 -0.3513 -0.2789  0.2122
 2215TIP3    H128060   1.700   1.601  12.536 -1.0712  1.2334 -0.7541
 2215TIP3    H228061   1.659   1.554  12.398  0.9355 -3.1668  0.0579
 2216TIP3   OH228062   3.810   0.587   0.394  0.1245  0.0348  0.3392
 2216TIP3    H128063   3.794   0.676   0.426 -0.3371  0.1908 -0.3154
 2216TIP3    H228064   3.849   0.599   0.308  0.9817 -0.3884  0.6634
 2217TIP3   OH228065   6.660   2.296   3.172 -0.0170  0.5575  0.7161
 2217TIP3    H128066   6.721   2.336   3.109 -2.1445  0.3344 -1.5513
 2217TIP3    H228067   6.606   2.368   3.203 -0.6201  0.2690  0.3516
 2218TIP3   OH228068   2.182   5.548   4.142  0.0374  0.2699  0.4265
 2218TIP3    H128069   2.114   5.595   4.191 -1.3494 -1.0295 -0.2208
 2218TIP3    H228070   2.237   5.617   4.106 -0.8107  1.3379  1.1286
 2219TIP3   OH228071   6.661   6.680  14.749  0.0506  0.6014  0.1260
 2219TIP3    H128072   6.712   6.720  14.820 -2.2639 -1.8767  3.3405
 2219TIP3    H228073   6.571   6.708  14.765 -0.8084 -1.6398 -0.6441
 2220TIP3   OH228074   3.066   2.414   5.532 -0.6383 -0.0225 -0.2422
 2220TIP3    H128075   3.105   2.327   5.539  2.3804  1.1955 -1.0303
 2220TIP3    H228076   3.017   2.411   5.450 -0.2646 -0.8836 -0.4430
 2221TIP3   OH228077   0.487   4.653   2.336  0.1813  0.2858  0.0290
 2221TIP3    H128078   0.430   4.686   2.406  0.6439  1.2947 -0.0657
 2221TIP3    H228079   0.501   4.561   2.358  1.9610  1.0839  2.3774
 2222TIP3   OH228080   5.866   2.672  13.056  0.4921 -0.1555 -0.3834
 2222TIP3    H128081   5.859   2.726  12.977 -0.0331  0.6001  0.1722
 2222TIP3    H228082   5.897   2.732  13.123  0.3148 -0.6500  0.1432
 2223TIP3   OH228083   6.749   1.021   4.247 -0.2743 -0.1133 -0.9594
 2223TIP3    H128084   6.724   0.953   4.185  0.1020 -1.2444  0.1115
 2223TIP3    H228085   6.844   1.031   4.234  0.2895 -2.2773  1.3019
 2224TIP3   OH228086   6.714   6.023  11.753  0.2683 -0.1683 -0.3212
 2224TIP3    H128087   6.755   6.046  11.669 -3.0448 -0.5417 -2.1558
 2224TIP3    H228088   6.670   6.103  11.781  0.1132 -0.4591  0.2701
 2225TIP3   OH228089   2.700   2.655   5.534  0.4589 -0.0652  0.7874
 2225TIP3    H128090   2.706   2.631   5.442 -1.1925 -0.6006  0.7909
 2225TIP3    H228091   2.772   2.716   5.549  0.2673  0.6282 -1.0432
 2226TIP3   OH228092   3.264   1.156   5.614 -0.4054  0.1125  0.1052
 2226TIP3    H128093   3.246   1.093   5.544  0.9926  0.4583 -0.5974
 2226TIP3    H228094   3.195   1.141   5.678 -0.2926 -1.8997 -0.2033
 2227TIP3   OH228095   5.565   2.325  13.214 -0.6379 -0.3868 -0.1825
 2227TIP3    H128096   5.630   2.274  13.261 -1.9788 -0.4587  1.6465
 2227TIP3    H228097   5.613   2.364  13.140  1.5893  0.1023  1.4823
 2228TIP3   OH228098   2.129   6.140   0.615 -0.4755 -0.0688 -0.0126
 2228TIP3    H128099   2.110   6.230   0.587  0.2246 -0.3036 -1.2927
 2228TIP3    H228100   2.115   6.141   0.709  0.7252  1.7205  0.1900
 2229TIP3   OH228101   4.856   3.214   1.339 -0.5753 -0.0084 -0.3039
 2229TIP3    H128102   4.787   3.278   1.319 -0.6734  0.1125  0.4160
 2229TIP3    H228103   4.812   3.146   1.390 -0.3799 -0.4423 -0.7095
 2230TIP3   OH228104   6.144   6.397  15.928 -0.1900  0.4482 -0.2346
 2230TIP3    H128105   6.056   6.368  15.904 -0.2578  0.8102 -0.4351
 2230TIP3    H228106   6.129   6.480  15.974 -0.1475 -0.7787  2.0495
 2231TIP3   OH228107   4.980   5.054   4.313  0.0537  0.5100 -0.1981
 2231TIP3    H128108   5.004   5.018   4.228  1.0539  0.4745  0.0878
 2231TIP3    H228109   4.884   5.053   4.314  0.0374  0.4389 -1.2855
 2232TIP3   OH228110   1.365   4.763   1.594 -0.5565 -0.2205 -0.5808
 2232TIP3    H128111   1.341   4.840   1.543 -2.1641  1.5798  2.7285
 2232TIP3    H228112   1.294   4.701   1.578 -2.2396  1.1914  1.1160
 2233TIP3   OH228113   0.989   5.028   1.797  0.2783  0.1325  0.2001
 2233TIP3    H128114   0.909   4.997   1.839  0.2152 -0.3639 -0.2846
 2233TIP3    H228115   1.056   4.965   1.825  0.5966  0.8111  0.9818
 2234TIP3   OH228116   6.650   4.842   0.530 -0.4655 -0.0247  0.2372
 2234TIP3    H128117   6.621   4.766   0.479  2.0947 -0.2817 -0.9136
 2234TIP3    H228118   6.653   4.914   0.467  0.4962  0.2005  0.5234
 2235TIP3   OH228119   5.694   4.791  16.634 -0.4646  0.2441 -0.7693
 2235TIP3    H128120   5.727   4.881  16.635  1.7971 -0.5565  0.3766
 2235TIP3    H228121   5.660   4.776  16.722  0.3234 -0.4301 -0.5767
 2236TIP3   OH228122   4.159   1.618  14.012 -0.1411 -0.4546 -0.1572
 2236TIP3    H128123   4.096   1.548  14.026 -1.1848  0.4821 -0.1536
 2236TIP3    H228124   4.117   1.697  14.046  1.0908  0.1538 -0.0039
 2237TIP3   OH228125   1.013   5.485  13.783 -0.2055  0.3054 -0.6531
 2237TIP3    H128126   1.089   5.543  13.783  0.4277 -0.5157 -0.6688
 2237TIP3    H228127   1.003   5.457  13.692  0.1881 -0.5041 -0.4528
 2238TIP3   OH228128   5.226   0.090   6.112  0.1378 -0.5464 -0.1922
 2238TIP3    H128129   5.275   0.157   6.160  0.0922  0.3003 -1.2954
 2238TIP3    H228130   5.252   0.008   6.153  0.7266  0.0866  0.7363
 2239TIP3   OH228131   6.161   0.574   0.661 -0.0221  0.1856  0.3246
 2239TIP3    H128132   6.130   0.501   0.714 -0.3065 -0.7717 -1.1097
 2239TIP3    H228133   6.212   0.533   0.591  0.4628  1.4147 -0.0678
 2240TIP3   OH228134   6.348   0.598  15.560  0.4427 -0.1631  0.3020
 2240TIP3    H128135   6.342   0.505  15.537 -1.0930 -0.3106  1.2785
 2240TIP3    H228136   6.442   0.615  15.567  0.7134 -1.7337  0.5108
 2241TIP3   OH228137   6.752   3.573  11.620 -0.2169 -0.1238 -0.0109
 2241TIP3    H128138   6.664   3.561  11.654  1.0194 -0.3993  3.2746
 2241TIP3    H228139   6.774   3.490  11.579 -1.4665 -0.0159 -0.9532
 2242TIP3   OH228140   0.173   6.407   3.242 -0.2289  0.0429  0.5283
 2242TIP3    H128141   0.251   6.440   3.198 -0.9250  0.5530 -0.3402
 2242TIP3    H228142   0.114   6.482   3.247 -0.9094 -0.4883  0.6120
 2243TIP3   OH228143   4.725   6.716   1.813 -0.0561  0.4526 -0.3246
 2243TIP3    H128144   4.797   6.766   1.851  0.2987  0.3811 -0.8946
 2243TIP3    H228145   4.761   6.681   1.732 -0.0750 -1.3177  0.4018
 2244TIP3   OH228146   5.954   3.324   0.710  0.9946  0.0064  0.4972
 2244TIP3    H128147   6.024   3.354   0.767  0.8067  0.8654  0.2785
 2244TIP3    H228148   5.998   3.303   0.627  0.5408  4.0070 -0.8620
 2245TIP3   OH228149   1.864   1.080  14.305 -0.2456  0.1772 -0.4266
 2245TIP3    H128150   1.885   1.128  14.386  0.9535 -0.6041 -0.2602
 2245TIP3    H228151   1.823   0.999  14.336 -0.7427  0.3413 -0.6488
 2246TIP3   OH228152   5.458   3.935  12.532  0.3150 -0.0031  0.3223
 2246TIP3    H128153   5.488   4.004  12.591  0.9978 -0.0693  0.0578
 2246TIP3    H228154   5.488   3.963  12.445 -0.7959  0.1663 -0.0237
 2247TIP3   OH228155   1.370   4.589  11.193  0.1651  0.2518 -0.0978
 2247TIP3    H128156   1.349   4.667  11.141 -2.0453 -0.9473 -1.0927
 2247TIP3    H228157   1.287   4.565  11.235  1.5852  0.3353  2.8368
 2248TIP3   OH228158   6.408   3.719  13.700 -0.0945 -0.3608  0.6649
 2248TIP3    H128159   6.476   3.656  13.677 -0.1938  0.5646 -2.4333
 2248TIP3    H228160   6.327   3.681  13.666 -0.1585  1.3378 -1.2260
 2249TIP3   OH228161   4.939   3.525  14.791  0.1106  0.2603 -0.0819
 2249TIP3    H128162   4.999   3.471  14.739  0.1306 -1.7536  1.9463
 2249TIP3    H228163   4.919   3.471  14.867 -2.1131  2.0306  0.6293
 2250TIP3   OH228164   3.594   1.264  14.980 -0.0452 -0.8166 -0.1498
 2250TIP3    H128165   3.630   1.289  14.895 -0.0083  0.9853  0.3634
 2250TIP3    H228166   3.569   1.348  15.020 -0.1056 -1.6528  1.5837
 2251TIP3   OH228167   0.651   3.532  13.348 -0.2439  0.1265  0.4322
 2251TIP3    H128168   0.699   3.609  13.378 -0.7667  0.6539 -0.0599
 2251TIP3    H228169   0.597   3.564  13.276  1.0013 -1.1331 -1.0886
 2252TIP3   OH228170   3.085   2.789   1.675  0.5462  0.2318  0.3950
 2252TIP3    H128171   3.068   2.804   1.582  0.1809 -0.1914  0.3924
 2252TIP3    H228172   3.052   2.701   1.692  1.7782 -0.1922  0.6346
 2253TIP3   OH228173   2.303   6.670  12.238 -0.1345  0.5525 -0.7689
 2253TIP3    H128174   2.295   6.712  12.152  0.6749  2.0399 -0.1211
 2253TIP3    H228175   2.345   6.735  12.293  1.1168 -1.0994  0.2700
 2254TIP3   OH228176   1.011   2.780   6.456 -0.1933  0.3308 -0.3046
 2254TIP3    H128177   1.096   2.773   6.498 -1.0392  0.1778  1.4308
 2254TIP3    H228178   0.994   2.874   6.451  0.1038  0.3628 -0.7119
 2255TIP3   OH228179   4.653   3.574  15.308 -0.2135  0.0628 -0.0057
 2255TIP3    H128180   4.596   3.648  15.286 -0.6171 -0.4284 -0.6207
 2255TIP3    H228181   4.718   3.572  15.238  0.1759  0.2255  0.3520
 2256TIP3   OH228182   1.860   3.085  14.426  0.0586  0.5860  0.7417
 2256TIP3    H128183   1.856   3.154  14.360  0.7652  0.8144  0.9242
 2256TIP3    H228184   1.859   3.132  14.510  1.5116  0.4557  0.8593
 2257TIP3   OH228185   5.180   2.781   0.441  0.0518  0.4873 -0.8056
 2257TIP3    H128186   5.160   2.874   0.442  1.3304  0.7616  0.4955
 2257TIP3    H228187   5.123   2.743   0.508  0.4276  0.5181 -0.4719
 2258TIP3   OH228188   0.766   1.357   3.610 -0.5530 -0.7726 -0.2573
 2258TIP3    H128189   0.837   1.301   3.580  1.0746  1.0000  0.2049
 2258TIP3    H228190   0.774   1.357   3.705 -0.9896 -0.3370 -0.2191
 2259TIP3   OH228191   4.498   6.285  11.543 -0.0879  0.0891 -0.3178
 2259TIP3    H128192   4.474   6.363  11.494 -0.0184  0.2322 -0.1224
 2259TIP3    H228193   4.535   6.318  11.625 -1.6659 -0.1571  0.5134
 2260TIP3   OH228194   5.690   2.182   3.409  0.3576  0.4144 -0.0067
 2260TIP3    H128195   5.683   2.091   3.437 -1.2188  0.9247  1.3537
 2260TIP3    H228196   5.654   2.183   3.320  1.5732 -0.5072 -0.5081
 2261TIP3   OH228197   6.375   4.892   3.886  0.2592  0.3730 -0.1051
 2261TIP3    H128198   6.364   4.802   3.856  1.2872 -0.2634  1.3906
 2261TIP3    H228199   6.422   4.885   3.969 -1.1432  2.1927  0.8868
 2262TIP3   OH228200   6.170   5.264  11.083  0.1479 -0.3155 -0.5481
 2262TIP3    H128201   6.171   5.349  11.126 -0.2046 -0.5885 -0.0034
 2262TIP3    H228202   6.220   5.277  11.002 -0.4496  0.5641 -0.7741
 2263TIP3   OH228203   5.956   0.271  13.067 -0.1143  0.1110  0.0499
 2263TIP3    H128204   5.933   0.327  12.993 -2.7710 -0.9406  0.0452
 2263TIP3    H228205   5.913   0.311  13.143  0.7435 -0.0620  0.6402
 2264TIP3   OH228206   1.633   0.519   0.076 -0.5378 -0.3996 -0.2471
 2264TIP3    H128207   1.559   0.463   0.054 -0.3387  0.0654 -2.1852
 2264TIP3    H228208   1.654   0.565  -0.005  2.2470 -0.9249  0.1027
 2265TIP3   OH228209   3.032   2.208   4.432  0.4403 -0.2777 -0.3662
 2265TIP3    H128210   3.027   2.131   4.489  1.0137  0.8334  1.2445
 2265TIP3    H228211   3.035   2.282   4.493  2.1772  0.8922 -1.8239
 2266TIP3   OH228212   6.531   3.922   5.788  0.5673  0.1162 -0.0146
 2266TIP3    H128213   6.618   3.957   5.770  0.4486  0.8952  0.9250
 2266TIP3    H228214   6.487   3.991   5.837 -0.4806 -0.3940 -0.2380
 2267TIP3   OH228215   0.136   5.282  13.936  0.5742 -0.1378 -0.3842
 2267TIP3    H128216   0.116   5.253  14.025  0.8268 -1.3294 -0.7061
 2267TIP3    H228217   0.199   5.354  13.948  0.3415 -0.0630  0.4092
 2268TIP3   OH228218   3.467   6.775   6.173 -0.5474  0.3304 -0.1711
 2268TIP3    H128219   3.535   6.821   6.221  0.6156  0.5269 -1.9591
 2268TIP3    H228220   3.386   6.796   6.219  0.6278 -0.1763  2.1769
 2269TIP3   OH228221   4.935   3.840  14.129 -0.1070 -0.4651 -0.3434
 2269TIP3    H128222   5.026   3.820  14.107 -0.6244 -3.3893 -0.1419
 2269TIP3    H228223   4.909   3.906  14.065  2.3556  0.9720  0.0777
 2270TIP3   OH228224   3.838   5.360   2.085 -0.6687 -0.2178  0.3486
 2270TIP3    H128225   3.772   5.295   2.109 -0.4987 -1.1481 -1.6048
 2270TIP3    H228226   3.831   5.427   2.153 -1.7295 -1.6439  1.6810
 2271TIP3   OH228227   5.308   2.667   3.397 -0.5330 -0.7988  0.1730
 2271TIP3    H128228   5.390   2.619   3.387 -0.7286 -1.2420  0.6511
 2271TIP3    H228229   5.307   2.693   3.490  0.0287  0.9656 -0.2994
 2272TIP3   OH228230   4.682   1.969   3.667 -0.3389  0.4700  0.4684
 2272TIP3    H128231   4.710   1.943   3.579 -0.2071 -1.1751  0.9907
 2272TIP3    H228232   4.709   2.061   3.674  0.0705  0.4829 -1.0264
 2273TIP3   OH228233   1.583   3.175  16.781  0.0421 -0.0825  0.0337
 2273TIP3    H128234   1.570   3.083  16.804 -0.7764 -0.3866 -1.5722
 2273TIP3    H228235   1.678   3.187  16.788 -0.0051 -0.5452  1.9884
 2274TIP3   OH228236   0.206   5.996  12.474 -0.2004  0.4111  0.1217
 2274TIP3    H128237   0.111   5.986  12.477 -0.0821 -0.9852 -0.4598
 2274TIP3    H228238   0.220   6.073  12.419 -0.9907  0.6305  0.2141
 2275TIP3   OH228239   5.736   3.707  11.574 -0.1740  0.5247 -0.1963
 2275TIP3    H128240   5.664   3.766  11.551 -2.0658 -2.0557 -1.2367
 2275TIP3    H228241   5.737   3.706  11.670 -2.1010  0.0105 -0.1531
 2276TIP3   OH228242   3.200   5.182   0.221  0.0714  0.1361  0.1659
 2276TIP3    H128243   3.211   5.109   0.160 -2.8373  0.5885 -1.0008
 2276TIP3    H228244   3.239   5.257   0.177  1.2939 -0.2898  0.5065
 2277TIP3   OH228245   2.585   5.259  10.885  0.5682 -0.2467  0.4403
 2277TIP3    H128246   2.648   5.314  10.839  0.7502  0.2806  1.3149
 2277TIP3    H228247   2.637   5.209  10.947  0.4201 -1.5126 -0.4397
 2278TIP3   OH228248   0.287   2.961  12.485  0.3751  0.4442  0.1145
 2278TIP3    H128249   0.268   3.041  12.435  1.2263  1.1512  0.9025
 2278TIP3    H228250   0.325   2.902  12.421  1.2818  1.2753 -0.1272
 2279TIP3   OH228251   2.109   4.222  16.622  0.4114 -0.1632  0.1570
 2279TIP3    H128252   2.181   4.208  16.683  0.5753  1.0790  0.2616
 2279TIP3    H228253   2.142   4.286  16.560 -0.5251  0.2367  0.0613
 2280TIP3   OH228254   3.106   4.087  14.307 -0.2709 -0.2647 -0.2880
 2280TIP3    H128255   3.174   4.110  14.243 -1.2356  1.6511 -0.6716
 2280TIP3    H228256   3.032   4.143  14.284 -2.0516 -2.4335  0.0192
 2281TIP3   OH228257   0.573   6.345  13.923  0.0871  0.2712  0.5001
 2281TIP3    H128258   0.606   6.285  13.991  0.2090  0.5578  0.6938
 2281TIP3    H228259   0.556   6.288  13.848 -2.2926 -0.4308  1.5159
 2282TIP3   OH228260   2.047   1.720  14.921  0.2143  0.1078 -0.0697
 2282TIP3    H128261   2.019   1.807  14.895  1.3897  0.2823 -0.8038
 2282TIP3    H228262   2.054   1.725  15.017 -2.2758  0.0136  0.1525
 2283TIP3   OH228263   1.565   1.856  14.024 -0.4798  0.1719  0.5993
 2283TIP3    H128264   1.552   1.903  13.941 -0.9373 -2.2108 -0.7201
 2283TIP3    H228265   1.660   1.852  14.033 -0.4246  0.4005  0.1739
 2284TIP3   OH228266   5.314   6.658  13.135  0.1909 -0.3394 -0.5750
 2284TIP3    H128267   5.230   6.702  13.132  0.4837  0.3405  0.8464
 2284TIP3    H228268   5.318   6.608  13.053 -0.0770  2.3884 -2.3232
 2285TIP3   OH228269   4.270   5.445   1.478 -0.2897 -0.4520  0.2183
 2285TIP3    H128270   4.228   5.513   1.530 -0.3845 -2.6449  3.2049
 2285TIP3    H228271   4.202   5.413   1.419 -0.5735  1.1784 -0.3461
 2286TIP3   OH228272   3.548   0.774   5.431  0.5049 -0.1204 -0.4936
 2286TIP3    H128273   3.476   0.814   5.479  1.3656  2.4028 -1.2206
 2286TIP3    H228274   3.528   0.791   5.339  2.5432  1.5486 -0.6540
 2287TIP3   OH228275   1.163   3.438   4.830  0.1614  0.6425 -0.1730
 2287TIP3    H128276   1.210   3.487   4.897 -2.0442 -0.3804  2.2176
 2287TIP3    H228277   1.183   3.346   4.849  0.5369  0.3840 -1.7342
 2288TIP3   OH228278   5.519   3.556   1.618  0.4151 -0.2380  0.2501
 2288TIP3    H128279   5.537   3.501   1.694 -1.6341 -0.2980  0.7245
 2288TIP3    H228280   5.452   3.507   1.569  2.4023 -0.6838 -2.1368
 2289TIP3   OH228281   1.387   0.229   5.618  0.0875  0.1865  0.1015
 2289TIP3    H128282   1.437   0.162   5.572  0.3023 -0.8688  1.8086
 2289TIP3    H228283   1.309   0.242   5.564  0.2911 -1.0686 -0.5252
 2290TIP3   OH228284   4.851   4.469  14.195 -0.4537 -0.2527  0.6840
 2290TIP3    H128285   4.818   4.380  14.196 -0.3858 -0.2784  1.0635
 2290TIP3    H228286   4.790   4.518  14.249 -0.3496 -0.1237  0.6843
 2291TIP3   OH228287   0.782   6.225   5.754 -0.2884  0.4000 -0.1688
 2291TIP3    H128288   0.818   6.208   5.841 -1.0471  0.6025  0.1913
 2291TIP3    H228289   0.699   6.269   5.771 -0.0604  1.1660 -1.0239
 2292TIP3   OH228290   5.495   5.182  15.471  0.2195 -0.0587  0.4131
 2292TIP3    H128291   5.550   5.259  15.479 -0.2857  0.1769  1.7047
 2292TIP3    H228292   5.439   5.200  15.395  1.5236 -0.0671 -0.5674
 2293TIP3   OH228293   0.117   5.071  12.274  0.2998  0.2361  0.9749
 2293TIP3    H128294   0.063   5.102  12.346 -1.3135 -1.0323  0.3357
 2293TIP3    H228295   0.062   5.008  12.227  1.8546 -0.0986 -0.4720
 2294TIP3   OH228296   0.020   4.132  11.575 -0.2005  0.4320 -0.0744
 2294TIP3    H128297   0.101   4.150  11.528  0.7136 -0.7289  1.0196
 2294TIP3    H228298   0.046   4.075  11.648 -2.1202 -0.6236 -0.1680
 2295TIP3   OH228299   0.830   5.008   5.907 -0.4135 -0.5757 -0.2406
 2295TIP3    H128300   0.843   4.967   5.993 -1.7379  0.1002  0.3089
 2295TIP3    H228301   0.751   5.062   5.919  0.2405  0.6814 -1.4607
 2296TIP3   OH228302   5.448   6.221  14.433  0.6453 -0.0624  0.1653
 2296TIP3    H128303   5.532   6.249  14.398 -0.2092  0.9456 -1.1522
 2296TIP3    H228304   5.408   6.302  14.467 -0.2166 -0.3401 -0.1694
 2297TIP3   OH228305   6.143   0.125  17.009  0.7268 -0.3984 -0.2440
 2297TIP3    H128306   6.049   0.109  17.018  0.4878  1.2717  0.4428
 2297TIP3    H228307   6.164   0.094  16.921  0.0634 -3.1485  0.5160
 2298TIP3   OH228308   1.775   3.586   1.190  0.2996  0.0241 -0.3816
 2298TIP3    H128309   1.702   3.602   1.131 -0.3873 -1.2801  0.0810
 2298TIP3    H228310   1.849   3.632   1.151 -0.1144 -0.8953 -2.3204
 2299TIP3   OH228311   4.111   5.578  12.944  0.1172 -0.5583  0.0360
 2299TIP3    H128312   4.134   5.648  13.005  0.3099  0.4219 -1.1441
 2299TIP3    H228313   4.106   5.499  12.998  0.5103  0.2597  1.2697
 2300TIP3   OH228314   2.938   5.559  15.783 -0.0613  0.0861 -0.0011
 2300TIP3    H128315   2.869   5.612  15.824  1.3651  2.2849 -0.3593
 2300TIP3    H228316   2.986   5.522  15.857 -0.3696  0.2476  0.2814
 2301TIP3   OH228317   5.714   4.665   1.994 -0.8331 -0.2294 -0.4953
 2301TIP3    H128318   5.716   4.607   2.070 -1.3488 -0.8168 -0.9253
 2301TIP3    H228319   5.787   4.726   2.008  0.9581 -2.2118 -1.0340
 2302TIP3   OH228320   6.479   4.825   3.120 -0.2452 -0.0247  0.3437
 2302TIP3    H128321   6.536   4.776   3.179  0.8667 -0.0307 -0.7373
 2302TIP3    H228322   6.396   4.832   3.168  0.1332 -1.4433  1.2353
 2303TIP3   OH228323   6.414   1.731  15.724 -0.4969 -0.2686  0.5770
 2303TIP3    H128324   6.373   1.808  15.762 -1.1198  0.2330 -1.0408
 2303TIP3    H228325   6.489   1.765  15.675  1.1898 -1.0560  2.5187
 2304TIP3   OH228326   5.126   4.778  13.099  0.2472  0.3545  0.0389
 2304TIP3    H128327   5.086   4.748  13.180  0.2804 -0.8081 -0.3524
 2304TIP3    H228328   5.087   4.722  13.031  3.5716 -1.8599 -0.1795
 2305TIP3   OH228329   0.995   2.403   3.624  0.0253  0.2893  0.7508
 2305TIP3    H128330   1.060   2.399   3.554  0.5221 -1.5981  1.3067
 2305TIP3    H228331   1.015   2.328   3.680 -2.1116  0.1629  1.3754
 2306TIP3   OH228332   1.652   0.202   0.566  0.0312  0.1376 -0.6669
 2306TIP3    H128333   1.570   0.223   0.610  0.2303  0.6518 -0.5429
 2306TIP3    H228334   1.660   0.107   0.575  0.0437  0.2336  0.3407
 2307TIP3   OH228335   1.770   2.854   3.252 -0.0931 -0.3098  0.2086
 2307TIP3    H128336   1.678   2.879   3.263 -0.3737 -1.2411  0.0021
 2307TIP3    H228337   1.806   2.855   3.341 -0.5125 -0.7460  0.3802
 2308TIP3   OH228338   2.426   0.747  14.741 -0.1064  0.2073 -0.2927
 2308TIP3    H128339   2.426   0.718  14.650  0.1694 -3.1557  0.7298
 2308TIP3    H228340   2.518   0.742  14.767 -0.5869 -1.8149  1.0633
 2309TIP3   OH228341   0.041   2.812   6.331  0.3673  0.6693  0.1784
 2309TIP3    H128342   0.003   2.725   6.346 -0.0381  0.3139 -2.5846
 2309TIP3    H228343   0.017   2.863   6.409 -0.3688 -1.3563  1.3188
 2310TIP3   OH228344   2.980   0.662  11.962 -0.8037  0.2907 -0.1481
 2310TIP3    H128345   3.049   0.605  11.928  1.5570  2.2344  1.1612
 2310TIP3    H228346   2.930   0.607  12.021  2.4934 -0.1008  2.4397
 2311TIP3   OH228347   6.725   2.886  12.635 -0.2780 -1.2596 -0.2449
 2311TIP3    H128348   6.659   2.954  12.625  0.6444 -0.4036 -0.6323
 2311TIP3    H228349   6.770   2.908  12.717 -0.6196 -1.9640  0.1333
 2312TIP3   OH228350   6.614   5.918   2.790 -0.6663  0.1226  0.2688
 2312TIP3    H128351   6.700   5.881   2.812 -0.9846 -0.0133  1.2974
 2312TIP3    H228352   6.635   6.003   2.750 -0.0758  0.5053  1.3648
 2313TIP3   OH228353   4.629   4.670  11.314 -0.5264  0.8172  0.3235
 2313TIP3    H128354   4.548   4.674  11.263  0.1430 -2.0850 -1.0826
 2313TIP3    H228355   4.697   4.704  11.255 -0.4323  1.6177  0.8829
 2314TIP3   OH228356   6.637   3.471  10.420 -0.4138 -0.1058  0.1407
 2314TIP3    H128357   6.650   3.418  10.499  0.2996  0.2112  0.2504
 2314TIP3    H228358   6.726   3.500  10.397 -0.8175  1.2957  0.2799
 2315TIP3   OH228359   1.971   3.563   2.417 -0.4340  0.2862 -0.0965
 2315TIP3    H128360   1.911   3.606   2.356 -0.1031  1.1345  0.1671
 2315TIP3    H228361   2.025   3.507   2.362 -1.4337 -0.4460 -0.3426
 2316TIP3   OH228362   5.559   2.645  16.414 -0.1855 -0.9204 -0.3541
 2316TIP3    H128363   5.650   2.655  16.389 -0.0260  0.7577  0.8456
 2316TIP3    H228364   5.509   2.679  16.340  0.1997 -0.2483 -0.3043
 2317TIP3   OH228365   0.160   0.251  14.742  0.3427  0.2420 -0.6016
 2317TIP3    H128366   0.121   0.289  14.821 -2.5776 -0.0795 -1.8228
 2317TIP3    H228367   0.203   0.171  14.772  0.3133  0.7503  0.8253
 2318TIP3   OH228368   1.554   5.523   0.152  0.2331 -0.1645 -0.1278
 2318TIP3    H128369   1.537   5.559   0.239 -0.9939 -0.5876 -0.1867
 2318TIP3    H228370   1.647   5.500   0.154  0.3578  0.3682  0.8680
 2319TIP3   OH228371   0.919   0.509   1.864  0.3027  0.6400 -0.5589
 2319TIP3    H128372   0.985   0.453   1.906  0.4615  0.7053 -0.7168
 2319TIP3    H228373   0.886   0.565   1.934  0.6749  0.8535 -0.5509
 2320TIP3   OH228374   5.189   5.451   4.870 -0.0008  0.3631  0.0628
 2320TIP3    H128375   5.245   5.474   4.944  1.1934 -0.6819 -0.5028
 2320TIP3    H228376   5.178   5.356   4.876  1.0466  0.1034 -1.7404
 2321TIP3   OH228377   0.993   2.774  15.846  0.3723  0.3007  0.0573
 2321TIP3    H128378   1.066   2.726  15.807  0.8061  0.9413  0.0727
 2321TIP3    H228379   0.991   2.744  15.937  0.9814  0.7185  0.2060
 2322TIP3   OH228380   5.809   0.623   2.976  0.9884  0.5356  0.5398
 2322TIP3    H128381   5.769   0.555   3.030 -2.2338  1.4991 -0.5003
 2322TIP3    H228382   5.842   0.687   3.039 -0.1534  0.2586  1.4286
 2323TIP3   OH228383   2.175   0.608   2.482 -0.2065  0.3338  0.1584
 2323TIP3    H128384   2.108   0.675   2.467 -0.9307 -0.3364  0.3582
 2323TIP3    H228385   2.155   0.573   2.568  0.1935 -0.1109  0.0722
 2324TIP3   OH228386   0.068   2.833   3.271 -0.8683  0.3055 -0.0099
 2324TIP3    H128387  -0.018   2.795   3.254  0.0305 -1.1504 -1.5018
 2324TIP3    H228388   0.086   2.809   3.362 -0.7485 -2.1108 -0.6181
 2325TIP3   OH228389   6.615   3.986   3.856  0.2297  0.3353 -0.0873
 2325TIP3    H128390   6.593   3.915   3.916  0.9655 -0.6769 -1.0050
 2325TIP3    H228391   6.535   4.039   3.851 -0.3085 -0.3977  0.6184
 2326TIP3   OH228392   4.611   1.248   2.858 -0.3131 -0.0626 -0.2391
 2326TIP3    H128393   4.547   1.318   2.845 -0.2175 -0.0130 -0.4484
 2326TIP3    H228394   4.674   1.260   2.787 -0.4229 -0.5015 -0.4155
 2327TIP3   OH228395   4.408   6.762   2.471  0.0539  0.3132  0.7982
 2327TIP3    H128396   4.438   6.677   2.503  0.4623 -0.5186 -1.6912
 2327TIP3    H228397   4.487   6.815   2.465  0.2588 -0.1389 -0.6007
 2328TIP3   OH228398   6.184   0.456   2.587 -0.0455 -0.1973 -0.7047
 2328TIP3    H128399   6.174   0.533   2.643  0.1100 -0.8442  0.2238
 2328TIP3    H228400   6.259   0.410   2.624 -0.1822 -0.8373 -1.2205
 2329TIP3   OH228401   2.353   3.886  13.664  0.0072  0.5469  0.0770
 2329TIP3    H128402   2.287   3.948  13.692 -1.4822 -0.8431 -0.2783
 2329TIP3    H228403   2.435   3.920  13.700 -1.0873  1.5711  1.6639
 2330TIP3   OH228404   4.066   0.241  16.854  0.5388  0.0643  0.7827
 2330TIP3    H128405   4.077   0.166  16.795  0.7746  0.0982  0.7857
 2330TIP3    H228406   4.154   0.274  16.868  0.8875 -1.8179  3.5997
 2331TIP3   OH228407   0.250   2.255  14.660 -0.5013  1.0348 -0.3228
 2331TIP3    H128408   0.256   2.187  14.728 -1.7756  1.7890  0.5681
 2331TIP3    H228409   0.338   2.260  14.624 -0.3110 -0.8941 -0.2061
 2332TIP3   OH228410   4.503   4.817   1.358 -0.1869 -0.4593  0.2589
 2332TIP3    H128411   4.589   4.807   1.398 -0.4807  0.6099  1.1955
 2332TIP3    H228412   4.504   4.757   1.283  0.7209 -1.7872  1.3078
 2333TIP3   OH228413   3.604   5.383   5.086 -0.6162 -0.2050 -0.0604
 2333TIP3    H128414   3.571   5.331   5.160  0.7335 -0.5918  0.2931
 2333TIP3    H228415   3.653   5.320   5.033 -1.9219 -0.0170 -1.5199
 2334TIP3   OH228416   1.725   1.257   1.002 -0.4308 -0.0745 -0.2349
 2334TIP3    H128417   1.771   1.321   0.948 -1.1338  0.4716 -0.1844
 2334TIP3    H228418   1.760   1.271   1.090  0.8032 -1.0479 -0.5613
 2335TIP3   OH228419   3.190   1.316  15.980  0.0359 -0.6176  0.4559
 2335TIP3    H128420   3.200   1.355  15.893 -0.0794 -1.6761 -0.0401
 2335TIP3    H228421   3.278   1.287  16.003 -0.0029 -0.6772  0.5291
 2336TIP3   OH228422   6.481   2.939   4.826  0.2692  0.0553 -0.7146
 2336TIP3    H128423   6.475   2.859   4.775 -0.1775 -0.7395  0.5659
 2336TIP3    H228424   6.390   2.970   4.833  0.4486  0.7332 -1.2911
 2337TIP3   OH228425   2.770   4.500  15.680 -0.1962 -0.3119 -0.2232
 2337TIP3    H128426   2.817   4.579  15.708  0.9270 -1.1760  0.3306
 2337TIP3    H228427   2.808   4.429  15.731 -1.8719 -1.0930 -0.0179
 2338TIP3   OH228428   5.905   2.144  16.080  0.2286 -0.2380 -0.2277
 2338TIP3    H128429   5.994   2.178  16.089  0.8423 -1.1006 -2.8059
 2338TIP3    H228430   5.857   2.213  16.034 -0.5434  0.3482  1.4116
 2339TIP3   OH228431   6.216   0.552   5.184 -0.0579  0.2996 -0.0262
 2339TIP3    H128432   6.180   0.634   5.217  1.2258  0.5428  0.7875
 2339TIP3    H228433   6.143   0.511   5.137 -1.7331  0.2633  2.5185
 2340TIP3   OH228434   1.456   6.760   2.661 -0.0127 -0.7085 -0.8870
 2340TIP3    H128435   1.411   6.690   2.707  0.1923 -1.0601 -1.2214
 2340TIP3    H228436   1.387   6.808   2.615  0.0969 -2.1637 -2.6404
 2341TIP3   OH228437   5.742   6.750   5.583  0.8500 -0.4739  0.2881
 2341TIP3    H128438   5.747   6.674   5.640 -0.0660 -0.5171  0.3189
 2341TIP3    H228439   5.789   6.819   5.630  0.8250 -0.7432  0.7084
 2342TIP3   OH228440   4.798   0.335  16.035  0.0725  0.1629  0.2407
 2342TIP3    H128441   4.798   0.302  15.945 -0.9773  1.4687 -0.2512
 2342TIP3    H228442   4.805   0.430  16.026 -0.2186  0.3149  1.5355
 2343TIP3   OH228443   0.291   4.205   1.021 -0.5666  0.1549 -0.1870
 2343TIP3    H128444   0.360   4.261   0.986 -0.3107  1.0480  1.6294
 2343TIP3    H228445   0.306   4.206   1.116 -2.4504 -0.4521  0.1435
 2344TIP3   OH228446   1.229   6.464   0.963  0.3356  0.1711 -0.4991
 2344TIP3    H128447   1.257   6.548   0.999 -0.0807  1.7286 -3.6170
 2344TIP3    H228448   1.311   6.422   0.934  0.3627  0.3084 -0.6178
 2345TIP3   OH228449   3.270   3.585   6.402  0.0461 -0.0364 -0.1746
 2345TIP3    H128450   3.203   3.555   6.341  1.7437  1.3126 -2.8054
 2345TIP3    H228451   3.278   3.515   6.466 -0.9156 -2.0803 -2.2304
 2346TIP3   OH228452   3.549   1.143  17.226  0.3529  0.2865 -0.4482
 2346TIP3    H128453   3.541   1.108  17.138 -0.0590 -1.2684  0.2078
 2346TIP3    H228454   3.460   1.145  17.260  0.5662  0.4776  0.1052
 2347TIP3   OH228455   6.765   0.646  14.205 -0.2064 -0.0592 -0.0984
 2347TIP3    H128456   6.705   0.585  14.250  0.2548 -1.0887 -0.8755
 2347TIP3    H228457   6.849   0.601  14.204  0.2263  0.7441 -0.3829
 2348TIP3   OH228458   5.989   2.286  13.398 -0.3414 -0.1950 -0.8158
 2348TIP3    H128459   6.048   2.238  13.341  1.6211 -0.4654  1.3703
 2348TIP3    H228460   6.045   2.346  13.447 -1.7773 -0.6663  1.5288
 2349TIP3   OH228461   4.538   0.142  17.192  0.2502  0.2973 -0.5870
 2349TIP3    H128462   4.617   0.132  17.245  0.1180  0.8007 -0.3017
 2349TIP3    H228463   4.499   0.055  17.192  1.6939 -0.3903 -2.1194
 2350TIP3   OH228464   0.226   2.413  11.349  0.2046 -0.1414 -0.1468
 2350TIP3    H128465   0.228   2.469  11.426  0.7460 -1.0003  0.4797
 2350TIP3    H228466   0.262   2.467  11.279  1.8165 -0.0878  0.7068
 2351TIP3   OH228467   5.716   1.344   4.629 -0.0484  0.2335  0.0888
 2351TIP3    H128468   5.658   1.389   4.568 -0.5281  1.7985  1.6872
 2351TIP3    H228469   5.664   1.332   4.708  1.3843  0.5082  1.0983
 2352TIP3   OH228470   4.187   2.037   5.317 -0.4063  0.5088  0.1596
 2352TIP3    H128471   4.098   2.028   5.283  0.0572  0.0099 -0.9571
 2352TIP3    H228472   4.177   2.090   5.396 -1.9156 -1.0426  1.0601
 2353TIP3   OH228473   2.997   3.060   4.175  0.2854 -0.1322  0.1109
 2353TIP3    H128474   3.077   3.007   4.170  1.2355  1.2526  0.1638
 2353TIP3    H228475   3.028   3.150   4.165 -1.3830  0.3648 -0.8103
 2354TIP3   OH228476   1.130   3.029  13.169  0.4375  0.1116 -0.3090
 2354TIP3    H128477   1.136   2.992  13.081 -0.6192  1.1655 -0.8271
 2354TIP3    H228478   1.079   3.109  13.159 -0.4656 -0.2164  1.4018
 2355TIP3   OH228479   6.159   1.483   3.939  0.1174  0.7232  0.4183
 2355TIP3    H128480   6.154   1.555   4.002  1.4814  1.2669 -0.0727
 2355TIP3    H228481   6.204   1.521   3.863  0.6219 -0.5803  0.0505
 2356TIP3   OH228482   2.970   1.291  14.148 -0.1982  0.2871  0.3073
 2356TIP3    H128483   3.058   1.252  14.146 -0.9384 -1.4650  0.3049
 2356TIP3    H228484   2.930   1.254  14.226 -1.8693 -1.1244 -1.1559
 2357TIP3   OH228485   0.623   2.705   5.441 -0.1883  0.1571  0.0905
 2357TIP3    H128486   0.551   2.643   5.429 -0.3665  0.2673  0.5805
 2357TIP3    H228487   0.602   2.777   5.381  0.5813 -0.7390 -1.2736
 2358TIP3   OH228488   3.824   3.867   3.214  0.1215  0.2820  0.4189
 2358TIP3    H128489   3.837   3.958   3.187 -1.0285  0.0839 -0.9393
 2358TIP3    H228490   3.729   3.859   3.225  0.2696 -0.5901  1.1213
 2359TIP3   OH228491   2.883   2.151   5.587  0.2110 -0.0474 -0.0883
 2359TIP3    H128492   2.915   2.117   5.670  1.7365  2.6225  0.4838
 2359TIP3    H228493   2.860   2.242   5.606  1.0965  0.7677 -2.7204
 2360TIP3   OH228494   5.623   2.354   4.047 -0.6508  0.3584 -0.2286
 2360TIP3    H128495   5.565   2.368   4.122  1.5135  0.6244  1.4316
 2360TIP3    H228496   5.624   2.439   4.002  0.3819  1.1045  1.1542
 2361TIP3   OH228497   1.781   1.597   5.848 -0.1216 -0.0835  0.4929
 2361TIP3    H128498   1.699   1.582   5.801 -0.0277  0.0608  0.2832
 2361TIP3    H228499   1.758   1.583   5.940 -0.2075 -0.7715  0.3688
 2362TIP3   OH228500   3.918   0.140  17.082  0.0951  0.2703  0.0352
 2362TIP3    H128501   3.967   0.154  17.162 -1.0559  1.5635  0.5327
 2362TIP3    H228502   3.973   0.176  17.012 -0.3167  2.0797  0.6349
 2363TIP3   OH228503   4.782   2.592  13.176  0.0458 -0.4617  0.2832
 2363TIP3    H128504   4.820   2.582  13.088  0.5651  3.0058  0.0357
 2363TIP3    H228505   4.858   2.603  13.233 -0.3612  0.2820  0.6908
 2364TIP3   OH228506   3.635   3.108   1.636 -0.2012 -0.2740 -1.0615
 2364TIP3    H128507   3.682   3.067   1.563  0.7778 -0.3884 -0.3641
 2364TIP3    H228508   3.613   3.035   1.694 -1.1382 -0.2043 -1.3198
 2365TIP3   OH228509   3.493   2.832   4.011  0.5429  0.3636  0.4968
 2365TIP3    H128510   3.460   2.922   4.005 -1.4076 -0.4556 -2.1670
 2365TIP3    H228511   3.552   2.823   3.936 -0.4347 -0.9892 -0.1396
 2366TIP3   OH228512   1.311   3.032   0.364  0.6621 -0.4246  0.7448
 2366TIP3    H128513   1.264   3.087   0.427 -3.2960 -2.8737  0.1213
 2366TIP3    H228514   1.349   2.961   0.417  0.3245 -0.5631  0.8030
 2367TIP3   OH228515   4.806   0.955   2.652  0.1604  0.2325  0.0307
 2367TIP3    H128516   4.846   1.042   2.656 -1.7800  1.1405  0.3740
 2367TIP3    H228517   4.712   0.973   2.645 -0.2883 -1.8496  0.5197
 2368TIP3   OH228518   3.927   3.930   3.715 -0.2745 -0.8429 -0.3702
 2368TIP3    H128519   3.963   4.008   3.758  1.7121 -2.5139  1.1017
 2368TIP3    H228520   3.858   3.901   3.774 -0.6114 -0.5440 -0.6160
 2369TIP3   OH228521   3.502   1.417  14.434  0.4375 -0.1202  0.4699
 2369TIP3    H128522   3.436   1.484  14.456 -0.6153 -0.8787 -0.3127
 2369TIP3    H228523   3.577   1.439  14.489 -0.6345  0.4960  1.7466
 2370TIP3   OH228524   5.060   5.268   5.698  0.1744 -0.7374 -0.1755
 2370TIP3    H128525   5.125   5.332   5.671 -1.7323  0.8999 -0.9817
 2370TIP3    H228526   5.110   5.200   5.744  2.2050  1.3605  0.7879
 2371TIP3   OH228527   1.684   3.554  16.655 -0.1620  0.6714  0.8708
 2371TIP3    H128528   1.660   3.627  16.711 -0.4505  0.3192  1.2076
 2371TIP3    H228529   1.681   3.590  16.566 -2.2112  0.5532  0.8828
 2372TIP3   OH228530   5.347   1.065   2.108 -0.2826  0.1049  0.0825
 2372TIP3    H128531   5.405   1.040   2.035 -0.0121 -1.4402  0.8126
 2372TIP3    H228532   5.261   1.076   2.068  0.1963  0.8851 -0.7511
 2373TIP3   OH228533   5.895   1.961   0.881  0.6170 -0.0192 -0.1118
 2373TIP3    H128534   5.895   1.983   0.788 -0.3521 -1.1486 -0.3922
 2373TIP3    H228535   5.804   1.970   0.908  0.7511 -0.5424  0.5225
 2374TIP3   OH228536   2.052   3.766  10.666 -0.1982 -0.1877  0.4034
 2374TIP3    H128537   1.965   3.727  10.679 -0.3207 -0.0163  0.1228
 2374TIP3    H228538   2.086   3.781  10.754 -0.8291  0.5770  0.5244
 2375TIP3   OH228539   4.730   4.373  10.586 -0.8801 -0.2515  0.1764
 2375TIP3    H128540   4.645   4.417  10.578 -0.7302 -0.3516 -2.4447
 2375TIP3    H228541   4.745   4.335  10.500  1.9863  0.0364  0.5202
 2376TIP3   OH228542   3.876   0.694   4.934  0.6047 -0.4227 -0.2497
 2376TIP3    H128543   3.783   0.680   4.916 -0.3170  1.7941  2.5297
 2376TIP3    H228544   3.904   0.616   4.981 -0.3011 -0.2969  0.4944
 2377TIP3   OH228545   1.610   2.967  14.415 -0.5498  0.1088 -0.2317
 2377TIP3    H128546   1.552   3.044  14.409  0.4109  0.8613 -0.0386
 2377TIP3    H228547   1.698   3.003  14.402  0.0088 -0.7861  0.9944
 2378TIP3   OH228548   0.705   4.319  12.207  0.2034  0.1186 -0.7768
 2378TIP3    H128549   0.715   4.397  12.263 -1.3696 -0.3318  0.1610
 2378TIP3    H228550   0.637   4.267  12.250  0.7263 -1.4337 -1.7952
 2379TIP3   OH228551   2.259   0.879  11.883 -0.5138  0.0893  0.4407
 2379TIP3    H128552   2.254   0.867  11.789 -1.7933  2.6259  0.1438
 2379TIP3    H228553   2.350   0.900  11.900 -0.2772 -0.3948 -0.2306
 2380TIP3   OH228554   4.687   6.622  14.960 -0.3679  0.6030 -0.4872
 2380TIP3    H128555   4.657   6.670  14.883 -2.5969  0.2815  0.1348
 2380TIP3    H228556   4.645   6.537  14.953 -2.4309  1.3196  2.1865
 2381TIP3   OH228557   4.334   1.562  15.071  0.1848 -1.0454  0.1619
 2381TIP3    H128558   4.241   1.547  15.090  0.4796 -0.8822  1.8386
 2381TIP3    H228559   4.375   1.569  15.157  1.1511  2.7138 -0.5008
 2382TIP3   OH228560   2.430   1.234   0.946 -0.2516 -0.3374 -0.6154
 2382TIP3    H128561   2.355   1.180   0.971 -0.9612  0.1078 -1.7250
 2382TIP3    H228562   2.499   1.209   1.006 -0.8181 -1.8948 -0.5936
 2383TIP3   OH228563   4.566   5.357  14.911 -0.1561 -0.3485  0.0315
 2383TIP3    H128564   4.502   5.428  14.918 -0.2299 -0.2802 -1.2974
 2383TIP3    H228565   4.648   5.401  14.890  0.2499 -0.4810  1.2610
 2384TIP3   OH228566   5.904   4.825  12.900  0.1189  0.4972  0.1733
 2384TIP3    H128567   5.837   4.878  12.858 -0.2880 -0.8710 -0.9574
 2384TIP3    H228568   5.925   4.872  12.981 -1.2553  1.6159 -0.1021
 2385TIP3   OH228569   2.887   3.440   1.757  0.0117  0.5307 -0.2765
 2385TIP3    H128570   2.833   3.364   1.733  1.0492 -0.7066  1.2322
 2385TIP3    H228571   2.825   3.503   1.794 -0.3456 -1.1180  2.0198
 2386TIP3   OH228572   3.830   6.159   2.651  0.5188  0.6537 -0.7944
 2386TIP3    H128573   3.901   6.222   2.664 -0.5617  1.4966  1.1694
 2386TIP3    H228574   3.871   6.074   2.668  0.7868  1.2308  1.5652
 2387TIP3   OH228575   2.939   3.758  11.909 -0.2887  0.1975 -0.2133
 2387TIP3    H128576   2.863   3.741  11.966 -0.4486 -0.7869 -0.7075
 2387TIP3    H228577   3.012   3.716  11.954 -0.3257 -0.1673 -0.4913
 2388TIP3   OH228578   5.505   2.299  12.287  0.1140  0.2151  0.2362
 2388TIP3    H128579   5.510   2.340  12.201 -0.0737  0.2814  0.2572
 2388TIP3    H228580   5.579   2.237  12.289 -0.2805 -0.2763 -0.2258
 2389TIP3   OH228581   0.263   4.240  17.166 -0.0260 -0.0431  0.0534
 2389TIP3    H128582   0.204   4.165  17.171 -0.1098 -0.1122 -1.6778
 2389TIP3    H228583   0.350   4.203  17.180 -0.0188 -0.5541 -1.2409
 2390TIP3   OH228584   5.952   5.406   2.240  0.0570  0.1867  0.0610
 2390TIP3    H128585   6.011   5.400   2.165 -0.8370  0.7254 -0.6933
 2390TIP3    H228586   5.875   5.452   2.207 -1.1596 -1.2311  0.8030
 2391TIP3   OH228587   6.119   4.297   0.113  0.0044 -0.0429  0.1847
 2391TIP3    H128588   6.100   4.265   0.025 -0.3138  0.7142 -0.0212
 2391TIP3    H228589   6.074   4.235   0.171 -0.6688  0.0654 -0.2186
 2392TIP3   OH228590   5.918   2.407  16.772  0.8859 -0.0939  0.1532
 2392TIP3    H128591   6.007   2.374  16.777  1.2355  0.8721  0.5492
 2392TIP3    H228592   5.919   2.466  16.697  0.3184 -0.8548 -0.4513
 2393TIP3   OH228593   1.165   1.484  16.498  0.1862  0.1348  0.0846
 2393TIP3    H128594   1.157   1.522  16.586 -0.0862 -0.7622  0.4442
 2393TIP3    H228595   1.215   1.549  16.449  0.7723  0.4117  1.0429
 2394TIP3   OH228596   3.661   4.506  11.693 -0.0706  0.2953 -0.1767
 2394TIP3    H128597   3.695   4.518  11.605  1.1135 -0.7324  0.1186
 2394TIP3    H228598   3.667   4.592  11.734 -0.3921  0.7159 -1.0134
 2395TIP3   OH228599   5.316   4.830   4.375  0.5899 -0.0245 -0.5558
 2395TIP3    H128600   5.269   4.761   4.423 -0.0824  0.5269 -0.4084
 2395TIP3    H228601   5.285   4.912   4.414  1.9485  0.3466 -0.2286
 2396TIP3   OH228602   1.943   0.651   1.495 -0.0021 -0.2845  0.8472
 2396TIP3    H128603   1.997   0.577   1.523  1.0417 -0.1005 -0.5893
 2396TIP3    H228604   1.904   0.623   1.413  0.8073  0.9213  0.0245
 2397TIP3   OH228605   1.522   1.573   5.750 -0.2118 -0.2794  0.2289
 2397TIP3    H128606   1.475   1.625   5.816 -0.8197 -0.3201 -0.1665
 2397TIP3    H228607   1.462   1.568   5.676  0.9620  0.8134 -0.8126
 2398TIP3   OH228608   5.099   2.982   2.573  0.6991 -0.2105  0.1775
 2398TIP3    H128609   5.180   3.000   2.622  1.2015 -0.7985 -0.4252
 2398TIP3    H228610   5.054   2.915   2.625  0.2616  0.6133  0.8723
 2399TIP3   OH228611   2.393   2.687   4.103 -0.3193  0.4531 -0.0560
 2399TIP3    H128612   2.335   2.654   4.035  0.7610  0.7563 -1.1485
 2399TIP3    H228613   2.465   2.624   4.106  1.2476  2.1014 -1.4608
 2400TIP3   OH228614   1.268   4.885  12.158 -0.0157 -0.1352 -0.1312
 2400TIP3    H128615   1.182   4.911  12.125 -0.1546 -0.3732  0.0386
 2400TIP3    H228616   1.329   4.942  12.112 -0.1435 -0.9411 -1.3215
 2401TIP3   OH228617   0.642   3.035  15.860 -0.0766  0.5244 -0.1698
 2401TIP3    H128618   0.651   2.941  15.875  2.0358  0.1951 -3.0565
 2401TIP3    H228619   0.549   3.047  15.841 -0.6222 -0.7407  1.5314
 2402TIP3   OH228620   3.392   4.923   1.752  0.6319  0.0710 -0.3065
 2402TIP3    H128621   3.300   4.901   1.771  0.9010  0.6951  1.7672
 2402TIP3    H228622   3.393   4.936   1.657 -1.6189  0.9378 -0.2544
 2403TIP3   OH228623   4.303   0.378   5.236 -0.1591 -0.4940 -0.2822
 2403TIP3    H128624   4.333   0.316   5.169  0.6612 -1.9820  1.4118
 2403TIP3    H228625   4.382   0.422   5.266 -0.5945  0.5618 -0.6538
 2404TIP3   OH228626   4.770   5.877  11.627 -0.5233 -0.4221  0.1262
 2404TIP3    H128627   4.761   5.948  11.563  0.0371 -0.3295  0.1459
 2404TIP3    H228628   4.864   5.861  11.631 -0.5678 -0.5271  0.8256
 2405TIP3   OH228629   1.354   2.437  15.239  0.1663  0.5747 -0.2073
 2405TIP3    H128630   1.402   2.419  15.159  0.0765  0.3310 -0.2060
 2405TIP3    H228631   1.282   2.494  15.212 -0.7893 -0.7894 -0.5619
 2406TIP3   OH228632   5.336   0.796   3.377  0.0916 -0.3767  0.2780
 2406TIP3    H128633   5.389   0.875   3.383  0.0840 -0.4055  0.7378
 2406TIP3    H228634   5.397   0.725   3.397 -0.2326 -0.3701  1.2909
 2407TIP3   OH228635   5.798   0.244   2.391  0.4617  0.0456  0.1464
 2407TIP3    H128636   5.833   0.302   2.323  0.8501  0.0160  0.3137
 2407TIP3    H228637   5.869   0.239   2.456 -0.4994  1.3763  1.3570
 2408TIP3   OH228638   2.631   3.090   1.163  0.6227  0.5062 -0.0399
 2408TIP3    H128639   2.681   3.167   1.190 -0.5033  1.0365  0.5636
 2408TIP3    H228640   2.540   3.120   1.160  0.5290  0.0741 -3.0153
 2409TIP3   OH228641   5.273   6.222   4.899 -0.2599 -0.1597 -0.0418
 2409TIP3    H128642   5.340   6.158   4.877  1.3236  1.2959  0.4365
 2409TIP3    H228643   5.277   6.229   4.995 -3.0471 -2.1072  0.2888
 2410TIP3   OH228644   1.471   6.544   5.549 -0.0386 -0.5563  0.1206
 2410TIP3    H128645   1.554   6.557   5.504  0.4622 -2.9570  0.2822
 2410TIP3    H228646   1.484   6.582   5.635  0.3193  0.5804 -0.4318
 2411TIP3   OH228647   1.022   1.432   1.755  0.1886  0.1524  0.3879
 2411TIP3    H128648   0.947   1.410   1.699 -0.7189  2.4352  0.6315
 2411TIP3    H228649   1.096   1.439   1.695 -0.4205  0.8284 -0.3044
 2412TIP3   OH228650   5.944   0.677  12.131 -0.1800 -0.0427  0.0295
 2412TIP3    H128651   5.908   0.681  12.042  0.1566  0.1386 -0.0971
 2412TIP3    H228652   5.934   0.766  12.165  1.6269  0.4140 -0.5819
 2413TIP3   OH228653   0.610   2.107   0.383  0.0569  0.1242  0.1185
 2413TIP3    H128654   0.527   2.105   0.431  0.8527  0.9229  1.5809
 2413TIP3    H228655   0.585   2.109   0.291 -1.5369 -0.1398  0.5317
 2414TIP3   OH228656   6.589   3.246   3.113 -0.1727 -0.2031  0.0059
 2414TIP3    H128657   6.605   3.229   3.021 -0.0339 -2.1136  0.3686
 2414TIP3    H228658   6.672   3.281   3.146  0.1008 -0.5314 -0.3431
 2415TIP3   OH228659   4.181   3.136   1.709 -0.2190 -0.1092 -0.4096
 2415TIP3    H128660   4.231   3.074   1.762  1.0774  0.7932 -0.5500
 2415TIP3    H228661   4.092   3.131   1.744  0.3246 -0.5202  0.9524
 2416TIP3   OH228662   0.333   3.095   4.655 -0.2439 -0.0630  0.7765
 2416TIP3    H128663   0.420   3.100   4.614 -1.1178  0.0247 -1.1183
 2416TIP3    H228664   0.272   3.103   4.582 -1.8615 -2.4238  1.8161
 2417TIP3   OH228665   6.325   5.388  11.665 -0.3532 -0.5056  0.2636
 2417TIP3    H128666   6.300   5.359  11.578  1.4640 -0.6798 -0.2205
 2417TIP3    H228667   6.375   5.315  11.702  0.3652  0.2306  0.7756
 2418TIP3   OH228668   3.179   3.919   1.442  0.0243 -0.0125 -0.4716
 2418TIP3    H128669   3.233   3.858   1.491 -0.1750 -0.3601 -0.6851
 2418TIP3    H228670   3.094   3.875   1.433  0.4344 -0.4916 -2.2064
 2419TIP3   OH228671   4.636   5.310   4.216  0.2308  0.4002 -0.1957
 2419TIP3    H128672   4.647   5.383   4.277  1.2888  0.5790 -0.5937
 2419TIP3    H228673   4.549   5.275   4.236  0.3906  0.7221  1.1263
 2420TIP3   OH228674   2.606   0.614  11.966 -0.0386 -0.3515 -0.4694
 2420TIP3    H128675   2.634   0.636  11.877  0.2921 -1.2697 -0.5973
 2420TIP3    H228676   2.512   0.600  11.960 -0.3881  1.7496 -0.2403
 2421TIP3   OH228677   4.417   1.491   6.296 -0.0604 -0.1807  0.0886
 2421TIP3    H128678   4.502   1.457   6.270 -0.9109 -1.1195 -1.5347
 2421TIP3    H228679   4.384   1.427   6.359 -0.7097 -1.2402 -1.3061
 2422TIP3   OH228680   5.752   0.749   4.181 -0.1503  0.7760 -0.3971
 2422TIP3    H128681   5.746   0.674   4.121  1.8347  0.9990 -0.9288
 2422TIP3    H228682   5.817   0.722   4.246 -0.5067  1.4775  0.2536
 2423TIP3   OH228683   0.870   4.339   0.496  0.4675 -0.1803 -0.6750
 2423TIP3    H128684   0.882   4.422   0.543 -0.0876  1.0183 -2.5763
 2423TIP3    H228685   0.924   4.349   0.417  0.5979 -1.7489 -0.7899
 2424TIP3   OH228686   0.514   3.388  14.763  0.2843  0.1339  0.5793
 2424TIP3    H128687   0.566   3.429  14.832  0.0026 -1.6415  1.8846
 2424TIP3    H228688   0.521   3.448  14.689  2.6911  0.8025  1.3114
 2425TIP3   OH228689   0.845   5.564   2.456  0.0446 -0.2369  0.4026
 2425TIP3    H128690   0.832   5.575   2.550  0.0716 -0.1466  0.3958
 2425TIP3    H228691   0.789   5.489   2.432 -2.2749  1.5690 -0.0463
 2426TIP3   OH228692   1.749   2.628   0.031  0.2439  0.0488 -0.0287
 2426TIP3    H128693   1.800   2.688  -0.023  0.0694 -0.2299 -0.5043
 2426TIP3    H228694   1.662   2.630  -0.007 -0.9359  2.8335  2.5882
 2427TIP3   OH228695   3.651   5.427   6.095 -0.1656 -0.1727 -0.2074
 2427TIP3    H128696   3.590   5.357   6.117 -0.7491  0.9696  2.0031
 2427TIP3    H228697   3.736   5.394   6.123 -0.5704  0.3245  1.7122
 2428TIP3   OH228698   2.113   6.076   0.879  0.5580  0.1619  0.0387
 2428TIP3    H128699   2.136   6.124   0.959  1.8799  0.4876 -0.5325
 2428TIP3    H228700   2.044   6.016   0.907  2.0731 -0.8115  1.7684
 2429TIP3   OH228701   5.290   4.339   4.728  0.0304  0.2325 -1.4524
 2429TIP3    H128702   5.223   4.275   4.703 -0.2822  0.1088 -0.3234
 2429TIP3    H228703   5.346   4.347   4.651  0.4472 -1.8692 -1.3772
 2430TIP3   OH228704   5.343   3.295   4.693  0.6254 -0.8657 -0.1269
 2430TIP3    H128705   5.298   3.374   4.665  2.1206  0.0291 -0.0406
 2430TIP3    H228706   5.285   3.257   4.759  1.4538  1.9931  2.3526
 2431TIP3   OH228707   6.647   2.945   6.542 -0.0233 -0.1896 -0.1892
 2431TIP3    H128708   6.609   2.858   6.548 -2.1838  0.4698 -3.1738
 2431TIP3    H228709   6.587   3.001   6.591 -1.5859  0.4211 -2.7011
 2432TIP3   OH228710   6.216   5.413  14.089 -0.0287  0.1074  0.4073
 2432TIP3    H128711   6.178   5.391  14.003  1.2769  1.7175 -0.5991
 2432TIP3    H228712   6.230   5.328  14.131  1.1013 -0.7987 -1.7454
 2433TIP3   OH228713   1.043   4.858  16.358  0.0560 -0.0204  0.1984
 2433TIP3    H128714   1.057   4.895  16.270 -0.3478  1.0236  0.5660
 2433TIP3    H228715   1.110   4.900  16.412 -1.8329  1.8918  1.1013
 2434TIP3   OH228716   3.543   4.347  11.303 -0.0218 -0.6118 -0.3157
 2434TIP3    H128717   3.606   4.363  11.373 -0.7133  1.1699 -0.0647
 2434TIP3    H228718   3.458   4.344  11.347 -0.4223  0.1161 -1.0116
 2435TIP3   OH228719   5.110   4.199  14.104 -0.0651  0.0196 -0.6464
 2435TIP3    H128720   5.177   4.265  14.122  0.7849 -1.2125  0.8886
 2435TIP3    H228721   5.156   4.130  14.056  0.0546 -1.3182  1.3383
 2436TIP3   OH228722   0.437   0.787  15.245 -0.2747  0.0418 -0.2288
 2436TIP3    H128723   0.411   0.770  15.154 -1.2751 -0.3298  0.1203
 2436TIP3    H228724   0.396   0.870  15.267  1.5637  1.1161 -0.7273
 2437TIP3   OH228725   5.258   6.432  15.563 -0.0453 -0.2411  0.0486
 2437TIP3    H128726   5.211   6.455  15.643 -0.8341 -1.5590 -0.0105
 2437TIP3    H228727   5.277   6.516  15.521 -0.0420  0.4317  1.3745
 2438TIP3   OH228728   4.507   1.840  16.358  0.0334  0.2706 -0.3889
 2438TIP3    H128729   4.592   1.850  16.400  0.4416  0.2408 -1.1990
 2438TIP3    H228730   4.487   1.927  16.323 -1.2295  0.8051  1.5856
 2439TIP3   OH228731   5.401   3.863  11.180 -0.5923 -0.6011  0.6446
 2439TIP3    H128732   5.432   3.807  11.109  0.1241  1.2217 -0.5192
 2439TIP3    H228733   5.309   3.879  11.160 -1.3422 -2.8783  2.0267
 2440TIP3   OH228734   1.573   5.314   4.538 -0.4017 -0.3359  0.6941
 2440TIP3    H128735   1.490   5.351   4.569 -0.0340 -0.0258  1.3094
 2440TIP3    H228736   1.599   5.371   4.466 -0.8383 -0.5684  0.3497
 2441TIP3   OH228737   1.994   2.817  14.991  0.2017  0.6735  0.1406
 2441TIP3    H128738   1.965   2.726  14.986 -0.6841  1.0578 -2.4680
 2441TIP3    H228739   1.953   2.851  15.070 -2.3413 -0.2233 -0.7493
 2442TIP3   OH228740   4.428   4.966   1.955  0.1600  0.2554  0.4310
 2442TIP3    H128741   4.389   4.924   2.032  0.2041 -0.4911  0.0575
 2442TIP3    H228742   4.361   4.960   1.887 -0.9257  3.3708  1.1596
 2443TIP3   OH228743   2.057   5.296  15.437  0.5463  0.5510 -0.7002
 2443TIP3    H128744   2.077   5.227  15.374 -0.0400 -0.7812  0.5306
 2443TIP3    H228745   1.963   5.311  15.427  0.2740 -0.3106  0.4656
 2444TIP3   OH228746   4.887   3.651   4.725  0.2551 -0.0468  0.1689
 2444TIP3    H128747   4.830   3.710   4.775  0.8575  0.4779  0.2473
 2444TIP3    H228748   4.945   3.612   4.790  0.9528  0.5341 -0.0957
 2445TIP3   OH228749   6.167   3.305   3.020 -0.1522  0.2926 -0.1985
 2445TIP3    H128750   6.079   3.280   2.991 -0.7945 -0.0757  2.0032
 2445TIP3    H228751   6.174   3.397   2.997  0.1673 -0.4617 -3.4122
 2446TIP3   OH228752   4.564   2.734   1.421  0.5116  0.8013 -0.5043
 2446TIP3    H128753   4.512   2.708   1.345 -0.5795  1.2989  0.0489
 2446TIP3    H228754   4.653   2.705   1.401 -0.1144 -0.7227 -1.1539
 2447TIP3   OH228755   1.144   4.497  16.147 -0.1446  0.4299 -0.2472
 2447TIP3    H128756   1.162   4.480  16.054 -1.1606 -1.5453 -0.1172
 2447TIP3    H228757   1.090   4.423  16.174  0.9213  0.5012  2.1614
 2448TIP3   OH228758   6.580   2.637  14.403 -0.1495 -0.8885 -0.6216
 2448TIP3    H128759   6.541   2.584  14.333 -1.9403 -1.3276  0.6682
 2448TIP3    H228760   6.519   2.627  14.477 -0.9911  3.6433 -0.5883
 2449TIP3   OH228761   2.365   6.379   2.472 -0.3532 -0.3022 -0.2928
 2449TIP3    H128762   2.389   6.442   2.405  1.8142 -0.0007  0.7323
 2449TIP3    H228763   2.285   6.339   2.439  0.5519 -0.0279 -2.9427
 2450TIP3   OH228764   1.075   2.203  13.755 -0.0302  0.6086  0.0890
 2450TIP3    H128765   1.067   2.156  13.838  1.6196 -0.1019 -0.1227
 2450TIP3    H228766   1.036   2.144  13.690 -0.5714  0.8039  0.2320
 2451TIP3   OH228767   5.585   2.350   1.806 -0.0837 -0.3928 -0.1732
 2451TIP3    H128768   5.596   2.260   1.837  0.5105 -0.2354  0.0841
 2451TIP3    H228769   5.491   2.361   1.796 -0.1654 -1.0154 -0.1189
 2452TIP3   OH228770   3.454   4.948   3.427 -0.4672  0.3273 -0.1562
 2452TIP3    H128771   3.463   5.011   3.356 -0.8733  3.1200  2.2104
 2452TIP3    H228772   3.360   4.930   3.432 -0.2026 -1.7461 -1.8459
 2453TIP3   OH228773   5.854   4.191  14.739 -0.4195  0.1785 -0.8176
 2453TIP3    H128774   5.889   4.280  14.735  1.1307 -0.3156  1.3776
 2453TIP3    H228775   5.931   4.135  14.735 -1.3188 -1.0548 -1.0475
 2454TIP3   OH228776   3.713   1.643  16.068 -0.2138 -0.5345  0.6834
 2454TIP3    H128777   3.789   1.586  16.058 -0.2221 -0.5424  0.6641
 2454TIP3    H228778   3.749   1.728  16.094 -0.1119 -0.2681 -0.2821
 2455TIP3   OH228779   3.426   4.953   6.015 -0.5027 -0.4272 -0.7293
 2455TIP3    H128780   3.428   4.866   6.055 -3.1010 -0.4428 -0.5128
 2455TIP3    H228781   3.455   4.939   5.925 -1.9987 -1.7530 -1.0360
 2456TIP3   OH228782   1.577   5.584   0.573 -0.2609 -0.1031 -0.0839
 2456TIP3    H128783   1.643   5.516   0.562  1.2554  1.0890  1.3587
 2456TIP3    H228784   1.605   5.654   0.513 -0.8413 -0.0311 -0.2740
 2457TIP3   OH228785   1.534   3.124   2.771 -0.1495  0.4988  0.0399
 2457TIP3    H128786   1.442   3.101   2.758 -0.0141  0.1193 -0.2776
 2457TIP3    H228787   1.550   3.193   2.707 -0.6150  1.6341  1.1437
 2458TIP3   OH228788   0.230   3.048   1.045 -0.4737 -0.8310 -0.0150
 2458TIP3    H128789   0.308   3.029   0.994 -1.1072 -0.9668 -0.9430
 2458TIP3    H228790   0.232   2.986   1.117  0.6234 -0.3880  0.3500
 2459TIP3   OH228791   5.456   3.676  15.096  0.2033  0.4178  0.2542
 2459TIP3    H128792   5.426   3.615  15.028  0.0683  0.2747  0.4395
 2459TIP3    H228793   5.441   3.763  15.059  1.8677  0.3353 -0.6425
 2460TIP3   OH228794   0.700   2.326  12.410 -0.6572 -0.1361  0.0127
 2460TIP3    H128795   0.694   2.234  12.436 -1.3890  0.5768  2.5305
 2460TIP3    H228796   0.793   2.348  12.418 -0.6371 -0.3797  0.4865
 2461TIP3   OH228797   0.359   1.791  15.187 -0.3817 -0.0547  0.3141
 2461TIP3    H128798   0.438   1.761  15.142 -1.0758 -1.5661  0.1015
 2461TIP3    H228799   0.391   1.832  15.267  0.5912 -0.9640  0.3926
 2462TIP3   OH228800   5.329   4.399   2.782 -0.1348  0.3756  0.1546
 2462TIP3    H128801   5.405   4.431   2.733  0.0637  0.3225  0.4248
 2462TIP3    H228802   5.335   4.444   2.867  0.0688 -0.2705  0.4855
 2463TIP3   OH228803   0.060   3.509   1.985  0.1034  0.1537 -0.1712
 2463TIP3    H128804   0.088   3.514   1.894 -0.4236  2.3846 -0.2272
 2463TIP3    H228805   0.130   3.461   2.029  0.9087  0.0593 -1.5216
 2464TIP3   OH228806   0.462   5.484  12.015 -0.4969  0.1935 -0.8069
 2464TIP3    H128807   0.533   5.507  11.955 -0.4539  0.2786 -0.7226
 2464TIP3    H228808   0.418   5.567  12.034  0.7290  0.4709  0.8829
 2465TIP3   OH228809   5.429   1.262  15.262  0.4586 -0.5132  0.1824
 2465TIP3    H128810   5.448   1.294  15.350 -2.6605 -2.6815  1.7250
 2465TIP3    H228811   5.411   1.341  15.211  1.0405  0.6716  1.7786
 2466TIP3   OH228812   1.312   1.020  15.656  0.3318  0.3114 -0.3496
 2466TIP3    H128813   1.297   1.097  15.602 -0.4239  0.3728 -0.0575
 2466TIP3    H228814   1.228   1.003  15.699  1.1626  0.8581  1.5662
 2467TIP3   OH228815   2.065   3.110   1.263 -0.3814 -0.1812  0.3633
 2467TIP3    H128816   2.034   3.186   1.214 -0.0904  0.2959  0.9150
 2467TIP3    H228817   2.148   3.087   1.222  0.6945  1.2514  1.6865
 2468TIP3   OH228818   0.625   1.895  15.023  0.1001 -0.1331 -0.6522
 2468TIP3    H128819   0.704   1.850  14.996 -0.1298 -0.5179 -0.6898
 2468TIP3    H228820   0.637   1.986  14.994  1.0611  0.0986  0.4446
 2469TIP3   OH228821   4.341   0.428   3.300 -0.6142 -0.3154  0.1738
 2469TIP3    H128822   4.271   0.413   3.364 -1.3709 -1.0945 -0.8119
 2469TIP3    H228823   4.323   0.515   3.264  2.8334  2.5153  4.7265
 2470TIP3   OH228824   5.268   3.813  11.952 -0.0712 -0.2770  0.3519
 2470TIP3    H128825   5.201   3.767  12.002 -1.2791 -1.5239 -2.2988
 2470TIP3    H228826   5.225   3.891  11.919 -0.3222 -1.1582 -1.4860
 2471TIP3   OH228827   5.587   2.588   3.308  0.5508 -0.3699 -0.3989
 2471TIP3    H128828   5.634   2.602   3.391 -0.2071 -0.9260  0.1308
 2471TIP3    H228829   5.623   2.654   3.249  1.3743 -0.2163  0.2621
 2472TIP3   OH228830   6.781   0.604   1.659  0.1084 -0.3088  0.6630
 2472TIP3    H128831   6.813   0.520   1.692 -1.2966 -1.1463 -0.0716
 2472TIP3    H228832   6.690   0.609   1.689  0.2632  1.0785  0.9318
 2473TIP3   OH228833   3.567   3.159   0.574  0.2856 -0.7521 -0.2229
 2473TIP3    H128834   3.569   3.165   0.478 -0.5515  0.6862 -0.1659
 2473TIP3    H228835   3.474   3.169   0.596  0.4396 -1.3668  0.7318
 2474TIP3   OH228836   5.607   5.542   0.119 -0.0985  0.4473 -0.1840
 2474TIP3    H128837   5.623   5.553   0.025  1.2156  0.5112  0.0341
 2474TIP3    H228838   5.684   5.494   0.150 -0.2526  0.9312  0.9573
 2475TIP3   OH228839   4.133   1.068  14.273  0.2170  0.2266 -0.4364
 2475TIP3    H128840   4.129   0.982  14.231 -0.2441  0.2742 -0.4869
 2475TIP3    H228841   4.183   1.122  14.211  0.5011 -0.0013 -0.4076
 2476TIP3   OH228842   1.772   2.209   4.238  0.0076 -0.4393 -0.2044
 2476TIP3    H128843   1.677   2.207   4.227  0.1599 -0.3519 -1.6672
 2476TIP3    H228844   1.788   2.160   4.319 -1.2872 -0.3330  0.1291
 2477TIP3   OH228845   4.805   4.022  12.171  0.1080  0.4412 -0.1541
 2477TIP3    H128846   4.730   3.972  12.203  0.8127 -0.1248  0.6384
 2477TIP3    H228847   4.877   3.959  12.169  1.4690  1.8101  2.6157
 2478TIP3   OH228848   1.358   2.905  11.843  0.0321  0.8176 -0.0809
 2478TIP3    H128849   1.369   2.988  11.890  0.0219  0.8188 -0.0800
 2478TIP3    H228850   1.339   2.841  11.911 -0.8359  0.9736 -0.1655
 2479TIP3   OH228851   3.487   1.006  16.564  0.3224  0.7038 -0.1510
 2479TIP3    H128852   3.403   0.970  16.537  0.5451  0.6932 -0.8259
 2479TIP3    H228853   3.472   1.036  16.654 -0.1413 -0.1586  0.0629
 2480TIP3   OH228854   5.298   5.305   4.420  0.2166 -0.3109 -0.1798
 2480TIP3    H128855   5.275   5.388   4.378 -1.9376 -0.5299  0.5372
 2480TIP3    H228856   5.344   5.331   4.500 -0.8008  0.1920  0.2419
 2481TIP3   OH228857   0.021   6.435  14.917 -0.1894 -0.1324  0.2097
 2481TIP3    H128858   0.007   6.516  14.966  2.6494  0.0044  0.9142
 2481TIP3    H228859   0.047   6.465  14.829 -0.1141 -0.2952  0.1772
 2482TIP3   OH228860   3.726   1.248  11.212 -0.2134 -0.0375 -0.7185
 2482TIP3    H128861   3.794   1.315  11.204 -0.7328  0.7142  0.9872
 2482TIP3    H228862   3.772   1.166  11.199  0.7911  0.5378 -0.8607
 2483TIP3   OH228863   0.050   5.592   0.143 -0.4139  0.6805 -0.0947
 2483TIP3    H128864   0.096   5.645   0.209  0.4498  2.2027 -1.8633
 2483TIP3    H228865  -0.041   5.622   0.148 -0.3740  0.7271  0.4447
 2484TIP3   OH228866   6.469   0.927   3.849 -0.4900  0.2127  0.4678
 2484TIP3    H128867   6.452   1.019   3.830  0.7381  0.6655  1.4426
 2484TIP3    H228868   6.471   0.922   3.945  0.9349 -0.5216  0.4191
 2485TIP3   OH228869   5.280   4.640   3.293 -0.3516  0.0771 -0.3221
 2485TIP3    H128870   5.195   4.644   3.337  0.4517 -0.2695  1.3013
 2485TIP3    H228871   5.311   4.730   3.293 -0.2556  0.0477  0.0552
 2486TIP3   OH228872   6.214   0.797   2.257 -0.6202  0.4341  0.3022
 2486TIP3    H128873   6.256   0.758   2.180  0.9650 -0.9524  1.8289
 2486TIP3    H228874   6.277   0.862   2.288 -0.2254 -0.6432  1.7752
 2487TIP3   OH228875   5.912   4.124  16.017 -0.5776 -0.1416  0.0144
 2487TIP3    H128876   5.993   4.153  16.059  1.2701  0.8539 -3.8932
 2487TIP3    H228877   5.891   4.195  15.956 -2.9192 -1.5893 -0.9002
 2488TIP3   OH228878   6.272   1.356  15.022 -0.1124  0.1951  0.1089
 2488TIP3    H128879   6.209   1.287  15.002  0.8330 -0.8211  0.6008
 2488TIP3    H228880   6.261   1.372  15.116  0.3422  0.0243  0.1936
 2489TIP3   OH228881   2.501   3.767   2.382 -0.0866 -0.0782 -0.1326
 2489TIP3    H128882   2.507   3.735   2.472 -0.1413 -1.9033 -0.7473
 2489TIP3    H228883   2.411   3.798   2.374 -0.5895 -1.4539 -0.0237
 2490TIP3   OH228884   4.211   6.582   4.156  0.6293  0.1024 -0.1489
 2490TIP3    H128885   4.305   6.578   4.171  0.8627 -1.2578 -1.8822
 2490TIP3    H228886   4.172   6.550   4.238  1.7333 -1.5646 -0.2603
 2491TIP3   OH228887   2.217   2.125  16.853  0.0218  0.2635  0.2457
 2491TIP3    H128888   2.182   2.142  16.941  0.3582  1.0193  0.2396
 2491TIP3    H228889   2.276   2.198  16.837 -1.4679  1.1472 -1.3806
 2492TIP3   OH228890   4.206   2.408   5.011 -0.3596 -0.5074 -0.3061
 2492TIP3    H128891   4.237   2.349   5.079  0.7605 -2.1230 -2.1596
 2492TIP3    H228892   4.127   2.366   4.977 -0.2887 -0.2682 -0.7661
 2493TIP3   OH228893   4.547   5.538   4.572 -0.5647  0.0294  0.1661
 2493TIP3    H128894   4.568   5.612   4.628  2.4234 -1.8217  1.6110
 2493TIP3    H228895   4.607   5.546   4.498  1.0450 -1.8530  1.2098
 2494TIP3   OH228896   3.506   5.795   3.348  0.4664 -0.2345 -0.7648
 2494TIP3    H128897   3.511   5.884   3.385  0.0436 -0.8004  0.7124
 2494TIP3    H228898   3.465   5.807   3.263 -0.0645  0.9422 -0.3641
 2495TIP3   OH228899   3.280   2.389   0.581  0.6807  0.2709 -0.1573
 2495TIP3    H128900   3.209   2.421   0.526  0.9395 -1.6381 -1.6511
 2495TIP3    H228901   3.241   2.319   0.633  0.7383  1.2532  1.2439
 2496TIP3   OH228902   1.516   0.846   5.727  0.5985 -0.1631  0.4835
 2496TIP3    H128903   1.606   0.827   5.755  0.3480  0.5785  1.7973
 2496TIP3    H228904   1.463   0.834   5.806 -0.3917 -0.0620 -0.1599
 2497TIP3   OH228905   2.801   1.179   1.481  0.1412  0.3274 -0.0928
 2497TIP3    H128906   2.753   1.096   1.485  0.7848  0.0400  2.0213
 2497TIP3    H228907   2.748   1.240   1.533 -0.0194  1.1055 -1.1484
 2498TIP3   OH228908   4.996   4.441   1.192  0.6964 -0.1515  0.4364
 2498TIP3    H128909   5.070   4.456   1.133 -0.0781 -2.0876 -1.0981
 2498TIP3    H228910   5.036   4.425   1.277  2.0563 -1.2814 -0.3904
 2499TIP3   OH228911   1.442   1.635  14.395 -0.2640 -0.1706 -0.1549
 2499TIP3    H128912   1.358   1.610  14.356  0.0175 -2.0868  0.4274
 2499TIP3    H228913   1.473   1.556  14.438  1.7889  0.5538 -0.2516
 2500TIP3   OH228914   5.589   3.473  15.711 -0.1783 -0.3038 -0.1325
 2500TIP3    H128915   5.672   3.509  15.742 -0.0379 -0.8589  0.1478
 2500TIP3    H228916   5.522   3.533  15.745  0.0849 -0.0476 -0.0704
 2501TIP3   OH228917   0.903   1.483  16.425  0.6494  0.3394 -0.1882
 2501TIP3    H128918   0.993   1.470  16.452 -0.2133 -0.0521  2.6482
 2501TIP3    H228919   0.889   1.417  16.357  2.2153 -0.1782 -0.0285
 2502TIP3   OH228920   5.075   3.481   4.871 -0.0590  0.0612  0.1086
 2502TIP3    H128921   5.092   3.404   4.926 -1.7299 -0.1208  0.3842
 2502TIP3    H228922   5.029   3.446   4.794  0.9918  0.5121 -0.7464
 2503TIP3   OH228923   2.073   4.541   6.163  0.6898  0.4812 -0.4510
 2503TIP3    H128924   2.064   4.576   6.252 -0.2023 -2.2525  0.5998
 2503TIP3    H228925   2.033   4.454   6.168  1.9018 -0.2749 -3.1908
 2504TIP3   OH228926   4.323   5.276  11.378 -0.5733  0.3908  0.4609
 2504TIP3    H128927   4.368   5.224  11.312 -0.6588  0.2242  0.5343
 2504TIP3    H228928   4.268   5.336  11.328 -1.0858 -0.1315  0.3904
 2505TIP3   OH228929   1.907   1.099  10.569  0.0051 -0.0566  0.2372
 2505TIP3    H128930   1.893   1.187  10.536  0.8417 -0.0317 -0.0561
 2505TIP3    H228931   1.962   1.110  10.646 -2.3731 -0.0660  2.0188
 2506TIP3   OH228932   1.085   2.848  13.688  0.3707 -0.4084  0.1063
 2506TIP3    H128933   1.030   2.792  13.633 -1.7151  0.5001  1.2269
 2506TIP3    H228934   1.080   2.809  13.775  1.2059 -0.0929  0.2995
 2507TIP3   OH228935   4.143   0.710   6.391 -0.6234  0.0394  0.1666
 2507TIP3    H128936   4.216   0.772   6.398 -1.4155  0.8338  1.5671
 2507TIP3    H228937   4.185   0.624   6.391  0.5096  0.5416 -2.0424
 2508TIP3   OH228938   4.322   3.114  13.485  0.4003 -0.1695  0.0006
 2508TIP3    H128939   4.339   3.166  13.564 -0.5839  0.4748 -0.1996
 2508TIP3    H228940   4.243   3.152  13.448  0.8652 -0.4634 -1.3192
 2509TIP3   OH228941   4.699   3.903  11.311 -0.0985 -0.4818  0.2316
 2509TIP3    H128942   4.633   3.864  11.254 -1.3332  1.9618 -0.0908
 2509TIP3    H228943   4.651   3.931  11.389  0.5123  1.2953  0.0151
 2510TIP3   OH228944   1.901   5.932  12.328 -0.0765 -0.3375 -0.6980
 2510TIP3    H128945   1.812   5.928  12.293 -0.8691 -1.7399  1.3938
 2510TIP3    H228946   1.920   5.843  12.356  0.8408  0.5227  1.5710
 2511TIP3   OH228947   3.654   5.120  11.826 -0.3435  0.1797 -0.2533
 2511TIP3    H128948   3.577   5.072  11.796  0.9014 -1.2423 -1.2504
 2511TIP3    H228949   3.649   5.117  11.921 -1.6327  0.3031 -0.3048
 2512TIP3   OH228950   5.652   0.970  11.049  0.5913 -0.3934 -0.2306
 2512TIP3    H128951   5.608   0.895  11.008  0.3631 -0.6162  0.4154
 2512TIP3    H228952   5.744   0.945  11.051  0.6387 -0.2738 -0.8396
 2513TIP3   OH228953   2.285   1.742   3.728  0.3911  0.1259  0.2064
 2513TIP3    H128954   2.211   1.681   3.732 -1.1508  1.8268 -1.2171
 2513TIP3    H228955   2.362   1.687   3.724 -0.9569 -1.7260 -0.7640
 2514TIP3   OH228956   5.238   0.798  14.183 -0.9878 -0.1511  0.2402
 2514TIP3    H128957   5.334   0.794  14.181 -1.0098 -1.1869  0.6827
 2514TIP3    H228958   5.217   0.868  14.244 -0.5121 -2.0866  2.6672
 2515TIP3   OH228959   5.543   0.113  13.761 -1.2315 -0.1151 -0.4384
 2515TIP3    H128960   5.493   0.140  13.685 -2.2463 -0.6224  0.0262
 2515TIP3    H228961   5.480   0.117  13.834 -0.8823 -1.7287 -0.0230
 2516TIP3   OH228962   3.346   3.799   4.298 -0.3926  0.6937 -0.2970
 2516TIP3    H128963   3.412   3.766   4.237 -0.4242  0.1089 -0.0092
 2516TIP3    H228964   3.314   3.722   4.344 -1.8004  0.8813 -0.9496
 2517TIP3   OH228965   1.573   2.559   5.062  0.4595 -0.0876 -0.1597
 2517TIP3    H128966   1.529   2.505   5.127  1.1917 -1.1236 -0.4967
 2517TIP3    H228967   1.650   2.593   5.107  1.7934 -2.0332 -0.8784
 2518TIP3   OH228968   1.634   3.879  11.954  0.1241  0.4857  0.1798
 2518TIP3    H128969   1.634   3.922  11.869 -1.4516 -0.8431 -0.5113
 2518TIP3    H228970   1.726   3.863  11.973  0.3978 -0.5747 -1.9672
 2519TIP3   OH228971   2.440   5.566  13.614 -0.3729  0.2267  0.1911
 2519TIP3    H128972   2.443   5.647  13.666 -1.4867  0.3773  0.0444
 2519TIP3    H228973   2.375   5.512  13.658  0.8943 -0.8964  0.7004
 2520TIP3   OH228974   6.067   1.195  15.924 -0.2680  0.3981  0.2751
 2520TIP3    H128975   6.009   1.120  15.913 -1.1784  1.0591  0.4723
 2520TIP3    H228976   6.082   1.227  15.835  2.0800 -1.4389 -0.0456
 2521TIP3   OH228977   0.923   2.538   6.232 -0.4666  0.4033 -0.2713
 2521TIP3    H128978   1.017   2.550   6.243 -0.2216 -1.2665 -0.5112
 2521TIP3    H228979   0.886   2.626   6.246  0.9565  0.7497  1.4024
 2522TIP3   OH228980   1.662   1.876   2.514 -0.7082 -0.1969 -0.4049
 2522TIP3    H128981   1.658   1.809   2.446 -0.6899 -0.7391  0.1230
 2522TIP3    H228982   1.621   1.953   2.475 -0.0457 -0.2812 -1.2861
 2523TIP3   OH228983   5.489   4.078   5.474 -0.1410 -0.2164  0.0279
 2523TIP3    H128984   5.428   4.007   5.495  0.6082 -1.3930 -1.6380
 2523TIP3    H228985   5.570   4.054   5.518 -0.0546 -0.0891 -0.0612
 2524TIP3   OH228986   0.264   0.377  14.525 -0.2664  0.1228 -0.1636
 2524TIP3    H128987   0.208   0.354  14.599 -1.9214  0.4162 -1.2864
 2524TIP3    H228988   0.223   0.456  14.488  0.0494 -0.4871 -1.8638
 2525TIP3   OH228989   1.849   0.319  15.054  0.7007  0.6161 -0.3028
 2525TIP3    H128990   1.928   0.331  15.107  1.4252 -0.0652 -1.2323
 2525TIP3    H228991   1.798   0.254  15.102  1.5367 -0.2931 -0.6381
 2526TIP3   OH228992   0.124   6.503   4.219  1.2480 -0.4320 -0.2143
 2526TIP3    H128993   0.136   6.587   4.175 -1.6392  0.2877  0.2601
 2526TIP3    H228994   0.073   6.524   4.297 -2.2900 -2.9891 -1.6982
 2527TIP3   OH228995   2.308   3.974  10.721 -0.3697  0.1508 -0.2534
 2527TIP3    H128996   2.284   3.955  10.630 -1.3187 -1.9569  0.4161
 2527TIP3    H228997   2.231   3.947  10.772  0.5444  0.3817  1.2598
 2528TIP3   OH228998   1.886   5.844  13.380  0.1298  0.1900 -0.4601
 2528TIP3    H128999   1.951   5.853  13.450  0.4807  0.5660 -0.8251
 2528TIP3    H229000   1.912   5.765  13.333 -0.4183 -0.3588  0.1506
 2529TIP3   OH229001   3.910   5.919  16.387 -0.0979 -0.0132  0.2930
 2529TIP3    H129002   3.969   5.928  16.462 -0.1859 -2.0108  0.6323
 2529TIP3    H229003   3.824   5.899  16.426 -0.1846 -0.8608 -0.3089
 2530TIP3   OH229004   1.437   1.013  12.586  0.3479  0.0364  0.2986
 2530TIP3    H129005   1.490   0.953  12.639 -2.0293 -3.1288 -0.7825
 2530TIP3    H229006   1.451   0.984  12.496 -0.6705  1.2748 -0.2695
 2531TIP3   OH229007   2.251   6.192  14.382 -0.0624  0.4121 -0.3713
 2531TIP3    H129008   2.208   6.265  14.427  0.5739  1.2739 -1.1596
 2531TIP3    H229009   2.185   6.160  14.320 -0.4408  0.1141  0.1714
 2532TIP3   OH229010   5.519   2.468   0.525 -0.9030 -0.3284 -0.2134
 2532TIP3    H129011   5.591   2.433   0.472  0.2998  1.9092 -0.1515
 2532TIP3    H229012   5.504   2.556   0.489 -3.2661 -0.5609  0.1332
 2533TIP3   OH229013   4.811   2.087   5.825  0.3238 -0.0648  0.3383
 2533TIP3    H129014   4.873   2.039   5.772  0.2325 -0.1821  0.3374
 2533TIP3    H229015   4.742   2.114   5.764 -1.1299 -2.4659  0.8632
 2534TIP3   OH229016   6.664   2.959   1.228 -0.2554  0.4021 -0.0774
 2534TIP3    H129017   6.743   2.912   1.200  0.0659 -0.5570  2.2570
 2534TIP3    H229018   6.626   2.994   1.148  1.2155 -1.2326 -1.5197
 2535TIP3   OH229019   4.556   5.985   5.250  0.4558 -0.5284 -0.0119
 2535TIP3    H129020   4.514   5.970   5.334  1.9920 -1.0172  0.6984
 2535TIP3    H229021   4.485   5.987   5.186 -0.7447  0.1532  1.3355
 2536TIP3   OH229022   2.213   6.003   4.187  0.0251 -0.3186 -0.8783
 2536TIP3    H129023   2.148   5.954   4.136  1.3423 -3.8310  0.6434
 2536TIP3    H229024   2.283   6.020   4.125 -0.8230  0.4344 -1.6493
 2537TIP3   OH229025   3.924   2.725   3.572 -0.3292 -0.1965  0.3835
 2537TIP3    H129026   3.996   2.749   3.514  0.0042  1.7137  1.5293
 2537TIP3    H229027   3.895   2.639   3.542  0.2480  0.4926 -2.1854
 2538TIP3   OH229028   2.980   6.060  11.702  0.0710  0.4072 -0.2404
 2538TIP3    H129029   3.073   6.055  11.681  0.3805  0.1098  1.1862
 2538TIP3    H229030   2.937   6.064  11.617  1.4824  2.2427 -0.9025
 2539TIP3   OH229031   5.624   2.704  13.975 -0.1339  0.1230  0.3813
 2539TIP3    H129032   5.710   2.739  13.998  0.8378 -2.0882  0.2280
 2539TIP3    H229033   5.593   2.762  13.905  2.6456 -0.8792 -1.7904
 2540TIP3   OH229034   3.703   6.050  13.142 -0.3457 -0.2362 -0.4409
 2540TIP3    H129035   3.704   6.001  13.224  1.9682  0.7438  0.1428
 2540TIP3    H229036   3.730   6.138  13.166 -1.4108  0.5321 -1.9871
 2541TIP3   OH229037   5.097   1.344  14.283 -0.1464 -0.2322 -0.4278
 2541TIP3    H129038   5.163   1.412  14.297 -0.8923  0.6343 -0.9725
 2541TIP3    H229039   5.014   1.390  14.296 -0.6184 -1.5341  1.2198
 2542TIP3   OH229040   3.132   3.380   3.842  0.4839  0.5680  0.0906
 2542TIP3    H129041   3.140   3.466   3.800  1.8504  1.1543  1.4799
 2542TIP3    H229042   3.217   3.366   3.884 -0.0139 -1.0937  0.5831
 2543TIP3   OH229043   3.461   0.715   5.720  0.2283  0.2929  0.1734
 2543TIP3    H129044   3.528   0.682   5.661  0.0235  0.3375 -0.0840
 2543TIP3    H229045   3.461   0.654   5.794 -1.9484 -1.8270 -1.4924
 2544TIP3   OH229046   0.147   3.377   0.489 -1.0276  0.3385  0.0156
 2544TIP3    H129047   0.163   3.302   0.432 -0.5997 -0.7450  1.5312
 2544TIP3    H229048   0.054   3.397   0.478 -1.0889 -0.2724 -0.5488
 2545TIP3   OH229049   0.111   3.351  14.693  0.3141 -0.1753  0.4714
 2545TIP3    H129050   0.097   3.306  14.609  1.4184  0.7256 -0.2085
 2545TIP3    H229051   0.042   3.417  14.696  0.3891 -0.0823  0.1789
 2546TIP3   OH229052   4.403   4.551   0.343 -0.8010  0.5941 -0.4616
 2546TIP3    H129053   4.425   4.562   0.436  2.6143  0.8783 -1.2145
 2546TIP3    H229054   4.327   4.608   0.329  0.6867  3.1662  1.4545
 2547TIP3   OH229055   0.618   4.373   2.837  0.0093  0.0837 -0.1552
 2547TIP3    H129056   0.673   4.430   2.782 -1.5574 -0.2421 -2.1016
 2547TIP3    H229057   0.624   4.287   2.796 -1.7034 -0.0127 -0.2444
 2548TIP3   OH229058   3.321   2.751   5.968 -0.3465  0.5039  0.2164
 2548TIP3    H129059   3.327   2.698   6.048  0.9755  1.1565  0.5799
 2548TIP3    H229060   3.299   2.689   5.899 -0.2798 -0.2795  0.8961
 2549TIP3   OH229061   0.034   1.670   2.094  0.0162 -0.0576 -0.2064
 2549TIP3    H129062   0.042   1.645   2.186 -1.3258  3.2010  0.8667
 2549TIP3    H229063   0.122   1.661   2.059  1.0161  0.7992  1.9836
 2550TIP3   OH229064   4.177   6.152   3.666  0.1172 -0.1868 -0.3736
 2550TIP3    H129065   4.132   6.165   3.582  0.3409  0.6035 -0.3698
 2550TIP3    H229066   4.134   6.212   3.726 -0.1101 -0.8285  0.1131
 2551TIP3   OH229067   4.554   6.575   5.807  0.0500  0.1274  0.1631
 2551TIP3    H129068   4.498   6.646   5.840 -1.0349 -0.8713  0.4890
 2551TIP3    H229069   4.493   6.505   5.785  1.2784 -1.5605  2.0200
 2552TIP3   OH229070   6.266   4.791   3.285 -0.4308  0.0302  0.5166
 2552TIP3    H129071   6.190   4.816   3.232  0.4193 -0.6088 -1.0498
 2552TIP3    H229072   6.238   4.713   3.332 -1.2829  0.7575  1.2450
 2553TIP3   OH229073   3.024   5.169   5.511 -0.1970 -0.1047 -0.2760
 2553TIP3    H129074   3.002   5.199   5.599 -0.3399 -0.6836 -0.1164
 2553TIP3    H229075   3.108   5.211   5.492 -0.2109  0.0954  0.0967
 2554TIP3   OH229076   0.971   1.361   4.090 -0.9345 -0.6643  0.0566
 2554TIP3    H129077   1.006   1.288   4.140  0.6221 -0.4783 -0.7230
 2554TIP3    H229078   0.948   1.427   4.155 -1.7851 -1.6076  0.7158
 2555TIP3   OH229079   2.731   4.830   0.016 -0.1742 -0.8841  0.1610
 2555TIP3    H129080   2.672   4.763   0.052 -0.3104 -0.8076  0.0804
 2555TIP3    H229081   2.800   4.839   0.082 -0.2787 -0.9396  0.2784
 2556TIP3   OH229082   2.123   6.757  12.623  0.3999  0.2864 -0.3235
 2556TIP3    H129083   2.098   6.675  12.666  1.7094  0.3390  0.5730
 2556TIP3    H229084   2.093   6.747  12.533 -1.8062 -0.1027  0.4261
 2557TIP3   OH229085   0.014   1.698  12.957  0.3404 -0.7063 -0.6256
 2557TIP3    H129086   0.103   1.691  12.993  0.1587  0.6918  0.1424
 2557TIP3    H229087   0.018   1.770  12.895 -0.4096 -0.1678 -0.0665
 2558TIP3   OH229088   5.066   3.251  15.218 -0.0872 -0.5778 -0.0432
 2558TIP3    H129089   5.122   3.276  15.144 -1.0591  1.4477 -0.1352
 2558TIP3    H229090   4.977   3.262  15.186 -0.5325  0.9771  1.6018
 2559TIP3   OH229091   3.745   6.150  17.239 -0.5521  0.0786  0.1167
 2559TIP3    H129092   3.769   6.243  17.232  0.8267 -0.3665 -1.1592
 2559TIP3    H229093   3.784   6.109  17.163 -4.3893 -0.9299 -1.4210
 2560TIP3   OH229094   4.100   5.012   2.330  0.0985 -0.2813 -0.3328
 2560TIP3    H129095   4.122   5.015   2.424 -0.0292 -0.2696 -0.3031
 2560TIP3    H229096   4.008   5.040   2.327 -0.4590 -2.0840 -0.2795
 2561TIP3   OH229097   1.630   4.762  15.341 -0.2430 -0.1669 -0.2937
 2561TIP3    H129098   1.547   4.727  15.374  0.2090 -0.1513  0.8843
 2561TIP3    H229099   1.697   4.719  15.393  0.4203  0.8613 -0.2763
 2562TIP3   OH229100   1.978   0.810   4.547 -0.4247 -0.3387 -0.0898
 2562TIP3    H129101   1.994   0.892   4.593 -0.7815  0.1151 -0.7707
 2562TIP3    H229102   2.063   0.764   4.550  0.0962  0.5629 -0.7053
 2563TIP3   OH229103   3.852   4.103  11.145 -0.1318  0.0295  0.0208
 2563TIP3    H129104   3.929   4.047  11.157 -0.5077 -0.6858 -0.8421
 2563TIP3    H229105   3.884   4.176  11.091  0.1443  0.1834  0.3910
 2564TIP3   OH229106   6.772   1.797  14.935  0.1828 -0.2135 -0.1739
 2564TIP3    H129107   6.721   1.796  14.854 -0.0956 -1.5963  0.0001
 2564TIP3    H229108   6.728   1.861  14.991 -1.8085 -1.8775  0.2360
 2565TIP3   OH229109   0.309   1.521   0.146 -0.2799  0.0287 -0.1078
 2565TIP3    H129110   0.297   1.610   0.179  0.1075  0.9577 -2.3540
 2565TIP3    H229111   0.401   1.516   0.122  0.0089 -1.4416  1.2462
 2566TIP3   OH229112   0.129   2.361  13.775 -0.2634  0.3503 -0.3431
 2566TIP3    H129113   0.197   2.340  13.839 -0.8643 -1.2099 -0.2101
 2566TIP3    H229114   0.088   2.441  13.808 -0.9139 -0.7307  1.5051
 2567TIP3   OH229115   5.015   3.485  11.011 -0.4975 -0.1679 -0.0496
 2567TIP3    H129116   5.024   3.566  11.062 -0.7294  1.2600 -2.1961
 2567TIP3    H229117   5.067   3.420  11.060  0.2678  1.4359  1.3423
 2568TIP3   OH229118   4.008   3.206  13.695  0.2318 -0.0149  0.7167
 2568TIP3    H129119   4.069   3.269  13.732  0.2330  0.7357 -0.5314
 2568TIP3    H229120   3.932   3.259  13.669 -0.0410 -0.6160  0.2735
 2569TIP3   OH229121   4.565   4.314   0.769 -0.6350  0.1675  0.0462
 2569TIP3    H129122   4.564   4.316   0.673 -1.4842 -1.9302  0.0015
 2569TIP3    H229123   4.626   4.384   0.793  0.8825 -0.3852 -2.0523
 2570TIP3   OH229124   6.269   3.224   5.567  0.0429 -0.0970 -0.2893
 2570TIP3    H129125   6.330   3.164   5.525 -0.3260 -0.0328 -0.9156
 2570TIP3    H229126   6.301   3.311   5.546  0.0866 -0.0678 -0.1024
 2571TIP3   OH229127   5.145   0.803   4.160 -0.7794 -0.2682  0.7706
 2571TIP3    H129128   5.059   0.769   4.134 -0.6475  0.1058 -0.1579
 2571TIP3    H229129   5.207   0.756   4.105 -0.7032  2.6554 -1.7712
 2572TIP3   OH229130   2.350   4.459   3.870 -0.3955  0.0122  0.2531
 2572TIP3    H129131   2.308   4.377   3.893  1.0088 -0.3944  1.4943
 2572TIP3    H229132   2.386   4.492   3.953  0.5885  0.9700 -0.5299
 2573TIP3   OH229133   6.615   6.052   4.598  0.4494  0.2992  0.3701
 2573TIP3    H129134   6.575   6.062   4.512 -0.0216  0.3300  0.5889
 2573TIP3    H229135   6.690   5.994   4.584 -0.9901 -1.6205  0.3485
 2574TIP3   OH229136   3.295   0.105   5.237 -0.3169 -0.1917 -0.2646
 2574TIP3    H129137   3.229   0.050   5.279 -1.5232  2.4558  1.4908
 2574TIP3    H229138   3.251   0.139   5.159 -0.3305 -0.0420 -0.1924
 2575TIP3   OH229139   5.830   6.673   2.360  0.0478  0.2759  0.4129
 2575TIP3    H129140   5.856   6.584   2.385  1.0412  1.1417  2.6175
 2575TIP3    H229141   5.815   6.668   2.266  0.4653 -2.1366  0.4356
 2576TIP3   OH229142   3.772   1.661   3.172 -0.0122  0.8932 -0.6460
 2576TIP3    H129143   3.767   1.630   3.262  1.1766  0.6104 -0.6692
 2576TIP3    H229144   3.859   1.636   3.143 -0.8767 -0.2501 -2.3305
 2577TIP3   OH229145   3.840   6.362   2.347 -0.0932  0.5662 -0.2014
 2577TIP3    H129146   3.876   6.416   2.277 -0.9266  1.8592  0.3596
 2577TIP3    H229147   3.914   6.345   2.405  0.3389  0.4479 -0.7773
 2578TIP3   OH229148   2.166   0.597   6.390  0.6954  0.0259 -0.5483
 2578TIP3    H129149   2.217   0.573   6.313  0.1654 -1.3922 -0.4676
 2578TIP3    H229150   2.076   0.604   6.358  0.2358 -2.0073  0.1933
 2579TIP3   OH229151   0.821   5.535   0.852 -0.4796 -0.1846  0.1921
 2579TIP3    H129152   0.793   5.467   0.791  1.2900 -1.7628  1.0766
 2579TIP3    H229153   0.903   5.501   0.889  0.2530  2.2798  0.8993
 2580TIP3   OH229154   3.453   5.722  15.128  0.1284  0.3062  0.3670
 2580TIP3    H129155   3.424   5.725  15.037 -1.1308 -1.7149  0.6587
 2580TIP3    H229156   3.526   5.660  15.127 -0.2484 -0.1512  0.8174
 2581TIP3   OH229157   2.521   3.741   3.176 -0.1079 -0.0624  0.0172
 2581TIP3    H129158   2.610   3.717   3.150  0.4408  0.8752  0.9871
 2581TIP3    H229159   2.465   3.683   3.125  1.0612 -0.7264 -0.5411
 2582TIP3   OH229160   5.846   5.139   3.155  0.0392 -0.4257  0.1023
 2582TIP3    H129161   5.824   5.232   3.146 -0.8547 -0.6384  0.0233
 2582TIP3    H229162   5.785   5.094   3.096  0.0417 -1.1153  0.6237
 2583TIP3   OH229163   1.149   0.163   0.947 -0.3943  0.0444 -0.0240
 2583TIP3    H129164   1.068   0.198   0.985 -0.1195  0.5110  0.1369
 2583TIP3    H229165   1.173   0.091   1.005 -0.2955  0.3767  0.3482
 2584TIP3   OH229166   3.291   1.431  13.914  0.1576  0.4060 -0.1157
 2584TIP3    H129167   3.358   1.418  13.981  1.0393 -0.4058 -1.1199
 2584TIP3    H229168   3.307   1.519  13.880 -2.0427  1.9518  2.5980
 2585TIP3   OH229169   3.322   1.509   1.704  0.8425 -0.0400  0.2040
 2585TIP3    H129170   3.320   1.420   1.741  0.7328 -0.4592 -0.8090
 2585TIP3    H229171   3.289   1.499   1.615 -0.8020  1.2955  0.6389
 2586TIP3   OH229172   4.760   4.194   6.045  0.0259  0.2829 -0.1835
 2586TIP3    H129173   4.782   4.268   6.102 -3.3934  3.0745 -2.3086
 2586TIP3    H229174   4.689   4.149   6.090 -0.3922  0.4852 -0.6415
 2587TIP3   OH229175   0.691   1.022   5.426  0.0960 -0.2241 -0.4326
 2587TIP3    H129176   0.666   1.047   5.515 -0.9660  1.8142 -1.2830
 2587TIP3    H229177   0.726   1.102   5.387  1.0739 -1.2356 -1.6732
 2588TIP3   OH229178   0.022   5.088   5.510  0.1166 -0.4239 -0.2679
 2588TIP3    H129179  -0.001   4.997   5.527  0.8963 -1.0099 -2.1536
 2588TIP3    H229180  -0.044   5.139   5.557  0.8055 -1.9106  2.3762
 2589TIP3   OH229181   1.153   5.139  12.315  0.1599 -0.2157  0.1828
 2589TIP3    H129182   1.097   5.119  12.241 -1.6396  0.1533  1.4216
 2589TIP3    H229183   1.189   5.226  12.295 -1.7594  0.6891  0.5782
 2590TIP3   OH229184   6.653   4.104  14.508  0.1107 -0.3584  0.2191
 2590TIP3    H129185   6.597   4.174  14.541 -0.5108 -0.3042 -0.9464
 2590TIP3    H229186   6.710   4.146  14.445 -0.9935 -1.0890 -1.2941
 2591TIP3   OH229187   4.271   3.214  14.155  0.2412 -0.7993 -0.2836
 2591TIP3    H129188   4.278   3.174  14.242 -0.0099  1.2190  0.6992
 2591TIP3    H229189   4.357   3.252  14.140 -0.2911  0.4963 -0.0816
 2592TIP3   OH229190   3.509   6.056   4.591  0.0815 -0.5292 -0.4087
 2592TIP3    H129191   3.510   6.010   4.506  3.4016 -0.5515 -0.4222
 2592TIP3    H229192   3.509   5.986   4.656  2.1685 -0.5983 -0.4365
 2593TIP3   OH229193   2.978   3.294  15.450  0.3852 -0.3157 -0.2365
 2593TIP3    H129194   3.072   3.312  15.454  0.6656 -1.3868 -1.4981
 2593TIP3    H229195   2.957   3.297  15.356 -1.1570  1.4158  0.1306
 2594TIP3   OH229196   4.828   0.366  10.506  0.0713 -0.4209 -0.5103
 2594TIP3    H129197   4.815   0.416  10.425 -0.2185 -0.2349 -0.3510
 2594TIP3    H229198   4.743   0.367  10.549  0.9023  1.9878  1.2160
 2595TIP3   OH229199   2.896   0.515   4.357 -0.6797  0.5639 -0.3674
 2595TIP3    H129200   2.809   0.476   4.361 -0.2904 -0.1794  1.2883
 2595TIP3    H229201   2.905   0.564   4.439  0.7572 -0.0485 -0.1395
 2596TIP3   OH229202   3.322   6.541  16.159  0.0983  0.2469  0.0744
 2596TIP3    H129203   3.413   6.566  16.146 -0.2914  1.5168 -0.2097
 2596TIP3    H229204   3.272   6.619  16.136 -1.0465 -0.3615  0.4901
 2597TIP3   OH229205   3.538   3.385   5.064  0.5731  0.4362  0.1484
 2597TIP3    H129206   3.586   3.431   5.132 -0.2228 -0.1116  1.0987
 2597TIP3    H229207   3.556   3.292   5.080 -1.4447  0.1769  1.0352
 2598TIP3   OH229208   5.555   3.733   2.524 -0.7743 -0.0792  0.4583
 2598TIP3    H129209   5.639   3.691   2.544 -1.0170 -0.4755  0.6516
 2598TIP3    H229210   5.535   3.705   2.434 -0.6225  0.1458  0.3540
 2599TIP3   OH229211   6.209   3.247  12.532 -0.0241  0.0637 -0.2691
 2599TIP3    H129212   6.294   3.285  12.508 -0.8527  1.4544 -1.0340
 2599TIP3    H229213   6.145   3.306  12.494 -1.3503 -1.6482 -0.7393
 2600TIP3   OH229214   3.566   6.195  15.241  0.8741 -0.3236 -0.0638
 2600TIP3    H129215   3.569   6.102  15.263  1.6334 -0.3677 -0.3510
 2600TIP3    H229216   3.474   6.219  15.253  0.3420 -1.5031 -1.6531
 2601TIP3   OH229217   0.590   3.178  17.009 -0.4419  0.5799 -0.1723
 2601TIP3    H129218   0.632   3.221  17.084  0.9288  2.4410 -1.9626
 2601TIP3    H229219   0.657   3.118  16.976  0.2251  2.2549 -1.9541
 2602TIP3   OH229220   4.026   0.108  15.794  0.6009 -0.3952 -0.0308
 2602TIP3    H129221   4.053   0.125  15.704 -1.3631  1.2324 -0.3624
 2602TIP3    H229222   3.946   0.160  15.805  1.1064 -0.1295  2.8167
 2603TIP3   OH229223   5.571   5.001   2.175 -0.1720 -0.2381  0.5763
 2603TIP3    H129224   5.538   5.089   2.157 -1.1454 -0.9045 -1.0848
 2603TIP3    H229225   5.507   4.963   2.236 -1.3015 -0.7529 -0.9019
 2604TIP3   OH229226   6.370   1.730  10.848 -0.1685  0.3508 -0.4138
 2604TIP3    H129227   6.341   1.674  10.920 -0.3964  1.2347  0.1871
 2604TIP3    H229228   6.297   1.790  10.833 -0.2099  0.0224 -1.5360
 2605TIP3   OH229229   1.176   0.668   4.326 -0.1265  0.2547  0.3956
 2605TIP3    H129230   1.144   0.580   4.346 -0.6634  0.2530 -0.4251
 2605TIP3    H229231   1.266   0.668   4.358  0.5121 -1.2379 -1.2905
 2606TIP3   OH229232   1.434   6.620  12.566  0.1769 -0.2320 -0.4968
 2606TIP3    H129233   1.447   6.714  12.553 -1.2572 -0.0135 -0.4460
 2606TIP3    H229234   1.520   6.582  12.550  0.6077  1.0137 -1.2625
 2607TIP3   OH229235   5.781   0.975  15.924  0.0440  0.5014 -0.3172
 2607TIP3    H129236   5.706   0.995  15.980  0.3869  0.0951  0.2980
 2607TIP3    H229237   5.803   0.884  15.945 -0.6783 -0.1155 -2.1257
 2608TIP3   OH229238   1.276   6.730   1.077  0.2101  0.0446  0.3020
 2608TIP3    H129239   1.221   6.720   1.155 -0.2250 -0.3019 -0.0469
 2608TIP3    H229240   1.366   6.734   1.111  0.1005 -1.1460  0.7494
 2609TIP3   OH229241   6.110   3.252   2.569 -0.4058  0.0463  0.0221
 2609TIP3    H129242   6.186   3.299   2.602  1.1372 -1.2569 -1.5871
 2609TIP3    H229243   6.085   3.192   2.639  1.2632 -0.8844 -0.1657
 2610TIP3   OH229244   2.402   1.043  16.955  0.6887 -0.5179 -0.0603
 2610TIP3    H129245   2.482   1.081  16.917  1.4735 -1.4693  0.6134
 2610TIP3    H229246   2.392   0.959  16.912  0.5363 -0.7816  0.4830
 2611TIP3   OH229247   6.074   4.977   1.538 -0.1207 -0.4047  0.0863
 2611TIP3    H129248   6.070   4.955   1.632  0.7953  1.1504  0.5061
 2611TIP3    H229249   6.019   5.055   1.530 -1.0398 -1.1482 -0.8679
 2612TIP3   OH229250   1.425   6.558   4.411  0.0082  0.0182  0.5396
 2612TIP3    H129251   1.476   6.596   4.339 -1.0262  1.2734  0.4413
 2612TIP3    H229252   1.490   6.520   4.469  1.0274  1.1323  0.1427
 2613TIP3   OH229253   4.504   6.510   3.933  0.9275  0.3083  0.5220
 2613TIP3    H129254   4.422   6.472   3.902  1.2243  0.6232 -0.6586
 2613TIP3    H229255   4.485   6.603   3.943  0.1664 -0.1153  3.5257
 2614TIP3   OH229256   0.079   2.154   5.959 -0.5626  0.1991 -0.2888
 2614TIP3    H129257   0.118   2.211   6.025 -1.0420 -0.9055  0.9816
 2614TIP3    H229258   0.032   2.214   5.901  1.2095  1.3372 -0.5977
 2615TIP3   OH229259   4.710   0.356  14.700 -0.1368 -0.0151 -0.0192
 2615TIP3    H129260   4.625   0.345  14.658 -0.0805  0.5146 -0.2774
 2615TIP3    H229261   4.773   0.354  14.628  0.1137 -0.8813  0.2166
 2616TIP3   OH229262   4.101   5.704   6.214  0.1677 -0.0374 -0.1936
 2616TIP3    H129263   4.122   5.615   6.187  0.9199  0.0398  0.1273
 2616TIP3    H229264   4.168   5.726   6.278  0.0937  0.8335 -0.4118
 2617TIP3   OH229265   0.164   1.324  10.840  0.2300  0.3944  0.2069
 2617TIP3    H129266   0.240   1.290  10.888  1.0615  2.8088  0.7038
 2617TIP3    H229267   0.093   1.323  10.904  0.5344  0.6410  0.5509
 2618TIP3   OH229268   4.916   2.067  10.612 -0.9131  0.1311 -0.5970
 2618TIP3    H129269   4.850   2.021  10.662 -1.1541 -0.8180 -1.7536
 2618TIP3    H229270   4.870   2.096  10.533  0.0257 -0.4787 -1.3753
 2619TIP3   OH229271   2.789   0.925   5.877 -0.1763 -0.6823 -0.0241
 2619TIP3    H129272   2.729   0.851   5.882  0.5455 -1.3919 -1.7862
 2619TIP3    H229273   2.803   0.950   5.969 -1.5987 -1.7544  0.5005
 2620TIP3   OH229274   1.360   0.045  14.637  0.4603 -0.0719  0.4808
 2620TIP3    H129275   1.356   0.099  14.715 -0.7730 -0.1354  0.4618
 2620TIP3    H229276   1.371  -0.044  14.670 -0.1516 -0.1093  0.5870
 2621TIP3   OH229277   4.555   5.914  16.114 -0.0706  0.1521  0.9506
 2621TIP3    H129278   4.546   5.869  16.030 -1.3691 -0.7087  1.5311
 2621TIP3    H229279   4.516   5.853  16.178  0.7237  0.8725  2.1440
 2622TIP3   OH229280   1.482   4.398  16.542 -0.4010  0.0683  0.2830
 2622TIP3    H129281   1.567   4.354  16.538 -0.2137  0.4415  0.1102
 2622TIP3    H229282   1.496   4.472  16.601 -1.0114 -0.7400  1.4318
 2623TIP3   OH229283   1.492   4.808  15.112 -0.2430 -0.1288 -0.0556
 2623TIP3    H129284   1.538   4.801  15.196  1.9364  1.4104 -1.0693
 2623TIP3    H229285   1.402   4.782  15.131  0.0354  0.9344  2.9204
 2624TIP3   OH229286   5.140   0.691   6.059  0.1137  0.9890 -0.6110
 2624TIP3    H129287   5.105   0.773   6.093 -0.6826  0.9281 -1.2585
 2624TIP3    H229288   5.191   0.654   6.132 -1.1168  1.1153  0.3296
 2625TIP3   OH229289   6.276   3.669  11.001 -0.3349  0.2735 -0.1080
 2625TIP3    H129290   6.233   3.597  11.046 -1.2016  1.7030  1.4289
 2625TIP3    H229291   6.205   3.716  10.958 -0.2845  2.1858  1.7779
 2626TIP3   OH229292   4.821   0.201   0.130 -0.0576  0.3389 -0.1357
 2626TIP3    H129293   4.773   0.122   0.155  0.1193  0.7684  1.6176
 2626TIP3    H229294   4.863   0.230   0.211  0.3690  1.8923 -0.8997
 2627TIP3   OH229295   3.998   5.483  15.152 -0.1776  0.1210  0.1274
 2627TIP3    H129296   4.019   5.540  15.077 -2.0330 -0.5652 -0.9492
 2627TIP3    H229297   3.905   5.501  15.170 -0.7019 -2.2511  0.0084
 2628TIP3   OH229298   5.196   6.089   1.448  0.1721 -0.0811 -0.4333
 2628TIP3    H129299   5.249   6.157   1.408  0.2959  0.3313  0.4104
 2628TIP3    H229300   5.173   6.030   1.376 -0.4309  1.1586 -1.2731
 2629TIP3   OH229301   6.431   1.834   2.361  0.2464  0.4958 -0.2814
 2629TIP3    H129302   6.381   1.906   2.323  0.8838  1.4987  0.7483
 2629TIP3    H229303   6.503   1.877   2.408  0.2581 -0.7719  0.8945
 2630TIP3   OH229304   0.250   0.986   4.093 -0.0540  0.7538 -0.5192
 2630TIP3    H129305   0.224   0.900   4.060  2.1847 -0.0376 -0.3079
 2630TIP3    H229306   0.311   1.020   4.027  2.2309  0.3835  1.3272
 2631TIP3   OH229307   2.510   6.705  17.090 -0.8773  0.1575  0.3706
 2631TIP3    H129308   2.489   6.626  17.140  0.1273 -0.2442  0.1746
 2631TIP3    H229309   2.563   6.758  17.150 -0.0470 -0.1235 -0.1028
 2632TIP3   OH229310   3.076   2.497   0.446  0.2509  0.4684  0.3517
 2632TIP3    H129311   2.993   2.451   0.460  0.8530 -0.1444  2.0472
 2632TIP3    H229312   3.084   2.556   0.522  1.3224  0.5797  0.1601
 2633TIP3   OH229313   5.247   4.501  14.149 -0.9730 -0.7441 -0.3300
 2633TIP3    H129314   5.313   4.439  14.121  0.6759  0.1095  1.5772
 2633TIP3    H229315   5.234   4.558  14.073  0.5896 -0.8219 -0.6589
 2634TIP3   OH229316   3.134   4.756  15.191 -0.0918  0.3251  0.3596
 2634TIP3    H129317   3.122   4.727  15.281 -0.7819 -0.9517 -0.1335
 2634TIP3    H229318   3.217   4.716  15.164 -1.1101 -1.3569 -0.3640
 2635TIP3   OH229319   2.663   6.142  16.194  0.0113  0.4412  0.3391
 2635TIP3    H129320   2.745   6.119  16.237 -0.1799  0.8252  0.9216
 2635TIP3    H229321   2.628   6.214  16.247 -1.2866 -0.5102  0.8027
 2636TIP3   OH229322   3.569   4.805  11.424  0.0390  0.0209 -0.0164
 2636TIP3    H129323   3.535   4.736  11.367  0.2995 -0.5140  0.4686
 2636TIP3    H229324   3.628   4.855  11.368  0.1310 -0.3725 -0.2750
 2637TIP3   OH229325   3.362   3.214   3.408 -0.9767  0.4588  0.1085
 2637TIP3    H129326   3.343   3.307   3.406  0.6891  0.7996 -0.6370
 2637TIP3    H229327   3.362   3.187   3.316 -2.5246 -0.5245  0.3658
 2638TIP3   OH229328   5.105   2.210   1.669 -0.5082  0.4318 -0.6686
 2638TIP3    H129329   5.041   2.282   1.674 -1.3407 -0.2583 -1.2487
 2638TIP3    H229330   5.075   2.146   1.734 -1.0665 -0.4045 -1.7326
 2639TIP3   OH229331   5.409   4.270  14.077  0.1827 -0.6468  0.3247
 2639TIP3    H129332   5.491   4.312  14.103 -0.1770  0.0678  0.3153
 2639TIP3    H229333   5.398   4.199  14.140 -0.7488  1.1474  2.2367
 2640TIP3   OH229334   5.776   5.257   5.732 -0.6387 -0.0985  0.3512
 2640TIP3    H129335   5.735   5.177   5.700 -2.1595  0.2963  1.2307
 2640TIP3    H229336   5.764   5.253   5.827 -0.0283  0.7940  0.4744
 2641TIP3   OH229337   0.711   4.656   2.954  0.5004  0.9822 -0.0451
 2641TIP3    H129338   0.632   4.645   2.901  1.4948 -0.3763 -1.3170
 2641TIP3    H229339   0.710   4.747   2.982 -1.1465  1.1519 -0.6370
 2642TIP3   OH229340   3.651   3.488   1.451 -0.1359 -0.1310 -0.1431
 2642TIP3    H129341   3.724   3.438   1.416 -1.9581 -1.0978 -2.7780
 2642TIP3    H229342   3.654   3.571   1.403 -1.0795 -0.3890 -0.6518
 2643TIP3   OH229343   0.988   4.720   1.331  0.4367 -0.1800 -0.1122
 2643TIP3    H129344   0.895   4.717   1.352  0.3579  0.8714 -0.2481
 2643TIP3    H229345   1.029   4.762   1.407  0.7630 -0.4151 -0.1541
 2644TIP3   OH229346   2.175   2.252  14.458  0.5818 -0.0866  0.7308
 2644TIP3    H129347   2.222   2.251  14.541  2.6503 -2.3463 -0.4061
 2644TIP3    H229348   2.244   2.259  14.391 -0.8630 -0.7983 -0.8850
 2645TIP3   OH229349   3.056   2.129  15.855 -0.0471  0.0210  0.3765
 2645TIP3    H129350   3.035   2.220  15.873 -0.7118  0.0780 -0.7069
 2645TIP3    H229351   3.146   2.119  15.887  0.2490  1.2080 -0.0599
 2646TIP3   OH229352   2.190   2.566   6.233  0.1810 -0.0355  0.1835
 2646TIP3    H129353   2.246   2.489   6.222  0.1512  0.0654 -0.6358
 2646TIP3    H229354   2.241   2.624   6.290 -0.1935 -1.0635  1.5971
 2647TIP3   OH229355   5.794   0.743  15.255 -0.3772 -0.6201 -0.0306
 2647TIP3    H129356   5.779   0.678  15.323 -0.3731 -1.7263 -1.0814
 2647TIP3    H229357   5.858   0.804  15.293 -1.2138 -0.5953  1.3581
 2648TIP3   OH229358   1.048   4.005  12.060 -0.6281  0.6930  0.0854
 2648TIP3    H129359   1.059   3.975  11.970 -0.4462  0.0814  0.3093
 2648TIP3    H229360   0.969   4.060  12.057 -1.5530 -0.6184 -0.1309
 2649TIP3   OH229361   1.799   4.656   0.727 -0.2722  0.4001  0.3177
 2649TIP3    H129362   1.738   4.583   0.740  1.0666 -1.0439 -1.2941
 2649TIP3    H229363   1.743   4.734   0.729 -1.8951 -0.7458  0.9084
 2650TIP3   OH229364   0.192   1.610  14.986  0.3664 -0.2641  0.2026
 2650TIP3    H129365   0.269   1.661  15.010 -0.9799  0.7830  2.4526
 2650TIP3    H229366   0.127   1.675  14.961  0.2579 -1.1577 -2.0003
 2651TIP3   OH229367   0.020   1.650   6.122  0.3128 -0.0751 -0.2874
 2651TIP3    H129368  -0.046   1.646   6.192 -1.4030 -0.4117 -1.9017
 2651TIP3    H229369   0.014   1.740   6.089  0.3903 -0.2144 -0.6808
 2652TIP3   OH229370   3.856   5.741   0.072  0.2393 -0.3458  0.7415
 2652TIP3    H129371   3.869   5.832   0.098 -0.0358  0.0400 -0.4081
 2652TIP3    H229372   3.833   5.747  -0.021 -0.9426 -1.5075  0.9597
 2653TIP3   OH229373   2.208   5.897  12.971  0.0555 -0.4223  0.1621
 2653TIP3    H129374   2.151   5.824  12.947  1.8045 -1.7822  0.0134
 2653TIP3    H229375   2.244   5.928  12.887  0.4084 -0.3078  0.3548
 2654TIP3   OH229376   4.256   6.006  15.497 -0.9388 -0.3561  0.0668
 2654TIP3    H129377   4.308   5.985  15.574  0.0563  3.0357  0.3948
 2654TIP3    H229378   4.318   6.004  15.424 -1.4972 -1.7294 -0.3787
 2655TIP3   OH229379   4.690   1.019   5.168  0.0597  0.4450 -0.7074
 2655TIP3    H129380   4.739   1.101   5.165  0.1196  0.3874 -1.5477
 2655TIP3    H229381   4.758   0.951   5.172  0.0219  0.4168 -0.5603
 2656TIP3   OH229382   5.327   5.651   4.488 -0.3122 -0.4222  0.2761
 2656TIP3    H129383   5.398   5.675   4.547 -2.1993  1.3940  1.8775
 2656TIP3    H229384   5.288   5.573   4.526 -1.8624  1.0486  1.7818
 2657TIP3   OH229385   6.682   1.306  17.236  0.0547  0.4334  0.2600
 2657TIP3    H129386   6.597   1.302  17.280  0.2970  0.2724  0.7224
 2657TIP3    H229387   6.730   1.231  17.270 -0.4004 -0.7534 -1.6848
 2658TIP3   OH229388   4.594   4.114   0.163 -0.2092  0.0088 -0.3986
 2658TIP3    H129389   4.583   4.187   0.225 -0.3053 -2.1363  2.2231
 2658TIP3    H229390   4.686   4.119   0.137 -0.1865  1.0037 -0.1632
 2659TIP3   OH229391   0.416   1.635  14.612  0.1220 -0.0341  0.3644
 2659TIP3    H129392   0.404   1.678  14.528  0.3024 -2.3251 -0.8498
 2659TIP3    H229393   0.397   1.704  14.677  0.1544  1.7826 -1.5105
 2660TIP3   OH229394   1.112   1.128   6.193  0.5196 -0.0798 -0.4761
 2660TIP3    H129395   1.149   1.144   6.280  1.5348  0.3936 -0.9859
 2660TIP3    H229396   1.033   1.183   6.190  0.7422  0.2687 -0.0323
 2661TIP3   OH229397   1.454   3.036  15.937 -0.1520 -0.9050  0.6296
 2661TIP3    H129398   1.514   2.962  15.928 -1.8291 -2.1496 -0.5090
 2661TIP3    H229399   1.438   3.042  16.031  1.7019 -0.5715  0.9563
 2662TIP3   OH229400   3.530   6.760   5.259  0.1607 -0.0433  0.5106
 2662TIP3    H129401   3.501   6.689   5.317 -0.4040  0.5681  0.9916
 2662TIP3    H229402   3.456   6.822   5.259 -0.2987 -0.5553 -1.7419
 2663TIP3   OH229403   5.872   0.460   4.846  0.3697 -0.1478  0.5289
 2663TIP3    H129404   5.891   0.553   4.834 -0.2566 -0.1026 -0.0793
 2663TIP3    H229405   5.790   0.459   4.896  0.0047 -0.3787 -0.0770
 2664TIP3   OH229406   0.980   0.827  16.314 -0.0017 -0.4327 -0.4238
 2664TIP3    H129407   0.976   0.754  16.251 -0.3733 -2.0585  1.4332
 2664TIP3    H229408   1.071   0.827  16.344 -0.3073 -0.9682  0.5216
 2665TIP3   OH229409   0.190   5.596   1.013 -0.3688 -0.3331  0.3677
 2665TIP3    H129410   0.270   5.557   0.978 -1.0078  0.7339 -2.4402
 2665TIP3    H229411   0.215   5.684   1.041 -0.3673 -0.3282  0.3503
 2666TIP3   OH229412   5.591   4.686  16.414  0.1616 -0.5493  0.4273
 2666TIP3    H129413   5.607   4.693  16.509 -1.4115 -1.2629  0.7480
 2666TIP3    H229414   5.647   4.754  16.376  0.0514  0.4211  1.9442
 2667TIP3   OH229415   4.391   3.590   2.876 -0.2092 -0.1325 -0.4467
 2667TIP3    H129416   4.390   3.569   2.969  0.3324  0.1763 -0.3670
 2667TIP3    H229417   4.484   3.601   2.855 -0.3521  0.1586 -0.9407
 2668TIP3   OH229418   5.206   5.579   3.531  0.6278  0.3537 -0.4516
 2668TIP3    H129419   5.242   5.661   3.497 -0.1425  1.3295  1.0161
 2668TIP3    H229420   5.149   5.606   3.603 -1.2122 -1.3398 -1.2377
 2669TIP3   OH229421   2.722   4.752   4.106 -0.0328 -0.4668 -0.3229
 2669TIP3    H129422   2.787   4.683   4.095 -0.3334 -1.0306  1.2949
 2669TIP3    H229423   2.769   4.823   4.149  0.0885  0.0511 -1.3008
 2670TIP3   OH229424   6.205   5.927   2.019 -0.1041 -0.1982  0.3070
 2670TIP3    H129425   6.146   5.854   2.039  0.7787 -0.7536  0.8962
 2670TIP3    H229426   6.288   5.903   2.060  1.2218 -0.5248 -2.4121
 2671TIP3   OH229427   6.581   3.628  11.168 -0.8730 -0.1485 -0.1602
 2671TIP3    H129428   6.617   3.621  11.080 -0.8325 -1.8821 -0.0275
 2671TIP3    H229429   6.651   3.596  11.226 -1.3827 -0.2964  0.3851
 2672TIP3   OH229430   4.824   5.435   3.796  0.2213 -0.1078 -0.3973
 2672TIP3    H129431   4.745   5.475   3.832  0.3282 -0.7290  0.5473
 2672TIP3    H229432   4.849   5.369   3.861  1.0486 -0.4784 -1.0858
 2673TIP3   OH229433   6.781   6.519  12.493  0.0792 -0.2988 -0.4017
 2673TIP3    H129434   6.775   6.507  12.398  0.9177 -1.3522 -0.3280
 2673TIP3    H229435   6.788   6.431  12.528 -0.2060  0.0885  0.6517
 2674TIP3   OH229436   1.851   0.732   5.150 -0.0354 -0.0581  0.0140
 2674TIP3    H129437   1.827   0.800   5.212  2.8618 -0.7682  2.0010
 2674TIP3    H229438   1.892   0.779   5.077 -0.2467  0.5229  0.2709
 2675TIP3   OH229439   2.580   0.750   0.484  0.0875  0.6000  1.0320
 2675TIP3    H129440   2.607   0.756   0.392  1.4625 -0.2831  1.3607
 2675TIP3    H229441   2.497   0.703   0.482  0.4797 -0.0754  0.2853
 2676TIP3   OH229442   1.253   4.834   0.369  0.1207  0.6421 -0.1128
 2676TIP3    H129443   1.225   4.843   0.277  1.6007  0.7789 -0.5661
 2676TIP3    H229444   1.310   4.909   0.384  1.1145 -0.2210  0.4580
 2677TIP3   OH229445   5.734   1.193  15.112 -0.3980 -0.1109  0.0345
 2677TIP3    H129446   5.704   1.284  15.115 -0.4359 -0.0733 -1.2641
 2677TIP3    H229447   5.727   1.169  15.020 -1.5369 -1.8095  0.5407
 2678TIP3   OH229448   5.292   4.569  14.906  0.3004  0.0360  0.0502
 2678TIP3    H129449   5.352   4.501  14.875  1.3251  0.4991  0.9754
 2678TIP3    H229450   5.240   4.592  14.829  0.6387 -1.0669 -0.5217
 2679TIP3   OH229451   4.341   2.130  11.368  0.1840  0.0613  0.1720
 2679TIP3    H129452   4.327   2.155  11.277  3.4869  2.1629  0.1656
 2679TIP3    H229453   4.258   2.150  11.411 -0.5558  1.5519 -1.8602
 2680TIP3   OH229454   3.162   1.000   3.384  0.2432 -0.1229  0.4436
 2680TIP3    H129455   3.186   1.022   3.474 -0.1299  0.8759  0.3039
 2680TIP3    H229456   3.095   1.063   3.361  0.9679  0.1948 -0.8445
 2681TIP3   OH229457   1.374   0.587   1.710  0.1938 -0.3642 -0.3069
 2681TIP3    H129458   1.290   0.611   1.670  0.1323  1.5927  0.9045
 2681TIP3    H229459   1.440   0.630   1.655  0.2224  0.4962  0.3791
 2682TIP3   OH229460   5.220   3.325  15.020 -0.7641 -0.6641 -0.3833
 2682TIP3    H129461   5.190   3.334  14.929 -0.9361 -1.1640 -0.3734
 2682TIP3    H229462   5.314   3.341  15.015 -1.1618  2.0512 -0.2473
 2683TIP3   OH229463   5.068   2.882  15.552  0.9172 -0.3424  0.2759
 2683TIP3    H129464   4.999   2.947  15.562  1.1692 -0.3211  1.9576
 2683TIP3    H229465   5.048   2.839  15.469 -1.2920 -0.5375  0.8769
 2684TIP3   OH229466   0.806   5.784  17.124 -0.1236  0.0649 -0.2063
 2684TIP3    H129467   0.889   5.824  17.146  1.0004 -1.1389 -2.0708
 2684TIP3    H229468   0.782   5.822  17.039 -1.2664  0.0942  0.1111
 2685TIP3   OH229469   5.743   5.405   0.434  0.0289 -0.1822 -0.2353
 2685TIP3    H129470   5.740   5.325   0.380  1.0319  0.0318 -0.6062
 2685TIP3    H229471   5.743   5.476   0.370 -0.0933  0.1031  0.0853
 2686TIP3   OH229472   2.807   2.436   5.673 -0.2677 -0.0622 -0.3270
 2686TIP3    H129473   2.782   2.519   5.633  0.4234 -0.2683 -1.2092
 2686TIP3    H229474   2.903   2.440   5.678 -0.2028 -0.9885 -0.7817
 2687TIP3   OH229475   0.456   3.778   1.228  0.0821  0.0332 -0.3423
 2687TIP3    H129476   0.460   3.760   1.321 -0.6872  0.9809 -0.1160
 2687TIP3    H229477   0.544   3.807   1.205  0.4217 -0.7309 -0.0364
 2688TIP3   OH229478   0.239   6.145   5.045  0.5200 -0.1569 -0.0444
 2688TIP3    H129479   0.222   6.203   4.970 -2.5452 -2.3617 -1.1685
 2688TIP3    H229480   0.176   6.073   5.034  2.2449 -2.2090  2.8850
 2689TIP3   OH229481   3.144   1.058   0.873  0.2140  0.4546 -0.6560
 2689TIP3    H129482   3.186   0.994   0.930  0.0374  0.7541 -0.1872
 2689TIP3    H229483   3.109   1.124   0.933  0.1834  0.8613 -1.1206
 2690TIP3   OH229484   4.829   5.575  13.965  0.0614 -0.1800 -0.0682
 2690TIP3    H129485   4.879   5.644  13.921  1.0269  0.1064  1.4343
 2690TIP3    H229486   4.893   5.506  13.983  0.0929  0.4407  2.3973
 2691TIP3   OH229487   1.069   2.873  12.047 -0.1322  0.1493  0.8891
 2691TIP3    H129488   1.133   2.902  12.112 -0.9559  3.9157  0.1343
 2691TIP3    H229489   0.986   2.868  12.094 -0.4943  1.6617  0.4267
 2692TIP3   OH229490   5.664   2.896   4.295  0.4074 -0.2825  0.1769
 2692TIP3    H129491   5.699   2.807   4.292 -0.0809 -0.5159  1.0884
 2692TIP3    H229492   5.570   2.885   4.279  0.2966  0.0338  0.6090
 2693TIP3   OH229493   0.671   1.481   4.404 -0.2010 -0.0264  0.8078
 2693TIP3    H129494   0.751   1.429   4.405  0.4034  0.7753 -2.1263
 2693TIP3    H229495   0.601   1.417   4.410  0.5807 -1.0131 -0.4652
 2694TIP3   OH229496   0.233   3.422  16.371 -0.5857  0.4146 -0.2596
 2694TIP3    H129497   0.308   3.427  16.431 -1.0823  0.1871  0.3775
 2694TIP3    H229498   0.265   3.369  16.298 -0.4972 -0.6715  0.5654
 2695TIP3   OH229499   6.052   3.113   2.337 -0.3694  0.2424 -0.4154
 2695TIP3    H129500   6.123   3.055   2.361  0.5760  0.6813 -2.0537
 2695TIP3    H229501   6.062   3.189   2.395 -0.6633 -0.5237  0.6508
 2696TIP3   OH229502   2.065   2.966  14.256  0.1844  0.2913  0.1085
 2696TIP3    H129503   2.015   2.886  14.241  1.0617 -0.3826  0.7188
 2696TIP3    H229504   2.024   3.006  14.332 -0.4814  0.6168 -0.4119
 2697TIP3   OH229505   0.350   4.047   4.724 -0.0146  0.0340 -0.2128
 2697TIP3    H129506   0.374   4.066   4.633 -1.7841  0.8683 -0.5188
 2697TIP3    H229507   0.410   3.977   4.750  3.0530  2.2754 -0.8288
 2698TIP3   OH229508   1.093   4.860  12.825  0.6862 -0.6127  0.3259
 2698TIP3    H129509   1.059   4.866  12.735  0.8828 -0.7838  0.2403
 2698TIP3    H229510   1.100   4.951  12.853 -1.7044 -0.6270  1.0502
 2699TIP3   OH229511   0.358   1.458  14.131 -0.8794  0.0272  0.0282
 2699TIP3    H129512   0.402   1.535  14.094  0.0834 -1.2696 -1.5272
 2699TIP3    H229513   0.266   1.484  14.136 -0.4858  1.4772 -0.0023
 2700TIP3   OH229514   0.935   6.442  15.764  0.1225 -0.2090  0.2040
 2700TIP3    H129515   0.995   6.379  15.724 -1.4582 -2.4668  1.3109
 2700TIP3    H229516   0.991   6.515  15.790  2.0625 -1.3419 -0.6722
 2701TIP3   OH229517   5.314   1.958   5.001 -0.1078  0.3418 -0.5618
 2701TIP3    H129518   5.331   1.864   4.994  0.7794  0.5037 -0.6719
 2701TIP3    H229519   5.220   1.967   4.987 -0.2672 -0.5772 -0.0599
 2702TIP3   OH229520   3.915   5.817   5.998 -0.4275  0.5461 -0.4311
 2702TIP3    H129521   3.968   5.890   5.964  0.0062  0.4053 -0.0649
 2702TIP3    H229522   3.967   5.781   6.069 -0.6605 -0.1035 -0.5840
 2703TIP3   OH229523   3.474   1.237   5.792 -0.4356  0.1918  0.0387
 2703TIP3    H129524   3.449   1.225   5.884  0.5272 -0.5841  0.1973
 2703TIP3    H229525   3.393   1.221   5.744 -0.2741 -2.3530  0.5570
 2704TIP3   OH229526   3.312   4.301  11.446  0.4152  0.1500  0.1635
 2704TIP3    H129527   3.234   4.331  11.492  0.0979 -0.1302 -0.1905
 2704TIP3    H229528   3.358   4.244  11.508 -0.6446 -1.2208 -0.2895
 2705TIP3   OH229529   1.456   6.051   6.208  0.6180 -0.3318  0.3080
 2705TIP3    H129530   1.376   6.059   6.157  2.5065  0.5939 -2.6201
 2705TIP3    H229531   1.466   5.957   6.223  0.2032 -0.6508 -1.3287
 2706TIP3   OH229532   2.041   6.701   3.715 -0.0562 -0.3622  0.1092
 2706TIP3    H129533   2.130   6.736   3.716 -0.7734  1.5347 -0.0972
 2706TIP3    H229534   1.989   6.766   3.761 -1.6381 -0.6024 -1.2825
 2707TIP3   OH229535   3.461   2.651  16.196  0.1408 -0.3072  0.1764
 2707TIP3    H129536   3.429   2.731  16.155  1.6429  0.4171  0.3892
 2707TIP3    H229537   3.382   2.607  16.227 -0.9224 -0.3151 -2.4591
 2708TIP3   OH229538   6.653   5.111   5.871 -0.3949 -0.5971  0.3376
 2708TIP3    H129539   6.712   5.040   5.897  0.6067 -0.1377 -0.6091
 2708TIP3    H229540   6.565   5.075   5.883  0.1003 -2.4801 -1.3689
 2709TIP3   OH229541   0.204   1.563   4.144 -0.0154 -0.0493 -0.3412
 2709TIP3    H129542   0.259   1.548   4.067  1.1862  1.7829  0.1365
 2709TIP3    H229543   0.127   1.507   4.129  0.9414 -0.9577 -2.0754
 2710TIP3   OH229544   1.706   1.657  13.474  0.0890  0.0010  0.7539
 2710TIP3    H129545   1.705   1.653  13.570 -0.2990  1.7219  0.8498
 2710TIP3    H229546   1.750   1.740  13.455 -0.9002  0.2412 -0.5371
 2711TIP3   OH229547   6.176   0.097  16.731  0.6949 -0.3925  0.2111
 2711TIP3    H129548   6.127   0.160  16.679 -0.1280  0.4776  1.9793
 2711TIP3    H229549   6.268   0.119  16.715  0.4286  0.5151 -0.1032
 2712TIP3   OH229550   4.562   3.725   2.472  0.2593 -0.7838 -0.5608
 2712TIP3    H129551   4.563   3.632   2.495 -0.0415 -0.7948 -0.5894
 2712TIP3    H229552   4.644   3.738   2.424  2.2247 -0.1704  2.7760
 2713TIP3   OH229553   5.556   4.540   5.772  0.3840  0.0164  0.5575
 2713TIP3    H129554   5.597   4.546   5.858  0.1652  1.0869  0.6025
 2713TIP3    H229555   5.484   4.604   5.775  2.0743  2.0880 -1.3296
 2714TIP3   OH229556   4.954   1.476   0.787  0.2336 -0.2391  0.1905
 2714TIP3    H129557   5.046   1.454   0.776  0.7037  0.1638  2.9160
 2714TIP3    H229558   4.953   1.544   0.855 -1.9802  0.5958 -0.6110
 2715TIP3   OH229559   0.760   1.641  12.551  0.4504 -0.4219 -0.7426
 2715TIP3    H129560   0.711   1.668  12.473 -0.7313 -3.0923 -0.9500
 2715TIP3    H229561   0.702   1.663  12.624  0.5116 -0.1880 -0.7632
 2716TIP3   OH229562   5.652   3.506   2.919  0.2472 -0.1301 -0.2491
 2716TIP3    H129563   5.705   3.506   2.998 -2.0979 -1.8093  1.3895
 2716TIP3    H229564   5.587   3.575   2.933 -0.9912 -1.2888 -0.0785
 2717TIP3   OH229565   5.754   1.348   1.323 -0.5105  0.4032 -0.6083
 2717TIP3    H129566   5.731   1.374   1.233  0.0038  1.3005 -0.4848
 2717TIP3    H229567   5.716   1.417   1.378 -1.1532 -0.3491 -0.1101
 2718TIP3   OH229568   5.751   1.103   1.816  0.0545  0.2444  0.1331
 2718TIP3    H129569   5.779   1.014   1.835 -0.6878 -0.3962 -1.6887
 2718TIP3    H229570   5.657   1.104   1.834 -0.1576  0.3381 -0.9189
 2719TIP3   OH229571   5.153   4.135  15.450 -0.5303  0.3541 -0.4396
 2719TIP3    H129572   5.063   4.118  15.421 -0.1873 -3.0798  0.2556
 2719TIP3    H229573   5.206   4.078  15.395  0.6793 -1.7867  2.8069
 2720TIP3   OH229574   2.621   0.490  16.962 -0.1557 -0.2316 -0.3054
 2720TIP3    H129575   2.528   0.468  16.968 -0.1385 -0.4242 -0.7179
 2720TIP3    H229576   2.660   0.418  16.913  0.0503  0.3048 -0.9399
 2721TIP3   OH229577   0.675   4.807   0.659 -0.8241  0.1484 -0.6189
 2721TIP3    H129578   0.646   4.811   0.750  0.1047 -1.1975 -0.2525
 2721TIP3    H229579   0.759   4.763   0.662  0.0713  1.6936 -1.9638
 2722TIP3   OH229580   2.396   4.347  13.047  0.0033 -0.0474 -0.2160
 2722TIP3    H129581   2.326   4.357  12.983 -0.5681 -3.0950 -0.1564
 2722TIP3    H229582   2.477   4.348  12.995 -0.2735  0.2990 -0.6427
 2723TIP3   OH229583   1.351   2.039  14.726 -0.4046 -0.1094  0.1021
 2723TIP3    H129584   1.274   2.082  14.763 -0.6166 -0.2771 -0.1422
 2723TIP3    H229585   1.394   1.998  14.801 -0.5962 -0.0808  0.2271
 2724TIP3   OH229586   2.295   2.253  14.709 -0.5345  0.1383 -0.0887
 2724TIP3    H129587   2.330   2.303  14.782  1.2919 -0.4207 -0.5521
 2724TIP3    H229588   2.237   2.189  14.749  0.7025 -0.3741  0.9074
 2725TIP3   OH229589   2.110   6.580   3.977 -0.1103  0.6884  0.3782
 2725TIP3    H129590   2.160   6.501   3.955  1.1831  1.7689 -0.7160
 2725TIP3    H229591   2.068   6.605   3.895  0.3639  1.7330  0.4447
 2726TIP3   OH229592   2.500   2.568   2.566  0.1489  0.4497 -0.4926
 2726TIP3    H129593   2.542   2.501   2.620  0.6317  0.8812 -0.3288
 2726TIP3    H229594   2.415   2.531   2.544  1.1209 -1.0222 -1.9559
 2727TIP3   OH229595   0.813   4.425  14.689  0.3577 -0.0304  0.4101
 2727TIP3    H129596   0.747   4.494  14.692  0.6160  0.2226  0.2629
 2727TIP3    H229597   0.839   4.419  14.597  1.3987  0.6924  0.6373
 2728TIP3   OH229598   6.563   1.190   2.403  0.2925 -0.0365  0.3278
 2728TIP3    H129599   6.540   1.260   2.342  2.8240 -0.2442 -0.9376
 2728TIP3    H229600   6.547   1.227   2.489 -2.0703  0.7399 -0.4107
 2729TIP3   OH229601   0.539   4.678  11.370 -0.4257  0.0283  0.0089
 2729TIP3    H129602   0.620   4.640  11.337  0.2193  0.0539  1.4896
 2729TIP3    H229603   0.473   4.658  11.304  0.2687 -2.1415 -0.0533
 2730TIP3   OH229604   5.631   2.009  11.560  0.1852  0.1301  0.3519
 2730TIP3    H129605   5.658   1.953  11.633 -2.6896  0.4041  1.6928
 2730TIP3    H229606   5.600   1.948  11.493  1.9786 -0.0798 -0.3084
 2731TIP3   OH229607   1.846   4.937  14.806  0.2857 -0.1219  0.5986
 2731TIP3    H129608   1.760   4.952  14.846  0.0701 -1.4259  0.6431
 2731TIP3    H229609   1.907   4.935  14.880  0.5419  1.8875  0.4908
 2732TIP3   OH229610   1.151   2.739   3.221 -0.2797  0.0774 -0.1230
 2732TIP3    H129611   1.104   2.739   3.305  1.3324 -2.7023  0.8504
 2732TIP3    H229612   1.098   2.683   3.164  0.6299 -1.2215  0.2810
 2733TIP3   OH229613   4.147   6.749  17.064 -0.1044 -0.1021  0.7131
 2733TIP3    H129614   4.209   6.681  17.038 -0.3769 -0.5301  1.1707
 2733TIP3    H229615   4.064   6.721  17.027 -0.2102 -0.0029  0.8751
 2734TIP3   OH229616   3.689   5.670  15.996 -1.0133  0.2760  0.0587
 2734TIP3    H129617   3.747   5.615  16.049  0.5331 -1.2604 -3.0387
 2734TIP3    H229618   3.711   5.760  16.022 -1.6062 -0.4341  3.2250
 2735TIP3   OH229619   6.120   5.993  15.672  0.6571  0.0829 -0.2087
 2735TIP3    H129620   6.037   5.962  15.708  0.5443  1.0104  0.3477
 2735TIP3    H229621   6.103   6.002  15.578 -0.5183  2.2277  0.1789
 2736TIP3   OH229622   5.886   2.876   4.985  0.3807  0.2886  0.0679
 2736TIP3    H129623   5.930   2.804   4.939  0.7021  1.7286 -1.9534
 2736TIP3    H229624   5.839   2.833   5.057 -1.1679 -2.2553 -2.3397
 2737TIP3   OH229625   5.074   3.687  10.646  0.6357 -0.4423  0.2616
 2737TIP3    H129626   5.118   3.630  10.583  0.5680  0.4558 -0.6177
 2737TIP3    H229627   5.062   3.770  10.599 -3.0899 -1.0318  0.0361
 2738TIP3   OH229628   3.957   6.109   1.898  0.3128  0.5242  0.3387
 2738TIP3    H129629   3.896   6.167   1.942 -0.5154  0.9121 -1.2703
 2738TIP3    H229630   3.903   6.037   1.866  0.8984  0.2366 -0.0041
 2739TIP3   OH229631   2.098   5.579  11.758  0.0657  0.6357 -0.5545
 2739TIP3    H129632   2.050   5.660  11.774  0.3838  0.8096 -0.4659
 2739TIP3    H229633   2.066   5.518  11.824 -0.4094  0.5921 -0.8288
 2740TIP3   OH229634   6.650   2.379  15.746 -0.9460  0.2273 -0.3423
 2740TIP3    H129635   6.715   2.329  15.697 -0.4419 -0.0593  0.5970
 2740TIP3    H229636   6.624   2.450  15.687  0.1307  0.2833 -0.7664
 2741TIP3   OH229637   4.573   4.321  16.702  0.2084  0.0012 -0.4122
 2741TIP3    H129638   4.547   4.243  16.654 -0.1994  0.5997 -1.1678
 2741TIP3    H229639   4.665   4.304  16.726  0.0638 -0.7858 -0.3892
 2742TIP3   OH229640   1.056   0.396   0.281  0.0145 -0.7127 -0.2632
 2742TIP3    H129641   0.992   0.462   0.307  0.0601 -1.3691  1.5308
 2742TIP3    H229642   1.048   0.392   0.185 -2.4298 -0.6112 -0.0993
 2743TIP3   OH229643   5.505   5.386  11.180 -0.1694  0.4089 -0.1429
 2743TIP3    H129644   5.416   5.399  11.150 -0.0948 -0.1078 -0.5965
 2743TIP3    H229645   5.549   5.343  11.107  0.2646  0.0184  0.3418
 2744TIP3   OH229646   5.448   2.478   2.665 -0.0747  0.1662 -0.2808
 2744TIP3    H129647   5.509   2.477   2.738  0.7430 -1.4362 -0.9504
 2744TIP3    H229648   5.502   2.457   2.588 -0.5692  3.4866 -1.6526
 2745TIP3   OH229649   2.789   1.715   2.626 -0.1034 -0.2627 -0.0911
 2745TIP3    H129650   2.880   1.685   2.623  0.0761  0.2856 -0.1950
 2745TIP3    H229651   2.790   1.800   2.582 -0.5474  0.0467  0.4882
 2746TIP3   OH229652   1.381   1.621   1.833  0.3247 -0.1451 -0.2366
 2746TIP3    H129653   1.476   1.615   1.829  0.3572  0.7604 -1.1249
 2746TIP3    H229654   1.350   1.551   1.775  0.4430 -0.3780 -0.0214
 2747TIP3   OH229655   5.035   5.358   2.509 -0.2238 -0.4228 -0.1616
 2747TIP3    H129656   5.109   5.319   2.556 -1.7917 -0.4298  2.4244
 2747TIP3    H229657   5.030   5.447   2.543 -2.1293 -0.8053  0.6430
 2748TIP3   OH229658   3.750   2.580   5.506 -0.4129 -0.3837  0.4173
 2748TIP3    H129659   3.764   2.492   5.472 -1.6164 -0.7485  0.8497
 2748TIP3    H229660   3.703   2.626   5.437  1.3634  0.3407 -0.3505
 2749TIP3   OH229661   6.711   5.125   3.287 -0.0743  0.5225 -0.1901
 2749TIP3    H129662   6.743   5.045   3.328 -1.8856 -1.1122 -1.8492
 2749TIP3    H229663   6.657   5.167   3.353 -0.5642 -0.5429  0.0820
 2750TIP3   OH229664   1.580   5.101  10.894 -0.7749 -0.2098  0.1351
 2750TIP3    H129665   1.627   5.057  10.965 -0.8524  0.3386  0.5324
 2750TIP3    H229666   1.488   5.075  10.907 -0.3741 -2.5368 -1.5736
 2751TIP3   OH229667   6.420   5.654   4.279 -0.1410  0.6145 -0.4597
 2751TIP3    H129668   6.358   5.673   4.349 -0.0718  0.5170 -0.3720
 2751TIP3    H229669   6.429   5.737   4.232  0.3943  0.8944  0.1148
 2752TIP3   OH229670   1.914   0.871  11.726  0.4805  0.6594  0.1156
 2752TIP3    H129671   1.823   0.874  11.697 -0.3109 -1.3845  2.2563
 2752TIP3    H229672   1.942   0.962  11.726 -1.8237  1.4064  0.2252
 2753TIP3   OH229673   6.668   1.204   5.729  0.2112  0.1757  0.0413
 2753TIP3    H129674   6.750   1.249   5.709  0.6326 -0.9606 -0.8173
 2753TIP3    H229675   6.693   1.133   5.789 -0.3224  0.5435  0.7121
 2754TIP3   OH229676   6.434   2.352   0.011  0.0769 -0.8923  0.0516
 2754TIP3    H129677   6.410   2.425  -0.046  1.3952 -2.4060 -2.5471
 2754TIP3    H229678   6.366   2.287  -0.005 -1.9756  0.2820  3.5360
 2755TIP3   OH229679   3.147   6.714   0.614 -0.1999  0.0576 -0.1847
 2755TIP3    H129680   3.065   6.679   0.580 -1.3830  2.1917  0.4036
 2755TIP3    H229681   3.139   6.808   0.605  1.1741  0.4428  2.1905
 2756TIP3   OH229682   2.476   3.211  13.367 -0.4370  0.2336 -0.5877
 2756TIP3    H129683   2.418   3.230  13.441  0.3810  0.4833  0.0004
 2756TIP3    H229684   2.479   3.294  13.318 -1.2862 -0.0442 -1.1289
 2757TIP3   OH229685   0.110   5.359   3.647  0.4107  0.0878 -0.0085
 2757TIP3    H129686   0.172   5.430   3.635 -0.2401  0.7812  0.6076
 2757TIP3    H229687   0.163   5.284   3.675  1.2124  0.0472 -1.5899
 2758TIP3   OH229688   5.264   1.516   5.803  0.1836  1.1209 -0.0632
 2758TIP3    H129689   5.309   1.466   5.871 -1.5477  0.0131  0.3159
 2758TIP3    H229690   5.208   1.576   5.852  0.2562  1.5520 -0.5131
 2759TIP3   OH229691   6.443   1.554   5.426  0.0714  0.0123 -0.5461
 2759TIP3    H129692   6.517   1.587   5.375  0.8676  0.5799  0.9318
 2759TIP3    H229693   6.484   1.500   5.494 -0.8128  0.9587  0.7514
 2760TIP3   OH229694   6.623   5.306   4.919 -0.0965 -0.2660  0.1915
 2760TIP3    H129695   6.639   5.282   4.828  2.5695  0.3116  0.4641
 2760TIP3    H229696   6.552   5.370   4.916  0.0437 -0.1776 -1.4726
 2761TIP3   OH229697   5.293   5.820   5.968  0.3758  0.4651  0.7649
 2761TIP3    H129698   5.366   5.814   5.906  0.7216 -1.8202  1.3612
 2761TIP3    H229699   5.334   5.849   6.050  0.7596 -1.5376  1.3012
 2762TIP3   OH229700   4.825   2.035  12.180 -0.3533 -0.1878 -0.1421
 2762TIP3    H129701   4.861   1.949  12.161 -1.5499 -0.5500 -0.7902
 2762TIP3    H229702   4.885   2.096  12.137  1.2858 -0.5949  1.4869
 2763TIP3   OH229703   4.044   5.878   3.235  0.2756 -0.1374  0.4372
 2763TIP3    H129704   4.031   5.786   3.214  0.3168  0.1909 -1.0989
 2763TIP3    H229705   3.957   5.910   3.259 -0.1037 -0.1289 -0.9038
 2764TIP3   OH229706   4.309   4.318  14.991  0.5895  0.5497 -0.2476
 2764TIP3    H129707   4.271   4.387  14.937  0.4279  0.1862 -0.5941
 2764TIP3    H229708   4.403   4.323  14.974  0.4712  0.0123 -1.0434
 2765TIP3   OH229709   1.779   4.113  15.298  0.1842  0.2363 -0.0726
 2765TIP3    H129710   1.751   4.204  15.310  0.2492  0.2561 -0.0734
 2765TIP3    H229711   1.852   4.102  15.358 -2.2849 -0.9622  2.8469
 2766TIP3   OH229712   3.325   0.752  11.671  0.0894  0.4938 -0.3506
 2766TIP3    H129713   3.300   0.697  11.597 -3.5345  0.3798  0.8563
 2766TIP3    H229714   3.322   0.841  11.637  0.0603  0.3352 -0.7675
 2767TIP3   OH229715   2.504   4.116   5.243  0.6113 -0.2114  0.5005
 2767TIP3    H129716   2.476   4.179   5.310  1.5580  0.0227  0.6837
 2767TIP3    H229717   2.547   4.046   5.292 -1.9180 -1.8834  0.4608
 2768TIP3   OH229718   4.861   2.208   0.442  0.3746  0.4592 -0.4370
 2768TIP3    H129719   4.833   2.265   0.514  0.5081  2.9302 -2.2760
 2768TIP3    H229720   4.954   2.192   0.458  0.2197  0.3490  0.3624
 2769TIP3   OH229721   3.297   0.067  16.807 -0.2164 -0.2135 -0.2511
 2769TIP3    H129722   3.203   0.070  16.819 -0.4842 -0.9289 -1.9776
 2769TIP3    H229723   3.332   0.034  16.890 -1.5622 -0.9092  0.0421
 2770TIP3   OH229724   2.365   5.208   0.249 -0.5869  0.0787  0.0913
 2770TIP3    H129725   2.388   5.229   0.159 -3.2714 -1.1328 -0.9378
 2770TIP3    H229726   2.309   5.130   0.242  0.4739 -0.9979  2.9272
 2771TIP3   OH229727   0.092   3.057   4.882  0.0297  0.3551  0.3005
 2771TIP3    H129728   0.178   3.025   4.853  0.5543  0.5948  1.5176
 2771TIP3    H229729   0.108   3.148   4.906 -0.7930  0.6809 -0.3890
 2772TIP3   OH229730   0.793   3.429  13.735 -0.4037 -0.9536  0.1107
 2772TIP3    H129731   0.792   3.433  13.831 -0.9049 -0.2298  0.0778
 2772TIP3    H229732   0.731   3.359  13.713 -1.2986 -0.2090  0.2680
 2773TIP3   OH229733   4.906   4.697   1.840 -0.5867  1.0236 -0.1191
 2773TIP3    H129734   4.912   4.618   1.894 -1.1622  1.7480  1.0253
 2773TIP3    H229735   4.812   4.708   1.825 -0.4935  1.3804 -0.4318
 2774TIP3   OH229736   3.704   2.618   1.888 -0.0226  0.2743 -0.2767
 2774TIP3    H129737   3.783   2.609   1.942 -0.2188  0.0689 -0.0245
 2774TIP3    H229738   3.705   2.543   1.830  0.4674  0.7744 -0.9253
 2775TIP3   OH229739   6.443   0.219   1.064  0.3337 -0.7680 -0.6168
 2775TIP3    H129740   6.429   0.312   1.046  0.6891 -0.3605  1.1126
 2775TIP3    H229741   6.516   0.194   1.008  0.3773  0.0429 -0.9281
 2776TIP3   OH229742   1.879   3.063  15.410  0.2011 -0.2734  0.1866
 2776TIP3    H129743   1.841   3.118  15.479  1.0772  0.1500  0.3301
 2776TIP3    H229744   1.966   3.041  15.442  0.8361  0.4207 -1.0548
 2777TIP3   OH229745   3.936   6.757  13.142 -0.3130  0.4682 -0.0552
 2777TIP3    H129746   4.024   6.720  13.138 -0.5209 -0.1128  0.6389
 2777TIP3    H229747   3.945   6.834  13.198 -0.2413  0.4388 -0.0263
 2778TIP3   OH229748   2.967   3.942   4.870  0.2620 -0.4165  0.5533
 2778TIP3    H129749   2.935   4.029   4.894  0.2517 -0.6481  1.3734
 2778TIP3    H229750   2.891   3.899   4.830  0.2103 -0.1311  0.3416
 2779TIP3   OH229751   5.380   5.917   4.197 -0.3664 -0.0403 -0.2964
 2779TIP3    H129752   5.380   5.954   4.285 -0.9584  1.9882 -1.1217
 2779TIP3    H229753   5.303   5.859   4.195 -0.0036 -0.5764  0.6880
 2780TIP3   OH229754   6.190   5.842   3.047  0.1062 -0.0768  0.4762
 2780TIP3    H129755   6.153   5.782   3.111 -0.0650 -0.4301  0.0491
 2780TIP3    H229756   6.132   5.836   2.971  0.3578  0.2677  0.2515
 2781TIP3   OH229757   2.344   0.959  14.052  0.9919 -0.2183  0.4043
 2781TIP3    H129758   2.373   1.049  14.037 -0.8130  0.5143  1.1499
 2781TIP3    H229759   2.274   0.967  14.117 -1.0589 -1.8549 -1.5251
 2782TIP3   OH229760   3.810   2.039  12.707  0.2788  0.9004  0.1928
 2782TIP3    H129761   3.780   2.043  12.616  0.2807 -0.0357  0.1517
 2782TIP3    H229762   3.732   2.018  12.757  0.4112  0.7517  0.3371
 2783TIP3   OH229763   4.415   2.033   4.636 -0.4296  0.4982 -0.4401
 2783TIP3    H129764   4.373   2.118   4.620 -0.4710  1.3345  3.6588
 2783TIP3    H229765   4.342   1.971   4.642 -0.7825  1.1063  1.7881
 2784TIP3   OH229766   0.681   4.318  13.624 -0.0207 -0.0503  0.0829
 2784TIP3    H129767   0.726   4.267  13.691  1.1720 -0.2128 -0.8363
 2784TIP3    H229768   0.592   4.330  13.659  1.2219  1.8352  2.7391
 2785TIP3   OH229769   0.681   3.056   5.510  0.4325 -0.2099 -0.3572
 2785TIP3    H129770   0.592   3.088   5.493  1.2363  1.9046 -0.7147
 2785TIP3    H229771   0.709   3.020   5.426  0.4083  0.3809 -0.6264
 2786TIP3   OH229772   1.205   5.572   0.865  0.1447 -0.1504 -0.1714
 2786TIP3    H129773   1.145   5.604   0.932 -1.0114 -0.9804 -0.7737
 2786TIP3    H229774   1.281   5.630   0.869  0.0266 -0.1261  1.7441
 2787TIP3   OH229775   3.595   3.982  13.254  0.5569 -0.3432  0.0055
 2787TIP3    H129776   3.688   4.004  13.246  0.6123 -0.3795  0.5617
 2787TIP3    H229777   3.554   4.026  13.180  1.2534 -1.6661 -1.2033
 2788TIP3   OH229778   3.715   5.659   5.457  0.2152 -0.1093  0.1314
 2788TIP3    H129779   3.702   5.568   5.483 -3.0477 -0.4725 -2.3436
 2788TIP3    H229780   3.704   5.658   5.362 -0.1875  2.8810  0.0996
 2789TIP3   OH229781   4.200   4.284   5.474 -0.0485 -0.0424  0.2521
 2789TIP3    H129782   4.238   4.198   5.451  0.7458  0.4405 -0.2909
 2789TIP3    H229783   4.109   4.278   5.445  0.6071  0.1102 -1.9858
 2790TIP3   OH229784   2.590   3.777   6.066 -0.1025 -0.2428 -0.4972
 2790TIP3    H129785   2.660   3.799   6.128  0.9508 -0.7115 -1.5079
 2790TIP3    H229786   2.563   3.861   6.030 -0.4686 -0.0032  0.3065
 2791TIP3   OH229787   0.576   4.432   0.841 -0.0746 -0.3144  0.0392
 2791TIP3    H129788   0.658   4.471   0.870  0.3664 -0.6281 -0.7496
 2791TIP3    H229789   0.520   4.432   0.918  0.1183  1.3328  0.1845
 2792TIP3   OH229790   4.976   2.761  13.599  0.5122  0.7179 -0.3791
 2792TIP3    H129791   4.942   2.847  13.574 -2.1912 -0.2277 -0.1135
 2792TIP3    H229792   5.034   2.779  13.673 -1.0556  2.1749  0.5269
 2793TIP3   OH229793   6.090   3.673  11.622 -0.5851  0.1658 -0.3037
 2793TIP3    H129794   6.165   3.623  11.589 -1.1795 -0.5522 -0.5652
 2793TIP3    H229795   6.013   3.625  11.592 -1.1553  0.5782  0.4687
 2794TIP3   OH229796   5.524   5.952   0.571 -0.4101 -0.2484 -0.1941
 2794TIP3    H129797   5.548   5.903   0.492  1.9800  0.7665 -0.1150
 2794TIP3    H229798   5.484   6.032   0.538  2.0514  0.9252 -0.4555
 2795TIP3   OH229799   5.463   5.209  16.773  0.3517  0.1793  0.0104
 2795TIP3    H129800   5.388   5.220  16.715  0.8330 -2.2957 -1.1422
 2795TIP3    H229801   5.539   5.225  16.718  0.7650 -0.4641  0.3851
 2796TIP3   OH229802   0.357   1.987   1.759  0.2854 -0.4310  0.3739
 2796TIP3    H129803   0.390   1.898   1.746  1.3142 -0.0947  0.5929
 2796TIP3    H229804   0.340   2.020   1.671 -2.2265 -1.6039  0.3730
 2797TIP3   OH229805   6.768   1.667   3.971 -0.4545  0.1138 -0.1111
 2797TIP3    H129806   6.810   1.719   3.903 -0.8030  0.8668  0.2414
 2797TIP3    H229807   6.696   1.722   4.002 -0.1179 -0.1081  1.0660
 2798TIP3   OH229808   6.453   0.433   2.756  0.4595  0.0327 -0.7856
 2798TIP3    H129809   6.496   0.509   2.793  2.6080 -2.1858  1.5007
 2798TIP3    H229810   6.523   0.384   2.712 -0.9207 -0.5128 -2.4549
 2799TIP3   OH229811   2.960   4.222  15.403  0.6694  0.3919  0.2004
 2799TIP3    H129812   3.031   4.157  15.401  0.0316 -0.2948 -0.3620
 2799TIP3    H229813   2.910   4.206  15.323  1.3803  2.5675 -0.7269
 2800TIP3   OH229814   0.461   3.366  15.929  0.1736 -0.1873  0.2500
 2800TIP3    H129815   0.496   3.435  15.986 -0.3808  1.1149 -0.9432
 2800TIP3    H229816   0.445   3.411  15.846  1.1572 -2.1012 -0.9971
 2801TIP3   OH229817   0.025   0.615  12.184 -0.3231  0.4436  0.2095
 2801TIP3    H129818   0.064   0.592  12.269  0.3952 -0.4583 -0.3556
 2801TIP3    H229819  -0.063   0.576  12.187  0.3997 -1.2648 -0.2057
 2802TIP3   OH229820   5.694   1.267   3.892  0.8327  0.5647 -0.4180
 2802TIP3    H129821   5.785   1.272   3.865  1.1698 -0.9897  0.3868
 2802TIP3    H229822   5.671   1.175   3.881 -0.3656  0.7744  0.2659
 2803TIP3   OH229823   3.342   2.131  13.158  0.6175  0.2671 -0.1408
 2803TIP3    H129824   3.317   2.195  13.224 -0.3903  0.3838 -0.6196
 2803TIP3    H229825   3.272   2.136  13.092  0.0834 -1.8663  0.2006
 2804TIP3   OH229826   2.498   4.026   6.707 -0.6457  0.0248  0.1453
 2804TIP3    H129827   2.563   4.069   6.653  2.4956 -2.9449  1.3710
 2804TIP3    H229828   2.485   4.085   6.782 -1.5362  1.9436 -1.4837
 2805TIP3   OH229829   1.757   5.708  12.757  0.0592 -0.4855 -0.2976
 2805TIP3    H129830   1.705   5.630  12.776 -1.5400  0.9063  1.2352
 2805TIP3    H229831   1.811   5.721  12.835 -0.2136  0.3549 -0.2480
 2806TIP3   OH229832   5.871   0.064   5.279  0.1675 -0.3653 -0.0353
 2806TIP3    H129833   5.854  -0.016   5.329 -0.4434 -2.0537 -2.7964
 2806TIP3    H229834   5.833   0.046   5.193  1.6339  2.2275 -1.2791
 2807TIP3   OH229835   3.973   3.468  15.368 -0.2338 -0.5990  0.4288
 2807TIP3    H129836   3.947   3.549  15.324  3.2433  0.4989  0.2739
 2807TIP3    H229837   3.963   3.487  15.461 -3.2205 -1.4043  0.3439
 2808TIP3   OH229838   0.683   5.166  11.304  0.0035 -0.4848 -0.2410
 2808TIP3    H129839   0.658   5.232  11.239 -0.1858  0.1611  0.4815
 2808TIP3    H229840   0.600   5.138  11.343  0.2658  0.5478  1.0842
 2809TIP3   OH229841   4.333   1.286   6.468  0.2493  0.2799 -0.4133
 2809TIP3    H129842   4.277   1.296   6.545 -0.4947  0.9080 -1.0313
 2809TIP3    H229843   4.391   1.213   6.491  0.0276  0.4421  0.7326
 2810TIP3   OH229844   6.414   0.937  14.124  0.6514 -0.4357  0.5238
 2810TIP3    H129845   6.449   0.890  14.048  1.7696  1.6169 -0.2807
 2810TIP3    H229846   6.329   0.970  14.094  0.2817 -1.1250  0.7857
 2811TIP3   OH229847   1.750   0.515  13.282 -0.0136 -0.0086 -0.5427
 2811TIP3    H129848   1.802   0.462  13.343 -2.2033  0.7011  2.0419
 2811TIP3    H229849   1.703   0.577  13.338 -3.1719 -0.2307 -2.8089
 2812TIP3   OH229850   1.760   0.702  12.585  0.1360 -0.3944  0.0339
 2812TIP3    H129851   1.678   0.678  12.542  0.1204 -0.5084  0.1268
 2812TIP3    H229852   1.802   0.618  12.605  0.3494 -0.3343 -0.1576
 2813TIP3   OH229853   0.311   5.821   5.074 -0.6045  0.1344 -0.1683
 2813TIP3    H129854   0.233   5.873   5.056  0.3471  1.7110  0.0957
 2813TIP3    H229855   0.384   5.882   5.060  0.4789 -0.6819  1.6798
 2814TIP3   OH229856   4.223   0.083  13.946  0.3101 -0.1000 -0.0052
 2814TIP3    H129857   4.131   0.057  13.939 -0.3387  1.8112  0.8326
 2814TIP3    H229858   4.244   0.121  13.860  0.0228  0.3328  0.1155
 2815TIP3   OH229859   1.789   1.417  17.015  0.3614 -0.0069 -0.3791
 2815TIP3    H129860   1.844   1.443  17.089 -0.3176 -0.0654  0.1521
 2815TIP3    H229861   1.744   1.498  16.989  0.1384 -0.1155 -0.3354
 2816TIP3   OH229862   5.568   6.284  11.755  0.1277 -0.3223 -0.3583
 2816TIP3    H129863   5.528   6.199  11.736  1.1690 -1.2926  1.6516
 2816TIP3    H229864   5.661   6.271  11.736 -0.0542  1.1549 -2.4926
 2817TIP3   OH229865   0.699   6.268  14.693  0.2956  0.0824 -0.3488
 2817TIP3    H129866   0.718   6.350  14.649  1.3396 -0.2275 -0.4865
 2817TIP3    H229867   0.710   6.287  14.786  1.4555 -0.1265 -0.4329
 2818TIP3   OH229868   5.385   1.887  16.042 -0.2589 -0.2626  0.0182
 2818TIP3    H129869   5.403   1.797  16.012 -0.3817 -0.2421 -0.1158
 2818TIP3    H229870   5.320   1.876  16.111  0.3130 -0.3450  0.5548
 2819TIP3   OH229871   1.509   4.468   6.470  0.0298  0.2004  0.0139
 2819TIP3    H129872   1.546   4.495   6.554 -0.9529  1.2968  0.1129
 2819TIP3    H229873   1.432   4.416   6.493  0.5477 -0.6724 -0.2040
 2820TIP3   OH229874   4.364   5.615  10.999  0.5879 -0.5937  0.0198
 2820TIP3    H129875   4.277   5.631  11.034  0.2846  0.1473 -1.0614
 2820TIP3    H229876   4.404   5.702  10.993  2.0249 -1.0704  2.0714
 2821TIP3   OH229877   4.259   6.198   1.081 -0.2223 -0.3192  0.3459
 2821TIP3    H129878   4.203   6.125   1.106  0.7665 -1.3102 -0.3044
 2821TIP3    H229879   4.266   6.191   0.986 -1.1531  1.3822  0.1314
 2822TIP3   OH229880   5.975   0.367   5.114 -0.4322 -0.0364 -0.0258
 2822TIP3    H129881   6.052   0.312   5.129 -2.1420 -2.3233  0.5975
 2822TIP3    H229882   5.967   0.371   5.019  1.3682  1.5544 -0.1341
 2823TIP3   OH229883   6.187   4.856  14.368  0.1575  0.1212  0.1950
 2823TIP3    H129884   6.097   4.886  14.355  0.9596  1.7476 -2.0959
 2823TIP3    H229885   6.197   4.783  14.307  0.1592 -0.5998  1.0495
 2824TIP3   OH229886   0.257   4.469   5.173 -0.1277 -0.0512  0.0808
 2824TIP3    H129887   0.288   4.554   5.140 -0.0706  0.1861  0.7234
 2824TIP3    H229888   0.164   4.483   5.191  0.1919  0.3316  1.5751
 2825TIP3   OH229889   6.365   0.945  16.560 -0.1438  0.0016  0.3163
 2825TIP3    H129890   6.330   1.009  16.622 -1.0861 -0.4253  0.2276
 2825TIP3    H229891   6.433   0.993  16.512  1.3600  0.0338  2.3859
 2826TIP3   OH229892   3.070   2.045  16.218 -0.2461 -0.1479 -0.5676
 2826TIP3    H129893   3.141   2.107  16.200 -1.8004  1.5143 -1.2478
 2826TIP3    H229894   2.990   2.097  16.204 -1.5770 -1.6960  1.1484
 2827TIP3   OH229895   0.404   1.968  12.464  0.3247 -0.3150  0.1463
 2827TIP3    H129896   0.472   2.026  12.497 -1.6992  1.4784  1.2785
 2827TIP3    H229897   0.448   1.916  12.397  2.3223  2.1081 -0.5121
 2828TIP3   OH229898   1.909   5.829  14.376  0.3830  0.0179  0.4894
 2828TIP3    H129899   1.928   5.900  14.437 -0.1939 -0.7376  1.5404
 2828TIP3    H229900   1.959   5.755  14.409  0.6303 -0.2014 -0.3629
 2829TIP3   OH229901   0.007   4.487   5.513  0.5710 -0.0276  0.0881
 2829TIP3    H129902   0.029   4.420   5.578  0.9313 -0.5932 -0.6155
 2829TIP3    H229903  -0.000   4.439   5.431  1.4937  0.8979 -0.5455
 2830TIP3   OH229904   3.074   2.213   3.608  0.4901 -0.4175 -0.8946
 2830TIP3    H129905   3.019   2.258   3.544  0.9780  0.9388 -0.3804
 2830TIP3    H229906   3.164   2.234   3.581  0.7028 -0.2173 -0.0481
 2831TIP3   OH229907   3.688   5.045   3.251  0.0271 -0.2334 -0.2649
 2831TIP3    H129908   3.654   5.114   3.195  0.9959  1.2485  0.9564
 2831TIP3    H229909   3.766   5.013   3.207  1.0423  1.2393  0.4540
 2832TIP3   OH229910   3.495   6.601   5.646  0.0861 -0.0297 -0.2343
 2832TIP3    H129911   3.482   6.642   5.732 -0.9264  2.0842 -1.3574
 2832TIP3    H229912   3.589   6.583   5.642  0.3116  0.8081  0.9120
 2833TIP3   OH229913   4.092   3.596   2.894  0.4630  0.2048 -0.2477
 2833TIP3    H129914   4.176   3.598   2.848  1.8784  1.8305  2.2844
 2833TIP3    H229915   4.047   3.676   2.867  2.0273  2.0478  2.4001
 2834TIP3   OH229916   6.681   3.534   2.696 -0.3322 -0.0754 -0.6385
 2834TIP3    H129917   6.707   3.486   2.617 -1.6507 -1.3683 -0.3189
 2834TIP3    H229918   6.626   3.472   2.744  1.5269  0.2072  1.9551
 2835TIP3   OH229919   3.714   4.061   6.126  0.3481  0.0878 -0.6200
 2835TIP3    H129920   3.785   4.010   6.165  2.0606  1.0567 -2.4024
 2835TIP3    H229921   3.721   4.147   6.166  1.2977  0.7020 -2.0907
 2836TIP3   OH229922   5.502   4.301  13.050  0.4375 -0.1781 -0.0454
 2836TIP3    H129923   5.569   4.348  13.000  0.1621  0.4523  0.1793
 2836TIP3    H229924   5.503   4.342  13.136 -0.2921 -0.1124 -0.0673
 2837TIP3   OH229925   3.584   1.374   2.264  0.1869 -0.4332  0.2235
 2837TIP3    H129926   3.621   1.355   2.350  0.5138 -1.4597 -0.1329
 2837TIP3    H229927   3.658   1.410   2.214 -0.2876  1.2660  0.7168
 2838TIP3   OH229928   4.312   4.775  14.254  0.0049 -0.4263  0.3596
 2838TIP3    H129929   4.403   4.789  14.278 -0.0014  1.2548 -0.5135
 2838TIP3    H229930   4.309   4.685  14.221  1.5383 -0.1566 -0.5275
 2839TIP3   OH229931   5.759   5.632  12.669  0.3470  0.9792 -0.1896
 2839TIP3    H129932   5.769   5.564  12.736 -2.8942 -0.4019 -0.9931
 2839TIP3    H229933   5.842   5.632  12.622  1.0873 -1.1544  1.0413
 2840TIP3   OH229934   3.472   4.841  16.021  0.1808  0.3268  1.0375
 2840TIP3    H129935   3.537   4.874  15.959 -1.2559 -0.3796 -0.8986
 2840TIP3    H229936   3.415   4.916  16.038 -0.8170 -0.0707 -0.3873
 2841TIP3   OH229937   1.408   2.797  14.145 -0.2437  0.2136 -0.0834
 2841TIP3    H129938   1.498   2.802  14.178 -0.1959  1.2479 -0.3649
 2841TIP3    H229939   1.402   2.867  14.081 -1.6788  1.0596  0.9415
 2842TIP3   OH229940   2.850   3.059  12.695  0.6645  0.2640  0.0544
 2842TIP3    H129941   2.817   3.081  12.782 -0.2955 -0.7492 -0.0374
 2842TIP3    H229942   2.788   2.994  12.662  1.1286  0.5005 -1.3127
 2843TIP3   OH229943   3.691   0.021  17.153  0.3100 -0.2837  0.0892
 2843TIP3    H129944   3.780   0.056  17.147  1.2396 -2.3663  1.1185
 2843TIP3    H229945   3.635   0.092  17.123  2.2830  1.2821  0.0170
 2844TIP3   OH229946   5.007   1.499  14.887  0.3498  0.1850  0.2928
 2844TIP3    H129947   4.937   1.564  14.883 -0.0626 -0.0907  2.2012
 2844TIP3    H229948   5.081   1.540  14.842 -0.4147  1.2978  0.0197
 2845TIP3   OH229949   2.732   4.888  15.080 -0.0223 -0.2172  0.0265
 2845TIP3    H129950   2.663   4.889  15.014  1.9974  0.9827 -2.1123
 2845TIP3    H229951   2.792   4.819  15.052  1.0150  0.4983  0.4500
 2846TIP3   OH229952   4.722   1.375  15.556 -0.7400  0.3157  0.2682
 2846TIP3    H129953   4.779   1.401  15.482 -0.1284 -3.0319 -0.5239
 2846TIP3    H229954   4.649   1.329  15.515 -1.8201  0.8043  1.6074
 2847TIP3   OH229955   4.633   4.712  12.280 -0.0661  0.0474 -0.3382
 2847TIP3    H129956   4.573   4.787  12.274  0.4605  0.4340 -0.8173
 2847TIP3    H229957   4.700   4.730  12.215  2.0243  0.9214  1.9822
 2848TIP3   OH229958   6.773   0.377  15.582  0.1731  0.1332 -0.1025
 2848TIP3    H129959   6.847   0.373  15.521 -0.2355 -1.3002 -0.5270
 2848TIP3    H229960   6.719   0.450  15.550  0.2658 -0.2312 -1.1115
 2849TIP3   OH229961   3.825   5.247  15.916  0.0615 -0.7955 -1.2330
 2849TIP3    H129962   3.738   5.209  15.927  0.0205 -0.1874  0.7324
 2849TIP3    H229963   3.885   5.179  15.946  0.1504 -0.4928 -0.7152
 2850TIP3   OH229964   6.053   3.735   4.260 -0.1215 -0.0242 -0.3291
 2850TIP3    H129965   6.096   3.649   4.265 -0.4957 -0.2319 -0.6573
 2850TIP3    H229966   6.119   3.793   4.222 -0.0687 -0.3056 -0.6731
 2851TIP3   OH229967   6.634   0.999  11.541  0.3449 -0.0040 -0.2121
 2851TIP3    H129968   6.698   1.027  11.476  1.9818 -1.8461  0.5719
 2851TIP3    H229969   6.624   0.905  11.526  1.0588 -0.5432  2.4264
 2852TIP3   OH229970   6.453   4.097   1.385  0.0123  0.4126 -0.4147
 2852TIP3    H129971   6.416   4.009   1.375 -3.2621  1.8658 -2.0349
 2852TIP3    H229972   6.500   4.112   1.302  1.8880 -0.3332  0.4787
 2853TIP3   OH229973   2.382   4.411  17.020 -0.6819 -0.3368  0.0601
 2853TIP3    H129974   2.377   4.361  17.102 -3.3688  0.1501  0.2237
 2853TIP3    H229975   2.299   4.394  16.976 -0.9368  2.5803 -0.6963
 2854TIP3   OH229976   6.581   3.468   0.538 -0.5156  0.0829  0.0900
 2854TIP3    H129977   6.497   3.484   0.494 -1.8837  0.7026  2.8669
 2854TIP3    H229978   6.640   3.534   0.501 -1.7015  0.7805 -0.5937
 2855TIP3   OH229979   4.093   0.624   1.970 -0.5473  0.0200  0.4481
 2855TIP3    H129980   4.153   0.549   1.973  0.0181  0.4835  0.8964
 2855TIP3    H229981   4.041   0.616   2.050 -1.0873 -0.3909  0.0506
 2856TIP3   OH229982   2.558   1.416  17.161  0.2847  0.2771 -0.2708
 2856TIP3    H129983   2.467   1.446  17.163 -0.9516 -2.8124 -4.5372
 2856TIP3    H229984   2.588   1.437  17.073  3.2708 -0.1300  0.5927
 2857TIP3   OH229985   1.269   5.205   0.048  0.0133  0.2328  0.4033
 2857TIP3    H129986   1.180   5.184   0.076 -0.1321 -0.7218 -0.7635
 2857TIP3    H229987   1.273   5.301   0.050 -1.7523  0.3715 -1.7373
 2858TIP3   OH229988   2.283   5.883  15.024 -0.3878 -0.2709  0.1989
 2858TIP3    H129989   2.309   5.870  14.933 -0.2246  1.6617 -0.0574
 2858TIP3    H229990   2.187   5.873  15.023 -0.6939  2.2040 -0.6955
 2859TIP3   OH229991   1.054   6.000   5.769 -0.1693 -0.3138  0.0654
 2859TIP3    H129992   1.137   5.954   5.773 -0.6475 -1.1863  0.0122
 2859TIP3    H229993   1.006   5.971   5.847 -1.0903 -1.1205 -0.7799
 2860TIP3   OH229994   6.451   4.002   5.094 -0.0655 -0.1187 -0.1058
 2860TIP3    H129995   6.392   3.942   5.139 -0.2766 -0.5882 -0.9910
 2860TIP3    H229996   6.507   3.945   5.042  1.0766  0.3333  0.6177
 2861TIP3   OH229997   1.695   3.806  15.270  0.6423 -0.2190  0.2301
 2861TIP3    H129998   1.721   3.898  15.266 -2.6188  0.7383 -0.5216
 2861TIP3    H229999   1.732   3.774  15.352  1.9506  1.7287  0.4260
 2862TIP3   OH230000   2.989   4.150  12.865 -0.7509 -0.2138 -1.0479
 2862TIP3    H130001   3.070   4.175  12.910 -1.3248 -0.3346  0.0508
 2862TIP3    H230002   2.997   4.055  12.853 -0.8127 -0.2518 -0.7845
 2863TIP3   OH230003   4.995   4.793   4.548  0.7046 -0.1551  0.3426
 2863TIP3    H130004   5.073   4.742   4.570  0.5040 -0.7082 -0.1784
 2863TIP3    H230005   4.956   4.745   4.474  1.0562  1.3212 -0.8191
 2864TIP3   OH230006   2.816   0.156  16.095 -0.1955  0.5367 -0.6390
 2864TIP3    H130007   2.732   0.202  16.099  0.4124  1.7666 -1.7200
 2864TIP3    H230008   2.794   0.070  16.058 -1.2374  0.1793  0.7582
 2865TIP3   OH230009   0.348   2.871  14.522  0.0817 -0.9345 -0.0271
 2865TIP3    H130010   0.430   2.871  14.472  0.1989 -1.0928  0.1624
 2865TIP3    H230011   0.279   2.880  14.456  0.1647 -2.4429 -0.3286
 2866TIP3   OH230012   2.873   3.761   5.352  0.2104 -0.0031 -0.3615
 2866TIP3    H130013   2.910   3.847   5.334  1.3857 -0.6781 -1.3299
 2866TIP3    H230014   2.905   3.740   5.440  0.9127  0.0593 -0.5942
 2867TIP3   OH230015   1.550   5.906   0.991  0.3761  0.2246 -0.2447
 2867TIP3    H130016   1.489   5.846   1.033 -0.5977  0.6937 -0.9629
 2867TIP3    H230017   1.521   5.993   1.019 -0.2525  0.5404 -1.8148
 2868TIP3   OH230018   2.409   2.265  10.852 -0.9348 -0.0552 -0.6488
 2868TIP3    H130019   2.334   2.294  10.903 -0.6332  0.6963 -0.6208
 2868TIP3    H230020   2.372   2.238  10.768 -1.4190 -1.1891 -0.0793
 2869TIP3   OH230021   3.404   0.649  14.016 -0.0234 -0.0502  0.5564
 2869TIP3    H130022   3.362   0.574  13.974  0.4945 -1.0025  1.7193
 2869TIP3    H230023   3.391   0.722  13.954 -1.4783 -0.8310 -0.0811
 2870TIP3   OH230024   5.698   6.765  13.272 -0.4517 -0.1860 -0.0004
 2870TIP3    H130025   5.779   6.812  13.254 -1.1356  0.5510 -1.2195
 2870TIP3    H230026   5.708   6.681  13.226 -0.8281  0.3667 -1.1320
 2871TIP3   OH230027   2.351   5.975   0.753 -0.0435 -0.6893 -0.1941
 2871TIP3    H130028   2.394   5.984   0.838 -0.9988 -2.0928  0.4473
 2871TIP3    H230029   2.259   5.995   0.770  0.1689  1.4940 -1.4007
 2872TIP3   OH230030   4.792   0.182  16.254  0.0888  0.3708  0.6219
 2872TIP3    H130031   4.801   0.090  16.230 -1.0488 -0.0774  1.8343
 2872TIP3    H230032   4.809   0.230  16.173  3.3517 -0.7614  0.5413
 2873TIP3   OH230033   6.591   4.632  17.141  0.0680  0.2206 -0.0644
 2873TIP3    H130034   6.533   4.619  17.066  1.6927  2.2799 -1.7608
 2873TIP3    H230035   6.669   4.580  17.121 -0.7467 -1.7800  1.7540
 2874TIP3   OH230036   1.364   5.595  11.140 -0.6610  0.4399 -0.1922
 2874TIP3    H130037   1.299   5.614  11.208  1.3969  1.5388  1.5292
 2874TIP3    H230038   1.363   5.673  11.084  0.0450  0.9832  0.5502
 2875TIP3   OH230039   4.997   2.754   2.698  0.2326 -0.2987 -0.1126
 2875TIP3    H130040   4.916   2.719   2.735  0.6143 -0.7001  0.3523
 2875TIP3    H230041   5.040   2.679   2.658  1.6382 -0.6547  1.9338
 2876TIP3   OH230042   5.041   4.249  11.387  0.2662 -0.0665  0.7525
 2876TIP3    H130043   4.954   4.288  11.384  0.5132  0.3726 -1.2775
 2876TIP3    H230044   5.088   4.288  11.313  2.2692 -0.1027  1.9552
 2877TIP3   OH230045   1.420   5.721  13.380  0.3288 -0.7920  0.8167
 2877TIP3    H130046   1.366   5.800  13.375  0.0897 -0.8982  1.6563
 2877TIP3    H230047   1.389   5.666  13.308 -0.1788 -0.5421  0.8412
 2878TIP3   OH230048   6.009   5.160  13.334 -0.3240  0.0453  0.1515
 2878TIP3    H130049   6.006   5.252  13.310  0.2343  0.0877  0.2442
 2878TIP3    H230050   6.069   5.156  13.409  1.1894 -0.6467 -1.0643
 2879TIP3   OH230051   6.470   1.194   0.671 -0.1954  0.3792  0.2563
 2879TIP3    H130052   6.393   1.154   0.711  0.1384 -0.2325  0.2793
 2879TIP3    H230053   6.465   1.286   0.698 -0.0308  0.0013  1.6177
 2880TIP3   OH230054   3.587   3.951   3.352  0.3793 -0.0250  0.0800
 2880TIP3    H130055   3.547   3.918   3.433 -0.6585  1.0592  0.0280
 2880TIP3    H230056   3.666   3.997   3.381  2.0847 -2.8481  0.1178
 2881TIP3   OH230057   0.310   2.689  13.852  0.0166 -0.0487 -0.0669
 2881TIP3    H130058   0.215   2.674  13.846 -0.4529  2.1766  1.1414
 2881TIP3    H230059   0.329   2.751  13.781  0.5758 -0.5305 -0.3385
 2882TIP3   OH230060   4.475   0.609  12.984  0.1703 -0.0521  0.0996
 2882TIP3    H130061   4.409   0.554  12.943 -0.4919  2.0827 -1.7438
 2882TIP3    H230062   4.450   0.698  12.962  2.4668  0.9033  1.1890
 2883TIP3   OH230063   3.604   2.854   4.717 -0.3449 -0.5632 -0.5152
 2883TIP3    H130064   3.648   2.858   4.631 -0.1041  0.5340 -0.3450
 2883TIP3    H230065   3.671   2.821   4.776  0.0525  0.4541 -0.3909
 2884TIP3   OH230066   3.870   1.694   0.697  0.1492 -0.3228  0.0399
 2884TIP3    H130067   3.775   1.694   0.707  0.1187  0.4701 -0.2324
 2884TIP3    H230068   3.893   1.602   0.687 -0.6250 -0.4931 -0.2112
 2885TIP3   OH230069   5.579   3.744  12.141 -0.1244  0.3970 -0.1921
 2885TIP3    H130070   5.525   3.677  12.183  0.5652 -1.7976 -2.6239
 2885TIP3    H230071   5.669   3.714  12.154  0.2416  1.3268 -0.5402
 2886TIP3   OH230072   5.348   3.852  15.489 -0.3547  0.5248 -0.2086
 2886TIP3    H130073   5.322   3.843  15.581  0.6442  1.0000  0.1267
 2886TIP3    H230074   5.266   3.851  15.441 -0.8762  0.0592  0.6731
 2887TIP3   OH230075   0.079   6.608   4.467 -0.1271  0.8607  0.1522
 2887TIP3    H130076   0.042   6.592   4.554  1.4027 -0.7206  0.5267
 2887TIP3    H230077   0.173   6.622   4.484  0.5582 -1.5917 -1.4489
 2888TIP3   OH230078   3.988   4.308  17.098 -0.1506  0.0743 -0.8786
 2888TIP3    H130079   3.994   4.241  17.030 -1.2628 -1.6035  0.6164
 2888TIP3    H230080   3.933   4.269  17.166  0.7145  1.7947  0.8895
 2889TIP3   OH230081   1.612   5.859  15.490 -0.1463 -0.2810 -0.2346
 2889TIP3    H130082   1.656   5.918  15.551 -0.9265 -0.1341  0.1909
 2889TIP3    H230083   1.653   5.774  15.505 -0.3175 -0.2410  0.4873
 2890TIP3   OH230084   3.784   4.858  15.015  0.1132  0.1098  0.1560
 2890TIP3    H130085   3.784   4.941  14.966 -0.2984  0.3192  0.5051
 2890TIP3    H230086   3.853   4.868  15.080 -0.9618  0.7930  1.2140
 2891TIP3   OH230087   5.789   3.555  12.288 -0.2460 -0.3371 -0.1871
 2891TIP3    H130088   5.707   3.578  12.332 -0.0485 -1.2889  0.7175
 2891TIP3    H230089   5.851   3.622  12.315 -1.0551  1.1414 -1.9343
 2892TIP3   OH230090   3.040   6.022   4.892  0.0593  0.2882  0.4122
 2892TIP3    H130091   2.983   6.082   4.941  1.1089  1.1208  0.6340
 2892TIP3    H230092   3.116   6.076   4.868  1.1098 -0.9937  0.7955
 2893TIP3   OH230093   6.084   5.978  12.848  0.7878  0.0487  0.1510
 2893TIP3    H130094   6.039   6.023  12.920  0.1960 -2.0180  1.1228
 2893TIP3    H230095   6.168   5.951  12.885  0.8451 -0.2601 -0.2060
 2894TIP3   OH230096   0.470   2.754   2.570  0.2817  0.2779  1.1875
 2894TIP3    H130097   0.397   2.707   2.529 -0.3411  1.6138  0.7643
 2894TIP3    H230098   0.546   2.699   2.550 -0.3943 -0.4251  0.4637
 2895TIP3   OH230099   0.534   6.526  11.125  0.0941 -0.1241  0.3707
 2895TIP3    H130100   0.608   6.536  11.066  1.4775 -4.1434  1.2720
 2895TIP3    H230101   0.465   6.488  11.070 -0.7301  1.8844 -0.0298
 2896TIP3   OH230102   5.130   2.912   5.598 -0.4314  0.3285  0.0830
 2896TIP3    H130103   5.163   2.826   5.570  1.0472  1.2942 -1.2267
 2896TIP3    H230104   5.036   2.907   5.585 -0.2105 -0.6584 -1.1996
 2897TIP3   OH230105   2.505   6.617  13.748  0.0498 -0.0863 -0.2766
 2897TIP3    H130106   2.446   6.686  13.778  1.6522  0.2943  2.0971
 2897TIP3    H230107   2.463   6.582  13.669 -2.2641  1.5919  0.1706
 2898TIP3   OH230108   2.903   4.716  15.362 -0.2719 -0.0594  0.0672
 2898TIP3    H130109   2.809   4.712  15.380 -0.3329 -0.3962 -0.3351
 2898TIP3    H230110   2.933   4.626  15.368  0.1778  0.1469  0.9973
 2899TIP3   OH230111   6.739   5.792  15.990 -0.3541  0.7465  0.2665
 2899TIP3    H130112   6.774   5.758  15.908  0.8912 -0.2881  1.1931
 2899TIP3    H230113   6.815   5.832  16.033 -0.9245  0.9892  1.0515
 2900TIP3   OH230114   1.586   2.889   3.946 -0.1238 -0.6450 -0.5491
 2900TIP3    H130115   1.657   2.888   3.882 -2.1821 -0.2382 -2.9104
 2900TIP3    H230116   1.549   2.977   3.940  0.4461 -0.1534  2.1812
 2901TIP3   OH230117   4.576   3.742  12.810 -0.2490 -0.4499 -0.1832
 2901TIP3    H130118   4.537   3.656  12.793  0.3840 -0.8009  0.1498
 2901TIP3    H230119   4.548   3.764  12.899 -0.3053 -0.3693 -0.2212
 2902TIP3   OH230120   1.194   6.004   1.249  0.6649 -0.7681 -1.1750
 2902TIP3    H130121   1.148   6.071   1.198 -0.1302  1.0981  1.8717
 2902TIP3    H230122   1.267   6.050   1.290 -1.4391 -1.0076  3.1194
 2903TIP3   OH230123   4.329   4.533  12.808  0.1757  0.4397 -0.0239
 2903TIP3    H130124   4.399   4.595  12.828 -0.2274  0.8084  0.2753
 2903TIP3    H230125   4.313   4.487  12.891 -1.5422  2.0147  0.5735
 2904TIP3   OH230126   3.387   1.132   6.248  0.2806  0.1607  0.2345
 2904TIP3    H130127   3.340   1.054   6.220  1.3374  0.1557 -1.6020
 2904TIP3    H230128   3.464   1.098   6.294  0.4991  0.1198 -0.1586
 2905TIP3   OH230129   6.718   2.505   4.729 -0.2533 -0.4071  0.0814
 2905TIP3    H130130   6.756   2.441   4.668  1.2093 -0.6885  1.2828
 2905TIP3    H230131   6.697   2.454   4.807 -2.6719 -0.1644 -0.3472
 2906TIP3   OH230132   6.511   5.700  12.373 -0.2915  0.1703  0.4706
 2906TIP3    H130133   6.587   5.641  12.370 -2.2658 -2.4594  0.1406
 2906TIP3    H230134   6.519   5.753  12.295  0.2950 -1.2827 -0.4829
 2907TIP3   OH230135   2.065   6.346   0.373 -0.1668  0.2765  0.0424
 2907TIP3    H130136   2.008   6.318   0.301  2.1077  1.8826 -2.5375
 2907TIP3    H230137   2.040   6.437   0.388 -1.1221 -0.2701  1.8285
 2908TIP3   OH230138   3.877   1.544  13.011  0.2503  0.3494 -0.0737
 2908TIP3    H130139   3.816   1.607  12.971  0.7005  0.6023 -0.3625
 2908TIP3    H230140   3.944   1.530  12.944  0.0831 -0.5450 -0.0634
 2909TIP3   OH230141   5.376   1.094   6.171  0.3596  0.2725 -0.1322
 2909TIP3    H130142   5.398   1.187   6.175  0.8584  0.2229 -1.2528
 2909TIP3    H230143   5.324   1.078   6.249  0.2525  1.4985  0.0675
 2910TIP3   OH230144   2.047   4.590   3.329 -0.3701 -0.0366  0.2687
 2910TIP3    H130145   2.063   4.608   3.421  2.6816  0.3560 -0.3003
 2910TIP3    H230146   2.026   4.676   3.291  0.0209  0.0603  0.2745
 2911TIP3   OH230147   1.156   5.167  11.483  0.0986 -0.1180  0.4949
 2911TIP3    H130148   1.243   5.128  11.488  0.6903  1.0352 -0.5790
 2911TIP3    H230149   1.099   5.102  11.523  1.3608 -1.1588  0.6518
 2912TIP3   OH230150   1.858   1.024  13.550 -0.3607 -0.4456 -0.1119
 2912TIP3    H130151   1.896   0.938  13.534 -1.2611 -0.7294 -0.7317
 2912TIP3    H230152   1.930   1.085  13.530 -0.4089 -0.9517 -1.9661
 2913TIP3   OH230153   4.455   3.312   2.951 -0.2138  0.0317 -0.2497
 2913TIP3    H130154   4.507   3.357   2.884  1.2902 -0.4847  0.5566
 2913TIP3    H230155   4.432   3.380   3.014  0.3958  0.0562 -0.0507
 2914TIP3   OH230156   3.122   3.076   6.130 -0.3198 -0.1891  0.0475
 2914TIP3    H130157   3.159   3.017   6.195  1.6774  0.1909 -0.7238
 2914TIP3    H230158   3.044   3.112   6.173 -1.7239 -3.5031  0.4454
 2915TIP3   OH230159   1.617   3.934   1.105  0.2713 -0.0418 -0.6906
 2915TIP3    H130160   1.613   4.020   1.064  1.0233  0.6105  0.5747
 2915TIP3    H230161   1.547   3.884   1.063 -0.4671  1.3344 -1.1191
 2916TIP3   OH230162   6.274   2.602   4.894  0.0844 -0.3781 -0.1456
 2916TIP3    H130163   6.333   2.579   4.966  0.7960 -0.1722 -0.6572
 2916TIP3    H230164   6.331   2.637   4.827 -0.7389  0.7703 -0.2576
 2917TIP3   OH230165   3.389   4.415   1.214 -0.0924  0.6220  0.6584
 2917TIP3    H130166   3.350   4.395   1.129  1.2753  1.5923 -0.2211
 2917TIP3    H230167   3.323   4.388   1.277 -1.0376 -0.3466 -0.6995
 2918TIP3   OH230168   2.687   6.761  15.966 -0.0712 -0.7363  0.5970
 2918TIP3    H130169   2.599   6.729  15.984  0.5780 -2.4181  0.8688
 2918TIP3    H230170   2.675   6.827  15.899 -1.7166  0.2518  1.8209
 2919TIP3   OH230171   5.881   4.785  14.231 -0.0404 -0.0462 -0.2009
 2919TIP3    H130172   5.791   4.773  14.199  0.0232  1.0365 -0.8156
 2919TIP3    H230173   5.886   4.729  14.309 -1.1282 -0.4071 -0.3777
 2920TIP3   OH230174   2.239   3.270  13.980  0.3894  0.1936 -0.1488
 2920TIP3    H130175   2.242   3.219  13.899  1.6154  0.6719 -0.4122
 2920TIP3    H230176   2.156   3.246  14.021  0.3908 -1.0692 -0.8867
 2921TIP3   OH230177   2.728   2.623  14.228 -0.2971 -0.2422  0.2479
 2921TIP3    H130178   2.708   2.543  14.276  0.9075 -0.6466  0.0910
 2921TIP3    H230179   2.818   2.644  14.253  0.5405 -0.7451 -2.1898
 2922TIP3   OH230180   2.147   1.453  11.023  0.0958  0.1308  0.4775
 2922TIP3    H130181   2.230   1.490  10.994  0.1421 -0.1520  0.2493
 2922TIP3    H230182   2.170   1.369  11.063 -0.1845 -0.3739 -0.4309
 2923TIP3   OH230183   0.805   5.990  15.244 -0.3576 -0.3096  0.1774
 2923TIP3    H130184   0.761   6.038  15.175 -1.0321 -0.4000  0.5358
 2923TIP3    H230185   0.792   5.897  15.222 -0.1062 -0.3383  0.1375
 2924TIP3   OH230186   2.751   6.455  14.991 -0.0205 -0.0830  0.6730
 2924TIP3    H130187   2.821   6.511  15.025  0.8715 -1.3161  0.9164
 2924TIP3    H230188   2.711   6.417  15.069 -2.0977  1.9219  0.6221
 2925TIP3   OH230189   4.184   0.512  12.390 -0.1511  0.5241 -0.2086
 2925TIP3    H130190   4.133   0.553  12.459  2.6699  0.5493  1.9458
 2925TIP3    H230191   4.120   0.489  12.323 -2.8584  1.1857  2.0693
 2926TIP3   OH230192   5.489   0.834   3.742  0.2553 -0.0816 -0.1792
 2926TIP3    H130193   5.442   0.885   3.676  0.8727  1.7327  0.7353
 2926TIP3    H230194   5.557   0.893   3.774  1.6676 -1.8578  0.1826
 2927TIP3   OH230195   5.562   5.296   0.637  0.1990 -0.1401  0.1915
 2927TIP3    H130196   5.597   5.309   0.725 -1.1021  2.1754  0.3959
 2927TIP3    H230197   5.633   5.326   0.579  0.3039  0.2278  0.5051
 2928TIP3   OH230198   5.690   4.791  14.956  0.5346 -0.4858 -0.0260
 2928TIP3    H130199   5.595   4.795  14.972  0.4179 -1.9549 -0.2914
 2928TIP3    H230200   5.709   4.869  14.904 -0.6639 -0.5832 -0.6346
 2929TIP3   OH230201   2.078   2.377  12.334 -0.0561 -0.3498  0.2294
 2929TIP3    H130202   2.069   2.368  12.239  1.0899  3.5258 -0.3316
 2929TIP3    H230203   2.168   2.408  12.346  0.1740 -1.8830  2.6971
 2930TIP3   OH230204   2.668   3.665  17.029 -0.6109  0.0316  0.5444
 2930TIP3    H130205   2.680   3.607  16.953  2.2662  1.0336  0.1462
 2930TIP3    H230206   2.599   3.726  17.002 -0.8382 -0.7247 -0.6195
 2931TIP3   OH230207   2.058   3.269  12.767  0.0588  0.3789  0.3652
 2931TIP3    H130208   2.108   3.231  12.695 -3.4561 -0.7920 -1.5987
 2931TIP3    H230209   1.985   3.208  12.779 -0.5239  1.6321  3.5931
 2932TIP3   OH230210   2.863   0.609   2.518  0.8832 -0.2234  0.4614
 2932TIP3    H130211   2.909   0.659   2.586  1.4169  0.7016 -0.5514
 2932TIP3    H230212   2.907   0.525   2.516 -0.8568 -1.2574  3.0901
 2933TIP3   OH230213   4.666   6.441  14.036 -0.7851  0.0480  0.0564
 2933TIP3    H130214   4.747   6.439  14.087 -1.2175 -1.5947  0.7180
 2933TIP3    H230215   4.694   6.452  13.946  0.2607 -1.8308  0.1351
 2934TIP3   OH230216   3.447   2.908   2.553 -0.0342  0.1958 -0.2512
 2934TIP3    H130217   3.476   2.999   2.550  1.0890 -0.1416 -0.1294
 2934TIP3    H230218   3.373   2.908   2.614 -0.1785  1.0607 -0.4225
 2935TIP3   OH230219   5.026   0.896  11.756 -0.2819 -0.4147 -0.4341
 2935TIP3    H130220   5.075   0.818  11.785  0.0232 -0.0538  0.0337
 2935TIP3    H230221   5.004   0.878  11.664 -1.6056 -1.7462  0.1255
 2936TIP3   OH230222   1.814   6.702   1.359 -0.6210  0.0753  0.4472
 2936TIP3    H130223   1.885   6.686   1.297 -2.6732 -2.9900 -1.2631
 2936TIP3    H230224   1.772   6.781   1.327  0.2152  0.2380 -0.2717
 2937TIP3   OH230225   0.837   6.645  15.979 -0.1678  0.7991 -0.2159
 2937TIP3    H130226   0.929   6.653  15.951  0.5321 -1.2391  1.4083
 2937TIP3    H230227   0.793   6.607  15.903  0.9828 -1.2228  0.0927
 2938TIP3   OH230228   6.569   1.271   4.537  0.0840  0.3844  0.1778
 2938TIP3    H130229   6.613   1.290   4.454 -0.3375 -1.8766 -0.5923
 2938TIP3    H230230   6.476   1.272   4.515  0.0120 -1.2572  0.3931
 2939TIP3   OH230231   4.827   6.675   0.832 -0.2976 -0.0611  0.5166
 2939TIP3    H130232   4.834   6.761   0.873 -0.5172  0.2674 -0.1263
 2939TIP3    H230233   4.908   6.630   0.857  0.4680  0.8357 -0.2777
 2940TIP3   OH230234   6.225   3.628   3.183  0.2876  0.3955  0.0776
 2940TIP3    H130235   6.282   3.684   3.129  3.1365 -4.3198 -2.1024
 2940TIP3    H230236   6.156   3.600   3.124  0.5129 -0.6529  0.2995
 2941TIP3   OH230237   1.541   3.958  15.771  0.0656  0.1929 -0.8480
 2941TIP3    H130238   1.473   3.982  15.834  0.9982  0.0726  0.2182
 2941TIP3    H230239   1.556   4.038  15.720 -0.2213  0.4750 -0.4898
 2942TIP3   OH230240   1.069   4.259   4.741 -0.0591  0.0632  0.1183
 2942TIP3    H130241   1.130   4.309   4.796  0.7464 -0.6763 -0.0950
 2942TIP3    H230242   1.125   4.203   4.687 -0.9172 -0.4366 -0.2677
 2943TIP3   OH230243   4.566   4.319   0.411 -0.4491 -0.6370  0.2733
 2943TIP3    H130244   4.644   4.374   0.421 -1.1137 -0.1186  3.1461
 2943TIP3    H230245   4.500   4.377   0.374 -0.1886 -0.4019  0.1733
 2944TIP3   OH230246   2.999   3.636  15.867  0.4447 -0.3707  0.0410
 2944TIP3    H130247   3.028   3.698  15.801 -1.7623  0.3345 -0.2906
 2944TIP3    H230248   3.032   3.551  15.837  1.0311  0.2183 -0.9857
 2945TIP3   OH230249   4.842   3.046   1.120 -0.0524 -0.3830  0.4649
 2945TIP3    H130250   4.807   2.963   1.152 -3.9156  0.5566 -1.0503
 2945TIP3    H230251   4.833   3.106   1.194  2.2270 -1.1058  1.3792
 2946TIP3   OH230252   6.649   4.552  15.827 -0.1300  0.4783  0.1808
 2946TIP3    H130253   6.576   4.585  15.774 -0.2391 -0.7057 -0.4138
 2946TIP3    H230254   6.652   4.458  15.809  3.1896  0.8846 -1.8691
 2947TIP3   OH230255   4.014   4.243  14.813  0.3350 -0.1289 -0.0460
 2947TIP3    H130256   4.072   4.207  14.746 -1.4097 -1.0942 -1.0554
 2947TIP3    H230257   3.937   4.186  14.812 -1.1322  1.7813  0.4831
 2948TIP3   OH230258   2.309   1.944  14.329 -0.1683  0.2176 -0.1959
 2948TIP3    H130259   2.308   1.960  14.235 -0.1268 -0.8804 -0.3812
 2948TIP3    H230260   2.246   2.007  14.364 -0.5084  0.3337 -1.0006
 2949TIP3   OH230261   3.731   3.114   4.436 -0.0465  0.1274 -0.2645
 2949TIP3    H130262   3.817   3.096   4.397 -0.1365  0.4202 -0.5889
 2949TIP3    H230263   3.691   3.028   4.445 -1.1862  0.2687 -3.4203
 2950TIP3   OH230264   0.081   4.095  13.935 -0.1796 -0.0668  0.0309
 2950TIP3    H130265   0.044   4.178  13.903  0.4107  1.0177  2.0926
 2950TIP3    H230266   0.021   4.067  14.004  2.2867  1.2900  2.8434
 2951TIP3   OH230267   0.766   0.967  13.448  0.1284  0.4712 -0.3287
 2951TIP3    H130268   0.732   1.052  13.478  0.7708  1.2201 -1.6735
 2951TIP3    H230269   0.861   0.980  13.443  0.1894 -0.1942 -0.9271
 2952TIP3   OH230270   2.505   2.567  11.860 -0.4642 -0.0197  0.1427
 2952TIP3    H130271   2.553   2.639  11.820 -0.2947  1.2481  2.5696
 2952TIP3    H230272   2.413   2.593  11.855 -0.4243  0.2557  0.7606
 2953TIP3   OH230273   5.551   2.010  15.211  0.7551  0.0855  0.1377
 2953TIP3    H130274   5.565   1.966  15.295 -2.2391 -0.4126  0.4150
 2953TIP3    H230275   5.634   2.056  15.194  1.4716  0.0257  3.2438
 2954TIP3   OH230276   1.924   5.959   1.028 -0.3571  0.4217 -0.3089
 2954TIP3    H130277   1.847   5.911   0.998 -0.3175 -0.0651  0.3614
 2954TIP3    H230278   1.889   6.029   1.083 -0.2352 -1.0425  1.7024
 2955TIP3   OH230279   4.189   2.192  12.322 -0.3287  0.0891  0.2684
 2955TIP3    H130280   4.148   2.271  12.358 -0.3242  0.5031 -0.6310
 2955TIP3    H230281   4.254   2.225  12.260 -1.4265 -0.6501 -1.3067
 2956TIP3   OH230282   0.568   3.988  12.825  0.0353 -0.0571  0.3161
 2956TIP3    H130283   0.587   4.072  12.782  1.4596  0.9977  2.8656
 2956TIP3    H230284   0.622   3.924  12.779 -0.1649  0.6365 -0.8958
 2957TIP3   OH230285   2.455   3.697   3.888 -0.0222 -0.2741 -0.3818
 2957TIP3    H130286   2.522   3.761   3.911 -0.5873  1.0533 -2.2490
 2957TIP3    H230287   2.500   3.612   3.889  1.1553  0.3594  0.4595
 2958TIP3   OH230288   2.520   3.697  10.519 -0.1980  0.1563 -0.7064
 2958TIP3    H130289   2.437   3.744  10.519 -0.6152 -0.5094  2.4902
 2958TIP3    H230290   2.496   3.605  10.509  0.3869  0.2099 -2.9120
 2959TIP3   OH230291   5.731   4.146   2.032 -0.2834  0.4889  0.1126
 2959TIP3    H130292   5.681   4.193   2.099  0.9084  1.1599  0.5388
 2959TIP3    H230293   5.772   4.214   1.980  3.0032 -0.0332  1.8949
 2960TIP3   OH230294   6.407   0.313  15.969  0.0708 -0.6347 -0.7227
 2960TIP3    H130295   6.399   0.287  15.877 -2.6288 -1.7517 -0.2210
 2960TIP3    H230296   6.383   0.406  15.970  0.9709 -0.3900 -1.2567
 2961TIP3   OH230297   6.674   0.815  10.979  0.0707  0.4264  0.0717
 2961TIP3    H130298   6.648   0.858  10.898  0.4011 -3.1018 -2.0001
 2961TIP3    H230299   6.605   0.750  10.995  0.0521  1.0108  2.5981
 2962TIP3   OH230300   2.822   6.356  12.034 -0.1567  0.6909  0.3549
 2962TIP3    H130301   2.864   6.428  11.988  0.4328 -0.1650 -0.4421
 2962TIP3    H230302   2.891   6.317  12.087 -1.1482  2.6064  3.1843
 2963TIP3   OH230303   2.297   2.174   3.790  0.3793  0.3479  0.1671
 2963TIP3    H130304   2.251   2.258   3.786  3.4631  2.2562  2.2915
 2963TIP3    H230305   2.272   2.137   3.875 -2.0055 -1.6134 -1.3070
 2964TIP3   OH230306   0.271   1.600   5.032  0.5896  0.0841  0.3588
 2964TIP3    H130307   0.203   1.664   5.014  0.7745 -0.2665 -1.7228
 2964TIP3    H230308   0.257   1.531   4.968  0.7075 -1.7310  2.2379
 2965TIP3   OH230309   0.903   0.711  16.583  0.0504 -0.0058 -0.0133
 2965TIP3    H130310   0.934   0.771  16.516  0.2215 -1.7038 -1.4702
 2965TIP3    H230311   0.893   0.627  16.539 -1.2249 -0.8262  1.7365
 2966TIP3   OH230312   2.242   6.226  14.803 -0.0383  0.1574 -0.1893
 2966TIP3    H130313   2.183   6.171  14.855  0.6380 -0.3207  0.0745
 2966TIP3    H230314   2.239   6.312  14.845 -0.7786  0.2182 -0.3588
 2967TIP3   OH230315   4.374   0.956  14.451  0.5047 -0.2813 -0.0043
 2967TIP3    H130316   4.437   0.885  14.439 -0.5636 -1.1185 -0.8940
 2967TIP3    H230317   4.379   1.007  14.370  1.4998  0.8526  0.7638
 2968TIP3   OH230318   2.054   4.407   1.719 -0.2717  1.0168 -0.7330
 2968TIP3    H130319   2.054   4.499   1.694  1.0457  0.8889 -1.2340
 2968TIP3    H230320   2.019   4.361   1.643  0.5080  0.9621 -1.0639
 2969TIP3   OH230321   2.310   1.928  15.083 -0.5347  0.8539  0.8710
 2969TIP3    H130322   2.278   2.018  15.077 -1.7710  0.5025  1.9112
 2969TIP3    H230323   2.233   1.877  15.110  0.1214 -0.5369  0.1693
 2970TIP3   OH230324   1.396   2.504   5.275 -0.1236 -0.3505 -0.1449
 2970TIP3    H130325   1.316   2.541   5.237 -1.4650 -0.6750  2.2862
 2970TIP3    H230326   1.393   2.411   5.254 -0.2059 -0.3048 -0.3353
 2971TIP3   OH230327   2.478   4.812   4.418 -0.6583 -0.5314  0.1939
 2971TIP3    H130328   2.497   4.847   4.505 -2.1629  2.7047 -0.7219
 2971TIP3    H230329   2.390   4.776   4.425 -0.5659 -0.7686  0.1473
 2972TIP3   OH230330   1.296   1.386  16.170  0.2874  0.2206  0.4092
 2972TIP3    H130331   1.277   1.310  16.115  0.8910 -0.2768  0.8875
 2972TIP3    H230332   1.241   1.455  16.134  1.5564  0.2387 -1.6234
 2973TIP3   OH230333   3.296   1.959  17.149 -0.1399 -0.0916  0.2431
 2973TIP3    H130334   3.330   1.890  17.205 -0.9513  0.4583  1.4419
 2973TIP3    H230335   3.352   1.957  17.071  1.0744 -0.7844  1.1191
 2974TIP3   OH230336   4.197   5.942   4.698 -0.7340  0.1045  0.0982
 2974TIP3    H130337   4.211   5.981   4.785 -0.7231  0.4919 -0.0780
 2974TIP3    H230338   4.284   5.940   4.659 -1.0319  1.8366 -0.7097
 2975TIP3   OH230339   1.738   0.176   2.368  0.1439 -0.5320 -1.1060
 2975TIP3    H130340   1.739   0.134   2.454 -0.0886  0.2737 -0.6986
 2975TIP3    H230341   1.716   0.106   2.307 -0.0307 -1.0432 -0.4641
 2976TIP3   OH230342   6.743   2.464   0.691 -0.2165 -0.1623 -0.1454
 2976TIP3    H130343   6.813   2.492   0.631  0.4454 -2.0918 -0.3266
 2976TIP3    H230344   6.668   2.449   0.634  0.4521 -2.1284 -0.5441
 2977TIP3   OH230345   3.784   4.807  13.808  0.4175  0.2339 -0.0367
 2977TIP3    H130346   3.738   4.889  13.792  0.8066 -0.2072 -3.9901
 2977TIP3    H230347   3.717   4.746  13.838 -0.4369  1.2170  0.0544
 2978TIP3   OH230348   6.523   2.054  14.352 -0.7047  0.3973 -0.4424
 2978TIP3    H130349   6.475   2.008  14.283 -0.0501  1.6744 -1.7607
 2978TIP3    H230350   6.605   2.082  14.311  1.2445 -1.7751  1.7948
 2979TIP3   OH230351   4.474   3.670  13.433  0.0697 -0.6773  0.0816
 2979TIP3    H130352   4.546   3.661  13.372  0.6868 -1.1301  0.8716
 2979TIP3    H230353   4.512   3.652  13.519 -0.3722  1.8119  0.8310
 2980TIP3   OH230354   4.265   1.140  12.427  0.1345  0.0233 -0.1412
 2980TIP3    H130355   4.359   1.156  12.438  0.1477 -0.6500  0.7772
 2980TIP3    H230356   4.258   1.046  12.410 -0.3952  0.0177  0.0867
 2981TIP3   OH230357   2.123   1.551   2.498  0.0012 -0.0366 -0.0949
 2981TIP3    H130358   2.042   1.517   2.535  0.1700 -1.0696 -0.6725
 2981TIP3    H230359   2.127   1.513   2.410  0.8576  0.4174 -0.2530
 2982TIP3   OH230360   5.634   4.956   6.065 -0.1505  0.5766  0.2493
 2982TIP3    H130361   5.727   4.940   6.084 -0.0716  1.5736  0.7572
 2982TIP3    H230362   5.587   4.908   6.133  0.0244  0.8584  0.5744
 2983TIP3   OH230363   0.844   1.868  14.296 -0.2796 -0.4226  0.1027
 2983TIP3    H130364   0.848   1.814  14.374  0.0379  0.5909  0.7916
 2983TIP3    H230365   0.927   1.852  14.251  0.5157  0.7080  1.1282
 2984TIP3   OH230366   0.586   4.613  11.020 -0.1576 -0.3463 -0.0010
 2984TIP3    H130367   0.652   4.554  10.984 -0.9028 -0.5303 -1.1059
 2984TIP3    H230368   0.512   4.556  11.041  0.9256 -0.5361  3.6642
 2985TIP3   OH230369   6.312   2.670   6.673 -0.5183  0.3562  0.0688
 2985TIP3    H130370   6.277   2.758   6.659 -1.0151 -0.3234 -3.2686
 2985TIP3    H230371   6.235   2.613   6.671  0.2096 -0.5828 -2.0016
 2986TIP3   OH230372   0.941   1.069   1.439 -0.8440 -0.2904 -0.1456
 2986TIP3    H130373   0.861   1.095   1.484 -0.7949 -0.5513  0.0949
 2986TIP3    H230374   0.947   1.128   1.364 -1.1510 -0.1344 -0.0473
 2987TIP3   OH230375   1.412   0.150   5.233  0.4008 -0.0006 -0.0202
 2987TIP3    H130376   1.457   0.134   5.151  0.4637 -1.0324  0.2090
 2987TIP3    H230377   1.482   0.155   5.299  0.4371  1.8468 -0.1619
 2988TIP3   OH230378   5.587   5.448  15.435  0.1798 -1.2605  0.4396
 2988TIP3    H130379   5.623   5.533  15.461 -0.1696  0.0458 -3.0566
 2988TIP3    H230380   5.495   5.451  15.462 -0.9113  1.1871 -3.0673
 2989TIP3   OH230381   0.398   6.144  13.599 -0.0070  0.0356 -0.1127
 2989TIP3    H130382   0.493   6.158  13.605 -0.1317  0.2700  1.9255
 2989TIP3    H230383   0.361   6.215  13.652 -1.2748 -0.5606 -0.1992
 2990TIP3   OH230384   0.838   2.394   0.725  0.0465  0.1894 -0.0269
 2990TIP3    H130385   0.905   2.363   0.785  0.0494  1.6490  0.7466
 2990TIP3    H230386   0.813   2.317   0.674  0.8420 -0.8053  1.0815
 2991TIP3   OH230387   4.044   2.734   1.689  0.7578  0.2199 -0.0571
 2991TIP3    H130388   4.130   2.696   1.669  0.6834 -0.6787  1.2660
 2991TIP3    H230389   3.995   2.663   1.730 -0.3977  0.9155 -0.2081
 2992TIP3   OH230390   0.934   0.177   2.043  0.5913 -0.1719 -0.4468
 2992TIP3    H130391   0.869   0.113   2.014  1.2248 -0.8500 -0.3709
 2992TIP3    H230392   0.885   0.234   2.103  0.7659 -2.6110  2.1762
 2993TIP3   OH230393   3.014   5.280  12.502 -0.2948 -0.0348  0.0572
 2993TIP3    H130394   2.937   5.318  12.542  0.6419 -0.0141  1.9059
 2993TIP3    H230395   3.053   5.351  12.451  0.6657  1.0918  2.3351
 2994TIP3   OH230396   3.755   3.616   3.363 -0.2404  0.1041  0.5405
 2994TIP3    H130397   3.809   3.612   3.442  0.7297  1.2157 -0.0604
 2994TIP3    H230398   3.782   3.696   3.318 -0.5981 -0.6352 -1.0532
 2995TIP3   OH230399   2.633   1.164   3.450  0.4215  0.2566 -0.5587
 2995TIP3    H130400   2.693   1.124   3.513  0.5171  0.0227 -0.7947
 2995TIP3    H230401   2.676   1.153   3.365  0.5840  1.1423 -0.5913
 2996TIP3   OH230402   5.116   6.450   3.886  0.4062 -0.2519  0.3933
 2996TIP3    H130403   5.048   6.509   3.919  1.2170  0.9681 -0.0520
 2996TIP3    H230404   5.082   6.418   3.803  0.5316  0.6688 -0.0208
 2997TIP3   OH230405   5.404   4.928  15.281 -0.1838  0.3707  0.1797
 2997TIP3    H130406   5.440   4.872  15.350  1.6046 -0.2283 -1.2210
 2997TIP3    H230407   5.389   4.869  15.208 -1.2144  1.1788 -0.2706
 2998TIP3   OH230408   5.994   0.437  11.876 -0.0762 -0.1874  0.4039
 2998TIP3    H130409   6.000   0.367  11.940  3.5923 -0.9722 -0.6727
 2998TIP3    H230410   5.985   0.392  11.792 -1.2172  0.7480  0.0052
 2999TIP3   OH230411   6.272   2.885  12.297  0.1693 -0.3094 -0.3179
 2999TIP3    H130412   6.206   2.950  12.276  0.1068 -0.3850 -0.3506
 2999TIP3    H230413   6.226   2.821  12.351  0.0775 -0.6548 -0.8043
 3000TIP3   OH230414   4.145   5.362   2.100 -0.2261 -0.1727  0.3918
 3000TIP3    H130415   4.176   5.440   2.055 -1.8319  0.2360 -0.0291
 3000TIP3    H230416   4.056   5.350   2.069  0.3360 -2.7871 -0.3341
 3001TIP3   OH230417   1.125   3.186  13.993 -0.4720 -0.7456  0.1583
 3001TIP3    H130418   1.122   3.091  13.983 -1.4472 -0.8412  1.2504
 3001TIP3    H230419   1.106   3.220  13.906  0.0791 -1.5432 -0.2853
 3002TIP3   OH230420   1.579   3.487  11.194  0.2741  0.4954 -0.1129
 3002TIP3    H130421   1.492   3.486  11.154 -0.1281  1.6995  0.7082
 3002TIP3    H230422   1.624   3.560  11.152  0.9637 -0.2365 -0.6658
 3003TIP3   OH230423   4.577   5.555   3.319  0.4533 -0.0915  0.0783
 3003TIP3    H130424   4.547   5.642   3.293  1.5328  0.4003  0.4849
 3003TIP3    H230425   4.527   5.536   3.399  1.2547  0.7565  0.7882
 3004TIP3   OH230426   6.633   2.716  16.613  0.3074 -0.2767 -0.4192
 3004TIP3    H130427   6.605   2.681  16.697  0.6358  1.3478  0.3949
 3004TIP3    H230428   6.551   2.733  16.565 -0.0061  1.3848  0.6684
 3005TIP3   OH230429   2.596   1.263   0.467  0.1784  0.2505 -0.3500
 3005TIP3    H130430   2.573   1.261   0.375  0.6886 -0.5843 -0.4632
 3005TIP3    H230431   2.526   1.313   0.509 -1.6754 -1.9839 -0.7358
 3006TIP3   OH230432   4.686   4.573  15.638  0.0366  0.1321  0.3623
 3006TIP3    H130433   4.614   4.634  15.623  0.0716  0.0878  0.0034
 3006TIP3    H230434   4.696   4.570  15.733  1.3829  2.2614  0.3119
 3007TIP3   OH230435   4.557   6.731  12.553  0.4473  0.3332 -0.0595
 3007TIP3    H130436   4.523   6.781  12.627 -0.3096  0.2433 -0.3447
 3007TIP3    H230437   4.566   6.642  12.586  1.6208  0.6102  0.3928
 3008TIP3   OH230438   5.750   1.004   0.455 -0.0514 -0.3299  0.4767
 3008TIP3    H130439   5.686   0.954   0.404 -1.4328  0.9301  0.9511
 3008TIP3    H230440   5.697   1.054   0.518  1.3655  1.1605  0.4990
 3009TIP3   OH230441   4.039   1.987  14.952 -0.2450  0.4494 -0.6844
 3009TIP3    H130442   3.997   1.961  14.870  1.0735  0.5879 -1.4209
 3009TIP3    H230443   3.967   2.017  15.008 -1.2512 -0.4002 -1.4920
 3010TIP3   OH230444   6.530   2.730   6.306 -0.0322 -0.2357 -0.1480
 3010TIP3    H130445   6.537   2.704   6.397 -0.3214  0.7982  0.1711
 3010TIP3    H230446   6.480   2.811   6.307 -0.2196 -0.3247 -1.2417
 3011TIP3   OH230447   4.197   3.965   3.970  0.5439  0.1663 -0.6062
 3011TIP3    H130448   4.275   3.910   3.984  0.6360  0.3758 -0.2689
 3011TIP3    H230449   4.136   3.936   4.038  1.6385  2.3647  1.4118
 3012TIP3   OH230450   4.344   5.783   1.045 -0.7330  0.2071 -0.3978
 3012TIP3    H130451   4.299   5.820   1.121  0.2508  0.8043 -0.0958
 3012TIP3    H230452   4.307   5.828   0.970  0.7027  2.1119 -0.0143
 3013TIP3   OH230453   5.657   1.328  11.163  0.1865  0.2922  0.1556
 3013TIP3    H130454   5.565   1.309  11.180  0.3256  0.9985  1.7680
 3013TIP3    H230455   5.676   1.284  11.080 -1.5538  0.0126 -0.0996
 3014TIP3   OH230456   3.279   3.939   0.627  0.4644  0.5133  0.4433
 3014TIP3    H130457   3.264   3.916   0.718  0.2110  0.3433  0.3627
 3014TIP3    H230458   3.282   4.034   0.626  1.2707  0.4933  0.7453
 3015TIP3   OH230459   0.834   4.441   1.893  0.4319 -0.0814 -0.2589
 3015TIP3    H130460   0.823   4.475   1.804 -1.2817 -0.1142 -0.0747
 3015TIP3    H230461   0.784   4.502   1.948 -1.4256 -1.9945  0.2528
 3016TIP3   OH230462   2.991   6.316  12.614  0.2352  0.0928  0.3361
 3016TIP3    H130463   3.054   6.245  12.605 -0.6308 -0.7400  0.7235
 3016TIP3    H230464   2.906   6.274  12.600 -0.2373  1.1784 -0.0895
 3017TIP3   OH230465   2.667   6.423  11.463  0.2771 -0.4116  0.5723
 3017TIP3    H130466   2.644   6.516  11.472  0.6400 -0.2109 -0.5307
 3017TIP3    H230467   2.744   6.412  11.519  0.1793 -0.0626  0.7761
 3018TIP3   OH230468   1.753   2.965   4.910  0.6224 -0.5767  0.5307
 3018TIP3    H130469   1.817   3.017   4.863 -0.5131  0.4499  0.0872
 3018TIP3    H230470   1.675   2.966   4.854  0.0577 -1.3991  1.2766
 3019TIP3   OH230471   1.898   0.862  11.311  0.0808 -0.1288  0.3767
 3019TIP3    H130472   1.884   0.922  11.385  0.4216 -0.9523  1.1108
 3019TIP3    H230473   1.981   0.819  11.331 -0.3087 -1.0582  0.0008
 3020TIP3   OH230474   0.795   2.217   3.223 -0.4762 -0.1710  0.0375
 3020TIP3    H130475   0.762   2.156   3.157  0.2610  0.0568 -0.5463
 3020TIP3    H230476   0.735   2.292   3.219 -0.6767 -0.3355 -0.0780
 3021TIP3   OH230477   3.970   2.404   3.091  0.0373 -0.3158 -0.5348
 3021TIP3    H130478   3.912   2.479   3.104 -0.0632 -0.6834  1.2576
 3021TIP3    H230479   3.970   2.359   3.176  0.8062 -1.8349 -1.3260
 3022TIP3   OH230480   3.545   2.572  12.165 -0.6210  0.2232 -0.1492
 3022TIP3    H130481   3.493   2.607  12.093  1.8143  0.6515 -1.7730
 3022TIP3    H230482   3.519   2.624  12.241 -2.8400  0.1267 -0.8110
 3023TIP3   OH230483   0.363   5.450  15.877  0.3964 -0.6541  0.0311
 3023TIP3    H130484   0.387   5.522  15.817  0.3841 -1.0533 -0.4568
 3023TIP3    H230485   0.413   5.468  15.956  0.4745 -0.1611 -0.1252
 3024TIP3   OH230486   1.344   0.264  10.517 -0.2787  0.4421 -1.1296
 3024TIP3    H130487   1.333   0.176  10.482 -1.8478 -0.3278  1.1607
 3024TIP3    H230488   1.255   0.299  10.523 -0.0089  0.8220  1.2636
 3025TIP3   OH230489   6.431   2.785   3.875 -0.1528 -1.0460  0.1790
 3025TIP3    H130490   6.346   2.749   3.851 -0.0755 -1.8401  1.0516
 3025TIP3    H230491   6.411   2.869   3.916 -0.4708 -0.9777 -0.1159
 3026TIP3   OH230492   2.171   3.382  12.404  0.1749 -0.3247  0.0544
 3026TIP3    H130493   2.180   3.474  12.380  1.3970 -0.4748 -0.1128
 3026TIP3    H230494   2.213   3.334  12.332  0.9399 -0.9279  0.8846
 3027TIP3   OH230495   1.572   5.323   0.973  0.2362 -0.3563  0.1212
 3027TIP3    H130496   1.625   5.274   1.035  1.8765 -0.0656 -1.0029
 3027TIP3    H230497   1.488   5.338   1.018  0.6932 -1.8223  1.4784
 3028TIP3   OH230498   0.443   1.090  14.423 -0.6131 -0.0993  0.2829
 3028TIP3    H130499   0.490   1.075  14.505  0.3233 -2.3458 -0.6197
 3028TIP3    H230500   0.510   1.118  14.362 -0.9701 -0.3576 -0.2293
 3029TIP3   OH230501   0.957   3.381   5.890  0.3690 -0.3311 -0.6430
 3029TIP3    H130502   0.899   3.312   5.923  1.5412 -0.6175  0.8429
 3029TIP3    H230503   1.000   3.416   5.968 -0.4183  2.2892 -1.3431
 3030TIP3   OH230504   1.909   1.854   3.911 -0.0409 -0.0618 -0.6936
 3030TIP3    H130505   1.933   1.934   3.864  1.5430  0.4480  0.9257
 3030TIP3    H230506   1.872   1.797   3.844 -0.8025  1.8660 -1.9505
 3031TIP3   OH230507   3.612   3.460  15.167  0.3381  0.0171  0.6586
 3031TIP3    H130508   3.660   3.510  15.232  1.6212 -0.2080 -0.1112
 3031TIP3    H230509   3.617   3.512  15.087 -3.6961  1.7296  1.3868
 3032TIP3   OH230510   5.015   2.720   6.231  0.3257 -0.1642  0.7328
 3032TIP3    H130511   4.920   2.734   6.224  0.3689 -0.0936  0.3086
 3032TIP3    H230512   5.050   2.803   6.262 -0.0430 -0.9181  3.3391
 3033TIP3   OH230513   1.396   4.624   5.444 -0.1018 -0.2742 -0.1302
 3033TIP3    H130514   1.444   4.570   5.507 -0.4350 -0.8907 -0.4002
 3033TIP3    H230515   1.433   4.711   5.455  0.5359 -0.5810  0.2211
 3034TIP3   OH230516   5.668   2.547   2.007 -0.0487 -0.1782 -0.4781
 3034TIP3    H130517   5.658   2.642   2.000 -1.3539 -0.2142  0.8310
 3034TIP3    H230518   5.710   2.521   1.924  0.7694  1.5888 -0.6283
 3035TIP3   OH230519   2.964   1.286   5.601 -0.9596 -0.0925  0.5352
 3035TIP3    H130520   2.929   1.367   5.639 -1.7922 -0.3740  0.3719
 3035TIP3    H230521   3.003   1.239   5.674  0.4227  0.9190  0.4696
 3036TIP3   OH230522   4.243   6.741  14.202 -0.4753  0.2336 -0.5053
 3036TIP3    H130523   4.274   6.748  14.112  1.8875  0.3634  0.2810
 3036TIP3    H230524   4.223   6.831  14.228 -0.9361  0.2239 -0.8334
 3037TIP3   OH230525   3.441   1.146  14.373 -0.4333 -0.0329 -0.4195
 3037TIP3    H130526   3.477   1.146  14.284 -1.4723 -1.5346 -0.8569
 3037TIP3    H230527   3.442   1.238  14.399  1.1061  0.2672 -1.4796
 3038TIP3   OH230528   6.572   3.520  13.612 -0.4111 -0.4664  0.3762
 3038TIP3    H130529   6.585   3.428  13.634  1.8225  0.0251  1.3372
 3038TIP3    H230530   6.569   3.522  13.517 -1.2941 -1.6255  0.3682
 3039TIP3   OH230531   6.126   2.973   5.690 -0.5968 -0.0832  0.2811
 3039TIP3    H130532   6.161   2.920   5.619  0.9042 -1.2374  1.8521
 3039TIP3    H230533   6.201   3.023   5.722 -1.3598  0.7708  0.7616
 3040TIP3   OH230534   4.076   1.218  12.640 -0.1859 -0.2999  0.1530
 3040TIP3    H130535   4.130   1.191  12.567 -1.4756  0.0408 -0.9474
 3040TIP3    H230536   4.134   1.213  12.716  2.2083  2.7135 -1.3693
 3041TIP3   OH230537   0.630   0.820   6.113  0.1536 -0.0343 -0.3308
 3041TIP3    H130538   0.548   0.812   6.162  0.9276 -0.6799  0.8973
 3041TIP3    H230539   0.617   0.896   6.056 -0.9699  0.4268  0.5230
 3042TIP3   OH230540   0.012   2.515   1.157 -0.2611 -0.2672 -0.6880
 3042TIP3    H130541   0.076   2.444   1.151 -2.0835 -2.0245 -0.1308
 3042TIP3    H230542  -0.033   2.515   1.072 -1.9089 -1.4419  0.1486
 3043TIP3   OH230543   3.166   3.859  15.157 -0.0690 -0.4279 -0.4620
 3043TIP3    H130544   3.090   3.851  15.098  0.3802  0.3316 -1.1564
 3043TIP3    H230545   3.234   3.807  15.114  0.3245  0.3016 -0.7246
 3044TIP3   OH230546   6.226   2.175   2.862  0.0534  0.0157 -0.1954
 3044TIP3    H130547   6.265   2.229   2.930  1.3011  0.0537 -0.9128
 3044TIP3    H230548   6.185   2.102   2.909  0.9202  0.0285  0.5995
 3045TIP3   OH230549   1.729   6.589  10.978  0.2560  0.5144 -0.1834
 3045TIP3    H130550   1.682   6.558  10.900  1.0312  1.0404 -0.8635
 3045TIP3    H230551   1.688   6.542  11.051  0.5097 -1.0895 -1.0616
 3046TIP3   OH230552   1.923   3.702  14.964 -0.3500  0.4537 -0.1701
 3046TIP3    H130553   1.849   3.644  14.947 -0.3452  0.1513  0.8144
 3046TIP3    H230554   1.935   3.750  14.882 -1.0871 -0.1080 -0.6138
 3047TIP3   OH230555   5.437   1.344   6.223 -0.6156 -0.1450 -0.0405
 3047TIP3    H130556   5.524   1.382   6.212 -0.6320 -0.2903 -0.7172
 3047TIP3    H230557   5.378   1.419   6.233 -0.7149  0.0438 -1.8476
 3048TIP3   OH230558   3.047   6.762  15.498 -0.6443  0.5110  0.0416
 3048TIP3    H130559   3.054   6.858  15.501 -0.1810  0.4345  3.3574
 3048TIP3    H230560   3.133   6.733  15.469 -0.1344  1.0607  0.9718
 3049TIP3   OH230561   3.847   5.919  15.580  0.1026 -0.0566 -0.1797
 3049TIP3    H130562   3.925   5.887  15.625 -0.2428 -1.3452 -0.4880
 3049TIP3    H230563   3.794   5.959  15.650  0.4492 -0.3327  0.2428
 3050TIP3   OH230564   3.024   2.509   1.682 -0.1108  0.1288 -0.4578
 3050TIP3    H130565   2.979   2.425   1.678 -1.0136  0.5889 -0.1281
 3050TIP3    H230566   3.075   2.513   1.600 -0.0394 -0.7430 -0.4565
 3051TIP3   OH230567   0.864   2.716  15.335 -0.1433 -0.1957  0.2693
 3051TIP3    H130568   0.933   2.774  15.368 -0.1840 -0.3885  0.6936
 3051TIP3    H230569   0.835   2.757  15.253 -1.7723  1.6344  1.7249
 3052TIP3   OH230570   2.517   0.606   1.266 -0.0157 -0.4638  0.3750
 3052TIP3    H130571   2.443   0.600   1.326  0.2934 -1.4758  0.6772
 3052TIP3    H230572   2.520   0.697   1.238 -0.9848 -0.2892  0.8578
 3053TIP3   OH230573   1.238   0.286   3.493 -0.3358 -0.3085  0.5126
 3053TIP3    H130574   1.217   0.333   3.574 -2.4822  0.8671 -0.6675
 3053TIP3    H230575   1.273   0.202   3.522 -1.8657 -0.2428  2.6735
 3054TIP3   OH230576   1.742   0.608  11.453 -0.0787 -0.2744 -0.5791
 3054TIP3    H130577   1.831   0.642  11.446 -0.7314  1.4960 -0.5373
 3054TIP3    H230578   1.750   0.514  11.435  1.6321  0.0559 -1.5827
 3055TIP3   OH230579   4.970   2.907  16.630  0.1404  0.1476  0.3674
 3055TIP3    H130580   4.988   2.865  16.714 -0.0560  0.0609  0.3648
 3055TIP3    H230581   4.953   2.835  16.570  1.1453  0.1779  0.0508
 3056TIP3   OH230582   4.765   5.015  11.914  0.4037  0.2855  0.0597
 3056TIP3    H130583   4.802   5.101  11.933  0.3228  0.5565 -0.9922
 3056TIP3    H230584   4.836   4.968  11.869 -0.1098  0.3870 -0.8660
 3057TIP3   OH230585   5.943   0.760   0.945  0.0168  0.4895 -0.3452
 3057TIP3    H130586   5.949   0.793   1.035  0.1915 -1.4203  0.3703
 3057TIP3    H230587   5.903   0.674   0.954 -0.4386  0.4883 -2.1653
 3058TIP3   OH230588   0.904   3.312   2.865 -0.8757 -0.6907  0.6328
 3058TIP3    H130589   0.870   3.356   2.787  0.2960 -0.6170  0.1566
 3058TIP3    H230590   0.948   3.234   2.831  3.0296  1.2995  0.8215
 3059TIP3   OH230591   4.493   3.587  13.732 -0.4138  0.1252 -0.2093
 3059TIP3    H130592   4.570   3.568  13.785  0.1919  1.4379 -0.6054
 3059TIP3    H230593   4.426   3.613  13.796  0.1743  1.2474 -0.0529
 3060TIP3   OH230594   1.291   4.616   2.041 -0.6468 -0.1176  0.0147
 3060TIP3    H130595   1.275   4.686   1.978 -1.3521  0.0780  0.4040
 3060TIP3    H230596   1.241   4.643   2.119  0.0067 -0.4840  0.5597
 3061TIP3   OH230597   1.164   5.035  14.721 -0.5785  0.0180  0.1071
 3061TIP3    H130598   1.101   5.103  14.745 -0.2620  0.0185  0.9569
 3061TIP3    H230599   1.212   5.071  14.647 -0.9291  0.4066  0.0689
 3062TIP3   OH230600   1.744   5.100   4.333 -0.0506  0.0657  0.0635
 3062TIP3    H130601   1.682   5.035   4.299 -1.5443  1.1338  0.6428
 3062TIP3    H230602   1.758   5.160   4.261  0.3553 -0.2142 -0.0883
 3063TIP3   OH230603   0.785   0.140  12.112  0.0612 -0.6285 -0.6011
 3063TIP3    H130604   0.741   0.186  12.183 -1.0539  0.1634 -1.8051
 3063TIP3    H230605   0.839   0.074  12.157  0.0806  0.4580  1.0181
 3064TIP3   OH230606   3.205   5.585   1.027  0.5647  0.2810 -0.1427
 3064TIP3    H130607   3.192   5.677   1.005 -0.0692  0.0307 -0.8500
 3064TIP3    H230608   3.191   5.539   0.944  0.4484 -0.4862  0.3003
 3065TIP3   OH230609   4.415   1.041  12.953  0.2534 -0.8155 -0.5830
 3065TIP3    H130610   4.487   1.060  12.893  0.3986  1.5766  0.2619
 3065TIP3    H230611   4.456   0.994  13.025  0.2021 -3.1011 -2.0186
 3066TIP3   OH230612   5.223   2.979   0.764  0.0978 -0.1660  0.6147
 3066TIP3    H130613   5.195   2.942   0.847  0.2346  1.4212  1.3868
 3066TIP3    H230614   5.247   3.069   0.785 -0.0544  0.3112 -1.1760
 3067TIP3   OH230615   1.462   0.388  11.957  0.0074  0.2959  0.0160
 3067TIP3    H130616   1.438   0.331  11.884  0.6953 -0.1495  0.1326
 3067TIP3    H230617   1.385   0.390  12.012  0.2675 -1.2218  0.4525
 3068TIP3   OH230618   0.738   2.281   1.956  0.7624  0.2844  0.0058
 3068TIP3    H130619   0.697   2.205   1.915  2.2566  0.2191 -1.4029
 3068TIP3    H230620   0.730   2.351   1.891  1.6460  0.6378  0.2710
 3069TIP3   OH230621   2.862   5.509  13.717  0.1247 -0.5773  0.0280
 3069TIP3    H130622   2.875   5.600  13.690 -0.6257  0.0718  1.7713
 3069TIP3    H230623   2.819   5.468  13.642 -0.9095  0.8926 -0.2189
 3070TIP3   OH230624   2.455   1.967   4.779  0.8998  0.0790  0.2778
 3070TIP3    H130625   2.424   1.908   4.711  0.0638  0.9064 -0.0744
 3070TIP3    H230626   2.376   2.007   4.815  1.4705  1.3936  0.1252
 3071TIP3   OH230627   4.716   5.032  12.632  0.4107 -0.1734 -0.3338
 3071TIP3    H130628   4.758   4.992  12.708 -0.9923  1.3738  1.3146
 3071TIP3    H230629   4.630   5.059  12.664  1.1061  3.7106 -1.4462
 3072TIP3   OH230630   0.359   2.920   4.055  0.0772 -0.0779  0.2332
 3072TIP3    H130631   0.308   2.970   3.990  1.2257 -0.0335 -0.6708
 3072TIP3    H230632   0.371   2.981   4.128  0.3671  0.5442 -0.3223
 3073TIP3   OH230633   3.046   3.003  12.990  0.2674  0.0622 -0.2497
 3073TIP3    H130634   3.056   3.082  12.936 -1.7414  0.4234 -0.1364
 3073TIP3    H230635   2.980   3.028  13.055 -0.1499 -1.6288 -0.0229
 3074TIP3   OH230636   6.487   1.106  15.073 -0.1828  0.1725 -0.6927
 3074TIP3    H130637   6.435   1.183  15.097  1.5842  1.8720 -2.1401
 3074TIP3    H230638   6.441   1.070  14.997  0.1496  1.0297 -1.3049
 3075TIP3   OH230639   3.625   3.429   2.013 -0.5566 -0.5950 -0.6674
 3075TIP3    H130640   3.603   3.433   1.920 -1.2695  0.0671 -0.4796
 3075TIP3    H230641   3.648   3.519   2.036 -2.6252 -0.2895  0.3108
 3076TIP3   OH230642   5.886   4.810   2.937  0.0217  0.4239 -0.1847
 3076TIP3    H130643   5.815   4.838   2.879  0.9717  0.5994 -1.2877
 3076TIP3    H230644   5.862   4.721   2.963 -1.5411  1.1679  0.9880
 3077TIP3   OH230645   6.658   3.990  15.874  0.0953  0.0342 -0.0513
 3077TIP3    H130646   6.648   3.897  15.893  0.1700  0.1280  0.4656
 3077TIP3    H230647   6.591   4.033  15.926 -0.4723  0.2072 -0.9218
 3078TIP3   OH230648   2.770   0.755  16.493 -0.3440 -0.0571 -0.8828
 3078TIP3    H130649   2.859   0.720  16.502  0.6006  2.5953  0.5678
 3078TIP3    H230650   2.716   0.696  16.547  0.4604 -1.8222 -1.9620
 3079TIP3   OH230651   2.417   5.417  15.415  0.3747  0.3157 -0.2340
 3079TIP3    H130652   2.349   5.427  15.482 -0.3587 -2.3186 -0.5433
 3079TIP3    H230653   2.380   5.356  15.352  2.5986 -0.2861 -0.9868
 3080TIP3   OH230654   2.409   0.473  13.229 -0.0683  0.7085 -0.8681
 3080TIP3    H130655   2.446   0.546  13.180  2.4677  0.2057  0.1585
 3080TIP3    H230656   2.386   0.408  13.162  0.4553  1.2733 -1.6072
 3081TIP3   OH230657   2.395   5.966   0.032 -0.1711 -0.1806  0.5846
 3081TIP3    H130658   2.433   5.917  -0.041 -0.2098 -2.1668  1.8414
 3081TIP3    H230659   2.337   5.902   0.076  0.4137  0.7428  2.7586
 3082TIP3   OH230660   6.129   1.686   4.121  0.2755  0.0103 -0.0595
 3082TIP3    H130661   6.061   1.739   4.162  0.6098 -0.7586  1.5534
 3082TIP3    H230662   6.210   1.713   4.163  0.9577  0.7700 -1.8206
 3083TIP3   OH230663   2.721   4.264   1.696  0.3302  0.3321 -0.3122
 3083TIP3    H130664   2.638   4.289   1.736  0.6308  0.8570 -0.0186
 3083TIP3    H230665   2.724   4.313   1.613 -0.3062 -0.7771 -1.0066
 3084TIP3   OH230666   3.779   1.632  11.821  0.3177  0.4142  0.5718
 3084TIP3    H130667   3.732   1.700  11.773  1.2060  1.1401  0.7110
 3084TIP3    H230668   3.710   1.582  11.864 -0.3081  1.8128  1.2400
 3085TIP3   OH230669   0.319   1.679  12.438  0.0213 -0.2332 -0.0022
 3085TIP3    H130670   0.346   1.587  12.450  0.5198 -0.5458 -3.1355
 3085TIP3    H230671   0.333   1.719  12.524  2.0643 -2.5255  0.8085
 3086TIP3   OH230672   6.233   1.043  12.278 -0.0321 -0.1775 -0.2470
 3086TIP3    H130673   6.270   0.990  12.208  0.1676 -0.3106 -0.0421
 3086TIP3    H230674   6.233   0.985  12.354 -1.0884 -0.3353 -0.3531
 3087TIP3   OH230675   5.405   1.348  10.920  0.1359  0.5464  0.6060
 3087TIP3    H130676   5.352   1.359  10.841  2.2816  1.1162 -0.8029
 3087TIP3    H230677   5.417   1.438  10.952  1.4251  0.5779  0.0841
 3088TIP3   OH230678   4.672   1.435   3.066  0.2450 -0.1343 -0.1425
 3088TIP3    H130679   4.754   1.405   3.025  0.2122  1.6890 -1.5795
 3088TIP3    H230680   4.605   1.379   3.026  0.6028 -0.6386 -0.0559
 3089TIP3   OH230681   6.716   3.472   1.092  0.0243 -0.1384  0.6680
 3089TIP3    H130682   6.740   3.434   1.008  0.0292 -0.6596  0.9044
 3089TIP3    H230683   6.666   3.404   1.137  0.7557 -0.1871  1.4354
 3090TIP3   OH230684   5.094   2.318  10.852  0.4528  0.8930  0.2830
 3090TIP3    H130685   5.075   2.411  10.867  2.0824  1.6230 -1.9020
 3090TIP3    H230686   5.142   2.317  10.769  0.0662 -1.9580  0.0599
 3091TIP3   OH230687   2.768   5.968   2.550  0.1745 -0.0340  0.2473
 3091TIP3    H130688   2.725   5.981   2.466  2.6717  0.2175 -1.0177
 3091TIP3    H230689   2.786   5.874   2.553  1.6646  0.2298 -0.2883
 3092TIP3   OH230690   3.186   3.111   5.704 -0.5137  0.1218 -0.4219
 3092TIP3    H130691   3.125   3.150   5.641 -2.6557  3.6006  3.5811
 3092TIP3    H230692   3.272   3.143   5.677 -1.2936  1.0274 -1.9061
 3093TIP3   OH230693   5.886   1.830   5.550 -0.5185  0.0076  0.0102
 3093TIP3    H130694   5.876   1.827   5.645 -0.1775  0.6105  0.0647
 3093TIP3    H230695   5.973   1.866   5.536 -1.4733  2.2256 -0.5403
 3094TIP3   OH230696   3.323   2.947   5.071 -0.0507 -0.2893  0.2557
 3094TIP3    H130697   3.405   2.897   5.063  0.8269  1.0368  0.7813
 3094TIP3    H230698   3.318   2.996   4.989  0.2082  0.4122  0.6602
 3095TIP3   OH230699   0.888   2.165  11.308 -0.3763  0.0562 -0.1072
 3095TIP3    H130700   0.869   2.251  11.347 -1.5745 -0.0957 -0.3280
 3095TIP3    H230701   0.983   2.158  11.312 -0.3522  0.8013  1.1771
 3096TIP3   OH230702   4.046   4.810   6.107 -0.2384  0.5989  0.9215
 3096TIP3    H130703   4.064   4.775   6.194 -0.1549 -1.3533  0.1516
 3096TIP3    H230704   3.955   4.786   6.090  0.3184 -0.7653 -0.2922
 3097TIP3   OH230705   4.357   2.357   2.146  0.6011  0.1857  0.0092
 3097TIP3    H130706   4.327   2.434   2.098  1.7074  2.0452  2.2233
 3097TIP3    H230707   4.315   2.283   2.102 -1.2652  2.1306 -1.5358
 3098TIP3   OH230708   3.689   0.917  16.406  0.1261 -0.1214 -0.7925
 3098TIP3    H130709   3.620   0.943  16.467  0.1784  0.1254 -0.8416
 3098TIP3    H230710   3.680   0.977  16.332 -0.3959 -0.8813 -1.3530
 3099TIP3   OH230711   2.903   0.777   1.629  0.7408 -0.1638  0.4822
 3099TIP3    H130712   2.860   0.695   1.653  1.4120 -0.3292  1.1329
 3099TIP3    H230713   2.970   0.790   1.697  0.8221  0.7754  0.2278
 3100TIP3   OH230714   4.631   2.106  16.899  0.0495 -0.2960 -0.8861
 3100TIP3    H130715   4.617   2.123  16.806 -1.5041 -0.7158 -0.7448
 3100TIP3    H230716   4.620   2.012  16.908  1.0003 -0.3693 -0.3978
 3101TIP3   OH230717   1.063   4.897   3.917  0.3918 -0.3481  0.2693
 3101TIP3    H130718   1.010   4.840   3.861 -1.1252  0.4245  0.8839
 3101TIP3    H230719   1.014   4.903   3.999  0.4432  1.9076  0.1904
 3102TIP3   OH230720   1.822   1.078  15.832  0.7349  0.4453 -0.8713
 3102TIP3    H130721   1.759   1.058  15.763  0.6804  1.6423 -1.1777
 3102TIP3    H230722   1.835   0.995  15.877  0.3404 -0.2147 -1.9620
 3103TIP3   OH230723   3.070   0.553  11.631 -0.1161  0.4598  0.1043
 3103TIP3    H130724   2.984   0.527  11.664 -0.1028  0.4423  0.1247
 3103TIP3    H230725   3.061   0.646  11.612  0.2239  0.7340  1.2764
 3104TIP3   OH230726   1.278   0.625   0.442  0.3767  0.0672 -0.2635
 3104TIP3    H130727   1.266   0.534   0.471  1.7741  0.8336  2.8818
 3104TIP3    H230728   1.370   0.630   0.416  0.3096  0.6129 -0.4056
 3105TIP3   OH230729   1.913   0.738  15.574  0.1410  0.6296  0.6606
 3105TIP3    H130730   1.949   0.657  15.538  0.8609 -0.1376  3.0168
 3105TIP3    H230731   1.940   0.806  15.513  1.8063 -0.5522  0.0485
 3106TIP3   OH230732   0.709   5.228  13.980 -0.0215 -0.2351  0.4366
 3106TIP3    H130733   0.707   5.320  13.955  0.4048 -0.5524 -0.8056
 3106TIP3    H230734   0.619   5.208  14.005 -0.0666  0.5801  0.9463
 3107TIP3   OH230735   0.498   6.628  14.831 -0.3310 -0.4666  0.1883
 3107TIP3    H130736   0.544   6.617  14.914  0.3329  0.0312 -0.1091
 3107TIP3    H230737   0.541   6.703  14.789 -2.0454  0.6411  0.3414
 3108TIP3   OH230738   6.106   3.082  12.226  0.4336  0.3410  0.8143
 3108TIP3    H130739   6.034   3.140  12.252 -0.0179  0.1677  0.0001
 3108TIP3    H230740   6.109   3.090  12.130 -0.2569 -1.6699  0.5895
 3109TIP3   OH230741   2.599   0.886   4.346 -0.2719 -0.0572 -0.0269
 3109TIP3    H130742   2.602   0.813   4.284 -1.5816  0.7237 -1.0445
 3109TIP3    H230743   2.671   0.943   4.319 -0.5679  0.0658 -0.5846
 3110TIP3   OH230744   4.201   6.289   3.416 -0.6968 -0.2496 -0.5010
 3110TIP3    H130745   4.294   6.303   3.401 -0.1441 -2.0564  1.1249
 3110TIP3    H230746   4.172   6.238   3.339  0.2166 -1.8570  0.1966
 3111TIP3   OH230747   0.671   6.086   5.355 -0.0439  0.4062 -0.2083
 3111TIP3    H130748   0.626   6.112   5.435 -0.2605  1.1897 -0.5791
 3111TIP3    H230749   0.612   6.113   5.284 -0.5206 -1.5848 -0.5891
 3112TIP3   OH230750   6.381   3.927  11.847 -0.3144 -0.0472  0.1550
 3112TIP3    H130751   6.456   3.973  11.885 -0.4056  0.2445 -0.0177
 3112TIP3    H230752   6.339   3.991  11.791 -0.8586 -0.1218  0.4682
 3113TIP3   OH230753   3.443   2.063   4.540  0.1285  0.0465 -0.1898
 3113TIP3    H130754   3.443   2.032   4.631 -1.0182  0.3812 -0.0691
 3113TIP3    H230755   3.504   2.137   4.540 -2.6095  2.4412  1.1776
 3114TIP3   OH230756   0.134   3.735   4.261 -0.1322 -0.1077 -0.3996
 3114TIP3    H130757   0.077   3.670   4.220 -0.0344  0.4544 -1.4490
 3114TIP3    H230758   0.214   3.734   4.208  0.2668  0.1555  0.1847
 3115TIP3   OH230759   0.002   5.411   5.108  0.1512  0.3036 -0.8276
 3115TIP3    H130760  -0.041   5.362   5.038 -1.7520 -0.6167  0.9253
 3115TIP3    H230761   0.073   5.353   5.138 -0.0966 -0.0255 -0.8737
 3116TIP3   OH230762   2.395   2.149  15.905  0.4912  0.0811 -0.3751
 3116TIP3    H130763   2.311   2.187  15.876  1.0577  1.4025 -0.3114
 3116TIP3    H230764   2.421   2.203  15.979  2.2423  0.7633 -1.4599
 3117TIP3   OH230765   1.183   6.511   2.589 -0.1695 -0.0336 -0.6417
 3117TIP3    H130766   1.269   6.469   2.588  0.3872  1.0929 -0.8166
 3117TIP3    H230767   1.186   6.572   2.663 -1.5107 -1.3885  0.5625
 3118TIP3   OH230768   2.728   1.578  15.624 -0.4835  0.2535 -0.0020
 3118TIP3    H130769   2.660   1.511  15.624  0.8914 -1.1735  0.8390
 3118TIP3    H230770   2.810   1.530  15.614  0.5821  1.7163  1.3864
 3119TIP3   OH230771   3.466   1.564  14.822  0.2403  0.0617 -0.1658
 3119TIP3    H130772   3.550   1.611  14.825  0.5269 -0.3683 -1.1770
 3119TIP3    H230773   3.435   1.576  14.732 -0.2801 -0.6566 -0.0863
 3120TIP3   OH230774   2.380   3.275  11.788 -0.0016  0.3992  0.0472
 3120TIP3    H130775   2.440   3.277  11.863 -0.2360 -1.4077  0.3209
 3120TIP3    H230776   2.344   3.363  11.783  1.7621  1.1760  0.6336
 3121TIP3   OH230777   5.450   6.088   0.137  0.1079 -0.4836 -0.1946
 3121TIP3    H130778   5.509   6.054   0.205  0.3636 -0.1133 -0.2299
 3121TIP3    H230779   5.365   6.095   0.180  0.9270  2.8002  1.0618
 3122TIP3   OH230780   3.030   6.316   5.077  0.0397 -0.5361 -0.1118
 3122TIP3    H130781   3.082   6.374   5.022 -0.7378 -0.7622 -1.1187
 3122TIP3    H230782   2.940   6.326   5.044 -0.4843 -0.4821  1.3018
 3123TIP3   OH230783   0.401   5.009   5.132  0.7583 -0.0743 -0.4019
 3123TIP3    H130784   0.410   5.036   5.041 -1.2519 -0.5386 -0.7693
 3123TIP3    H230785   0.328   5.061   5.165  0.5117 -0.9902  0.5100
 3124TIP3   OH230786   1.805   2.706  12.129  0.4707 -0.9024 -0.2565
 3124TIP3    H130787   1.794   2.677  12.219 -1.4165  1.4397  0.3213
 3124TIP3    H230788   1.896   2.685  12.108  1.3436 -0.2523  2.6515
 3125TIP3   OH230789   1.991   4.935  15.368  0.2736  0.0965 -0.0046
 3125TIP3    H130790   1.971   4.961  15.458  0.7935 -1.1299  0.4683
 3125TIP3    H230791   1.908   4.947  15.321 -0.6647 -1.6379  1.1797
 3126TIP3   OH230792   1.381   4.388   3.097 -0.4387  0.0387  0.2723
 3126TIP3    H130793   1.379   4.381   3.193 -0.4403 -0.1038  0.2612
 3126TIP3    H230794   1.424   4.472   3.081  0.2551 -0.2959  0.3837
 3127TIP3   OH230795   6.653   0.432  11.891  0.2399  0.7852  0.0849
 3127TIP3    H130796   6.561   0.441  11.914  0.4611  1.2624  0.7870
 3127TIP3    H230797   6.686   0.364  11.950 -0.3317 -1.4501 -2.0977
 3128TIP3   OH230798   1.594   2.850  16.196  0.2372  0.1561  0.0419
 3128TIP3    H130799   1.584   2.789  16.123 -1.4030 -1.2282  1.3766
 3128TIP3    H230800   1.530   2.821  16.260  2.0894  0.9298  2.3218
 3129TIP3   OH230801   6.701   0.038  13.244  0.7052 -0.1317  0.2750
 3129TIP3    H130802   6.685  -0.013  13.164 -0.2496 -1.0393  1.0269
 3129TIP3    H230803   6.704   0.129  13.214  1.0099 -0.5164 -0.8869
 3130TIP3   OH230804   1.543   3.194  11.977  0.3712 -0.3491 -0.0923
 3130TIP3    H130805   1.555   3.225  12.067 -1.6717 -1.4903  0.5783
 3130TIP3    H230806   1.567   3.102  11.979  1.7762 -0.0218 -1.0599
 3131TIP3   OH230807   4.596   4.536   2.837 -0.1008  0.0454 -0.1926
 3131TIP3    H130808   4.630   4.548   2.926  0.3279  1.1548 -0.4920
 3131TIP3    H230809   4.501   4.529   2.849 -0.1730  1.4845  0.2606
 3132TIP3   OH230810   3.573   3.405  12.817  0.0322  0.2911  0.4167
 3132TIP3    H130811   3.634   3.402  12.744 -1.2476  0.3655 -0.6615
 3132TIP3    H230812   3.578   3.496  12.848 -2.2131  1.2996 -1.9991
 3133TIP3   OH230813   6.149   5.311  16.264 -0.0776  0.3411  0.3296
 3133TIP3    H130814   6.225   5.294  16.321 -1.2124 -0.4992  1.6367
 3133TIP3    H230815   6.152   5.241  16.199 -0.9145 -0.9590  1.6585
 3134TIP3   OH230816   5.089   0.999   1.514 -0.3679  0.3723 -0.1290
 3134TIP3    H130817   5.127   0.930   1.460  2.3509  2.0479 -0.4234
 3134TIP3    H230818   5.099   0.968   1.604  1.0292  0.4579 -0.2491
 3135TIP3   OH230819   2.506   0.802   4.860  0.1385  0.4864  0.4118
 3135TIP3    H130820   2.500   0.867   4.930  2.5959  0.4812  0.6664
 3135TIP3    H230821   2.555   0.846   4.790 -2.1368  0.4385 -1.2555
 3136TIP3   OH230822   5.087   0.711  14.433  0.2110  0.1322  0.4604
 3136TIP3    H130823   5.109   0.764  14.509 -0.9857  2.3076 -0.6408
 3136TIP3    H230824   5.163   0.718  14.376  0.4183 -0.0652  0.7165
 3137TIP3   OH230825   1.201   3.078   5.722 -0.0312  0.1651  0.1158
 3137TIP3    H130826   1.184   2.984   5.731 -0.8282  0.1160 -1.8575
 3137TIP3    H230827   1.277   3.083   5.664 -1.5915  0.8090 -1.9023
 3138TIP3   OH230828   2.472   3.886  14.256  0.7174  0.4416 -0.6595
 3138TIP3    H130829   2.397   3.826  14.258 -0.1952  1.5793 -0.4261
 3138TIP3    H230830   2.547   3.830  14.276 -0.3754 -0.2575  1.6518
 3139TIP3   OH230831   3.385   4.963  13.460  0.1415 -0.5066  0.1647
 3139TIP3    H130832   3.407   5.054  13.480 -0.9553  0.0551 -1.0806
 3139TIP3    H230833   3.380   4.920  13.545 -2.8776  1.4300  1.0364
 3140TIP3   OH230834   1.031   6.283  17.065  0.1507 -0.3845  0.0557
 3140TIP3    H130835   1.105   6.302  17.121  0.6365 -2.0231 -0.0123
 3140TIP3    H230836   0.956   6.325  17.108  1.1620  1.5930 -0.0784
 3141TIP3   OH230837   4.167   3.697  15.042  0.0427 -0.2248  0.0139
 3141TIP3    H130838   4.115   3.671  14.966 -2.1051 -0.4263  1.5152
 3141TIP3    H230839   4.133   3.784  15.065  1.0906  0.0847  0.3971
 3142TIP3   OH230840   0.217   4.956   2.882  0.1489 -0.1032 -0.1807
 3142TIP3    H130841   0.181   5.029   2.933 -3.1346 -1.4576 -0.4547
 3142TIP3    H230842   0.259   4.900   2.947 -0.1567  0.3873  0.4478
 3143TIP3   OH230843   1.411   5.430   2.050  0.1879 -0.3732  0.3380
 3143TIP3    H130844   1.393   5.405   2.141 -0.1659  1.1849  0.7085
 3143TIP3    H230845   1.334   5.479   2.023  1.0976  0.7839 -0.1887
 3144TIP3   OH230846   3.715   3.609   1.738 -0.3811 -0.4274  0.1450
 3144TIP3    H130847   3.798   3.567   1.716  0.3020 -0.0172  1.8826
 3144TIP3    H230848   3.648   3.548   1.706  0.5460 -0.2313 -2.2854
 3145TIP3   OH230849   3.607   0.545   0.580  0.1416  0.3099  0.5088
 3145TIP3    H130850   3.670   0.557   0.509 -0.1980 -0.5230  0.0590
 3145TIP3    H230851   3.609   0.627   0.629  0.1794  0.9833 -0.6264
 3146TIP3   OH230852   0.768   0.657  11.385 -0.3431 -0.0896 -0.2312
 3146TIP3    H130853   0.759   0.640  11.291 -0.6705  0.3197 -0.2762
 3146TIP3    H230854   0.678   0.654  11.419 -0.3756  1.2305 -0.1871
 3147TIP3   OH230855   3.229   2.807   3.092  0.0718 -0.4643 -0.0373
 3147TIP3    H130856   3.199   2.886   3.046 -0.5119 -0.2188  0.7534
 3147TIP3    H230857   3.273   2.755   3.024  0.8050  0.7182 -0.4825
 3148TIP3   OH230858   3.850   3.717   6.300 -0.2489  0.5572  0.2626
 3148TIP3    H130859   3.794   3.733   6.376  0.8857  0.2072  1.1810
 3148TIP3    H230860   3.885   3.803   6.277  0.7338  0.4066  1.1810
 3149TIP3   OH230861   0.162   5.980   2.297  0.3201  0.3017  0.2803
 3149TIP3    H130862   0.090   5.928   2.334  0.1157  0.7005  0.4539
 3149TIP3    H230863   0.147   6.068   2.332 -0.3802  0.8915 -1.4272
 3150TIP3   OH230864   5.940   1.216  16.577 -0.2758  0.0786 -0.2759
 3150TIP3    H130865   5.970   1.170  16.499  0.5005  0.0234  0.0525
 3150TIP3    H230866   5.859   1.171  16.602  1.1472 -1.9322  0.7860
 3151TIP3   OH230867   2.861   1.102  15.006  0.1809 -0.3249  0.7190
 3151TIP3    H130868   2.910   1.084  15.086  0.2743 -3.9485 -0.0858
 3151TIP3    H230869   2.891   1.036  14.944 -1.4935  1.0526 -1.6284
 3152TIP3   OH230870   2.311   5.864  10.877 -0.4372 -0.0532  0.2365
 3152TIP3    H130871   2.232   5.918  10.883 -1.0849 -0.7938 -1.4522
 3152TIP3    H230872   2.283   5.786  10.830  0.1556 -2.5431  3.8308
 3153TIP3   OH230873   0.735   1.172  15.158 -0.5467 -0.2576  0.1039
 3153TIP3    H130874   0.655   1.150  15.206 -0.7914 -0.4777 -0.4019
 3153TIP3    H230875   0.805   1.162  15.223 -0.7968 -1.2433  0.2434
 3154TIP3   OH230876   2.982   2.629   6.345  0.0928  0.6331 -0.6101
 3154TIP3    H130877   2.936   2.704   6.308  0.6159  0.8978 -0.7291
 3154TIP3    H230878   3.070   2.633   6.306  0.1328 -0.0240 -0.5982
 3155TIP3   OH230879   2.123   0.040   1.970 -0.0699  0.0663  0.4168
 3155TIP3    H130880   2.157   0.121   2.008  1.0602  0.0013 -0.4325
 3155TIP3    H230881   2.028   0.054   1.965  0.1894  1.7164 -0.5581
 3156TIP3   OH230882   1.355   4.799  13.467  0.1856 -0.3692  0.2179
 3156TIP3    H130883   1.357   4.895  13.475 -0.4848 -0.2282 -1.1315
 3156TIP3    H230884   1.445   4.772  13.489  0.3068  0.5301  0.9116
 3157TIP3   OH230885   0.279   1.723  13.045  0.4275  0.1876  0.0013
 3157TIP3    H130886   0.366   1.712  13.084 -0.0331  1.1460  1.3098
 3157TIP3    H230887   0.297   1.760  12.958  1.3513 -0.0133  0.0965
 3158TIP3   OH230888   4.495   4.163  16.938 -0.1637 -0.9331 -0.5944
 3158TIP3    H130889   4.546   4.219  16.997 -1.6429 -0.5982  0.3840
 3158TIP3    H230890   4.479   4.218  16.861 -0.2130 -0.5816 -0.3321
 3159TIP3   OH230891   5.810   3.102  13.715 -0.4714  0.6166  0.3415
 3159TIP3    H130892   5.753   3.087  13.640  1.4095 -1.4220 -0.7652
 3159TIP3    H230893   5.886   3.148  13.679  0.3160 -0.1165  1.0178
 3160TIP3   OH230894   5.085   0.335  16.158 -0.4582  0.5047 -0.0590
 3160TIP3    H130895   4.995   0.345  16.125 -0.9606  0.6507  1.3386
 3160TIP3    H230896   5.095   0.241  16.172 -0.0620  0.3817 -1.0996
 3161TIP3   OH230897   4.478   3.099  13.770  0.8394 -0.0805  0.0047
 3161TIP3    H130898   4.476   3.101  13.866 -0.0064  0.7213 -0.0186
 3161TIP3    H230899   4.392   3.064  13.745  0.3676  1.3713 -0.4866
 3162TIP3   OH230900   5.788   6.233   2.777  0.1703 -0.6543 -0.5295
 3162TIP3    H130901   5.720   6.292   2.743 -0.2543 -1.3678 -0.9254
 3162TIP3    H230902   5.745   6.148   2.782  0.4516 -0.7170  1.0844
 3163TIP3   OH230903   6.170   6.173  13.314  0.4461 -0.4547 -0.0316
 3163TIP3    H130904   6.260   6.205  13.308 -0.1778  1.7281  1.2630
 3163TIP3    H230905   6.166   6.129  13.399  0.6402 -1.7492 -0.6908
 3164TIP3   OH230906   5.218   5.217   5.008  0.1649 -0.1194 -0.4153
 3164TIP3    H130907   5.175   5.209   5.093 -0.1456  2.6885 -0.2801
 3164TIP3    H230908   5.150   5.196   4.944 -0.3648  0.5050 -0.0581
 3165TIP3   OH230909   0.935   4.728   2.009 -0.2684  0.0696  0.3138
 3165TIP3    H130910   0.841   4.714   1.997  0.1368 -1.4613 -1.2741
 3165TIP3    H230911   0.947   4.724   2.104 -1.8755  0.8237  0.5716
 3166TIP3   OH230912   5.721   4.656   5.343 -0.0959  0.0692 -0.4306
 3166TIP3    H130913   5.627   4.664   5.327 -0.2760 -0.9076  0.1158
 3166TIP3    H230914   5.729   4.588   5.410  1.2176 -2.3955 -3.0170
 3167TIP3   OH230915   3.307   0.333  12.025 -0.5022  0.0413  0.0241
 3167TIP3    H130916   3.250   0.266  11.988 -0.0934  0.7710 -2.0500
 3167TIP3    H230917   3.272   0.415  11.990  0.3737  0.6912  0.6519
 3168TIP3   OH230918   2.034   1.413   2.267 -0.1403 -0.2527 -0.0558
 3168TIP3    H130919   2.022   1.481   2.201  0.8249 -1.3617 -1.3970
 3168TIP3    H230920   1.974   1.343   2.241  0.3913 -0.7825  0.1458
 3169TIP3   OH230921   4.076   4.996   1.599  0.0063 -0.3813 -0.0139
 3169TIP3    H130922   4.150   4.992   1.539  1.3769  0.9192  1.5550
 3169TIP3    H230923   4.028   5.074   1.573  0.2600 -0.1564  0.1920
 3170TIP3   OH230924   6.493   5.669   3.729  0.1329 -0.5882  0.2070
 3170TIP3    H130925   6.582   5.637   3.712 -0.0033 -1.1200  0.4671
 3170TIP3    H230926   6.493   5.759   3.697  1.2533 -0.0270  1.7269
 3171TIP3   OH230927   1.184   5.679  13.717  0.1586  0.2105 -0.2309
 3171TIP3    H130928   1.261   5.623  13.726  0.5832  0.4837 -2.0211
 3171TIP3    H230929   1.210   5.761  13.758  1.0723  0.5206 -1.3938
 3172TIP3   OH230930   2.853   4.792   1.699  1.0248 -0.1692 -0.1272
 3172TIP3    H130931   2.937   4.747   1.690  0.7399 -0.4329 -1.5765
 3172TIP3    H230932   2.821   4.802   1.610 -1.3701 -1.7518  0.4909
 3173TIP3   OH230933   1.340   3.330  13.088 -0.0621  0.0816  0.0209
 3173TIP3    H130934   1.290   3.293  13.015  2.0239 -1.0212 -0.9215
 3173TIP3    H230935   1.397   3.258  13.116 -0.3541  0.6970  2.3335
 3174TIP3   OH230936   1.022   1.880   5.179  0.5997 -0.0062 -1.1395
 3174TIP3    H130937   0.970   1.877   5.098 -0.3314 -1.5532 -0.5116
 3174TIP3    H230938   1.038   1.788   5.201 -0.8112  0.3204  1.4605
 3175TIP3   OH230939   4.652   5.758  10.865 -0.5433 -0.6550 -0.3541
 3175TIP3    H130940   4.641   5.837  10.813  1.2383  0.9886  1.6815
 3175TIP3    H230941   4.574   5.754  10.921 -2.1343 -2.0648 -2.5801
 3176TIP3   OH230942   5.931   4.073   5.542  0.2736 -0.6209  0.3837
 3176TIP3    H130943   5.990   4.042   5.472 -0.2563  0.5200 -0.5947
 3176TIP3    H230944   5.873   3.998   5.559 -0.6369 -0.4096 -1.5563
 3177TIP3   OH230945   0.231   3.510   0.094  0.1256 -0.1991 -0.0248
 3177TIP3    H130946   0.150   3.545   0.057 -0.0942  1.4633  1.9331
 3177TIP3    H230947   0.241   3.556   0.178  1.5118 -2.5778  1.1561
 3178TIP3   OH230948   5.106   4.130   2.857 -0.5351 -0.0110  0.2287
 3178TIP3    H130949   5.195   4.158   2.837 -1.4313  2.0335 -1.0134
 3178TIP3    H230950   5.099   4.044   2.816  0.5845  0.1894 -0.4087
 3179TIP3   OH230951   3.489   5.232   5.270 -0.3623 -0.0935  0.0711
 3179TIP3    H130952   3.461   5.267   5.354 -0.8035  0.4029 -0.2777
 3179TIP3    H230953   3.489   5.137   5.282  0.4423  0.0143  0.8940
 3180TIP3   OH230954   4.889   3.607  12.125 -0.1083 -0.3949 -0.2040
 3180TIP3    H130955   4.927   3.670  12.186 -0.4735  1.1025 -1.4612
 3180TIP3    H230956   4.794   3.621  12.133 -0.2970 -2.3025  1.0584
 3181TIP3   OH230957   3.700   4.567   1.283 -0.1176 -0.1322  0.2805
 3181TIP3    H130958   3.648   4.516   1.345  0.7269 -0.7546  0.4759
 3181TIP3    H230959   3.637   4.625   1.241 -0.6885  0.3448  1.7756
 3182TIP3   OH230960   2.820   3.107   0.889 -0.1509  0.1299  0.0341
 3182TIP3    H130961   2.790   3.068   0.971  0.3510  0.2159  0.2585
 3182TIP3    H230962   2.788   3.197   0.892 -1.3911 -0.2772 -0.5267
 3183TIP3   OH230963   2.637   4.964  11.419  0.7549  0.6429  0.5329
 3183TIP3    H130964   2.621   5.058  11.408  0.9772  0.5603 -0.5574
 3183TIP3    H230965   2.560   4.922  11.382 -0.2448  0.4239  2.7881
 3184TIP3   OH230966   3.701   6.691   2.045  0.0272 -0.5585 -0.4418
 3184TIP3    H130967   3.634   6.624   2.029  0.5454 -1.5971  1.5976
 3184TIP3    H230968   3.698   6.706   2.139  0.5807  1.6324 -0.7523
 3185TIP3   OH230969   4.874   5.723  15.584  0.8554  0.1408  0.8905
 3185TIP3    H130970   4.916   5.654  15.532  0.8215  0.4273  0.4819
 3185TIP3    H230971   4.838   5.677  15.660  0.4396 -0.3606  0.3939
 3186TIP3   OH230972   2.079   3.874  13.967 -0.3807  0.0521 -0.2043
 3186TIP3    H130973   2.115   3.898  13.881 -2.3538  1.5130 -0.6552
 3186TIP3    H230974   2.096   3.951  14.022  0.7963 -0.8466  0.6985
 3187TIP3   OH230975   5.483   1.972  12.983  0.0237  0.0497 -0.2897
 3187TIP3    H130976   5.490   1.904  13.050 -2.1996 -1.0577 -1.0965
 3187TIP3    H230977   5.567   1.969  12.936  0.4663 -1.1946  0.5637
 3188TIP3   OH230978   6.673   6.624   4.720 -0.6464  0.0812  0.2405
 3188TIP3    H130979   6.702   6.606   4.810  0.3907  2.6764  0.4686
 3188TIP3    H230980   6.651   6.717   4.720  0.2093  0.3242 -2.4108
 3189TIP3   OH230981   3.912   1.378  15.802 -0.3951 -0.1385  0.3028
 3189TIP3    H130982   3.819   1.403  15.809 -0.3187 -0.1694  1.4648
 3189TIP3    H230983   3.959   1.450  15.843 -0.0601 -1.3135  2.0342
 3190TIP3   OH230984   1.153   1.554  13.767 -0.1276 -0.0097  0.2990
 3190TIP3    H130985   1.154   1.501  13.687  0.7397 -1.2825  1.1224
 3190TIP3    H230986   1.191   1.637  13.741 -1.6486  0.2682 -1.0567
 3191TIP3   OH230987   3.685   2.326  16.613  0.2570  0.1370  0.1545
 3191TIP3    H130988   3.598   2.366  16.616  0.7668  1.2571  0.4371
 3191TIP3    H230989   3.669   2.232  16.608 -0.9593  0.3101  0.7811
 3192TIP3   OH230990   4.265   2.940   0.068 -0.1437  0.3895 -0.5694
 3192TIP3    H130991   4.180   2.900   0.084  0.8006 -1.0475  1.0785
 3192TIP3    H230992   4.319   2.868   0.035  0.9223  0.8746  0.0968
 3193TIP3   OH230993   4.306   5.925   4.353  0.1979 -0.1824 -0.0870
 3193TIP3    H130994   4.219   5.938   4.390  0.1395  1.4618 -0.7760
 3193TIP3    H230995   4.365   5.923   4.429 -0.4582 -1.6025  0.3968
 3194TIP3   OH230996   3.210   2.522   3.289  0.1327 -0.8211  0.3101
 3194TIP3    H130997   3.276   2.524   3.359 -1.1650 -3.5476  1.6889
 3194TIP3    H230998   3.154   2.598   3.307  1.7759  0.4299  0.2350
 3195TIP3   OH230999   4.655   0.810  12.459  0.7746  0.6472  0.0544
 3195TIP3    H131000   4.600   0.825  12.536 -0.1516  1.3868 -0.7496
 3195TIP3    H231001   4.744   0.810  12.494  0.2785 -0.7078  1.3863
 3196TIP3   OH231002   2.918   5.819   2.926  0.6277 -0.4016  0.3158
 3196TIP3    H131003   2.848   5.885   2.924  1.7246  0.8027  0.8909
 3196TIP3    H231004   2.984   5.852   2.866  0.0161 -2.3707 -1.5220
 3197TIP3   OH231005   4.325   1.775  13.855 -0.4866 -0.2003 -0.2425
 3197TIP3    H131006   4.340   1.833  13.930  0.8893  0.1232 -0.7460
 3197TIP3    H231007   4.257   1.715  13.885  0.1464 -0.1786  1.3249
 3198TIP3   OH231008   4.045   1.265   3.837 -0.2944  0.6099  0.2072
 3198TIP3    H131009   3.965   1.216   3.855 -1.4140  2.4756  0.5486
 3198TIP3    H231010   4.074   1.296   3.923  1.9301 -1.7060  0.3306
 3199TIP3   OH231011   3.443   3.431   2.617  0.6783 -0.0002 -0.3267
 3199TIP3    H131012   3.415   3.403   2.530 -0.7804  2.6590 -0.7644
 3199TIP3    H231013   3.380   3.392   2.677  1.2328 -1.2041 -0.5137
 3200TIP3   OH231014   1.432   0.526  11.284 -0.2841 -0.1315 -0.2907
 3200TIP3    H131015   1.368   0.566  11.342 -0.0340 -0.6953  0.3927
 3200TIP3    H231016   1.441   0.587  11.212  0.3502  1.2152  0.8978
 3201TIP3   OH231017   6.144   2.454  16.099  0.4154  0.0476 -0.0830
 3201TIP3    H131018   6.144   2.451  16.195 -2.5603  0.7731 -0.0005
 3201TIP3    H231019   6.154   2.363  16.072 -0.4242 -0.3681  0.9614
 3202TIP3   OH231020   4.093   0.724  14.248 -0.7231  0.7588  0.0775
 3202TIP3    H131021   4.023   0.682  14.198 -0.3660  1.1440 -0.7552
 3202TIP3    H231022   4.160   0.745  14.183  1.3728 -2.0294  1.2660
 3203TIP3   OH231023   3.524   5.204  16.900 -0.3344  0.2978 -0.8703
 3203TIP3    H131024   3.504   5.237  16.813  1.1753  1.0788 -0.9512
 3203TIP3    H231025   3.440   5.200  16.945 -1.0200  0.6238 -2.1202
 3204TIP3   OH231026   0.930   5.922  14.260 -0.1829 -0.3675  0.5181
 3204TIP3    H131027   1.015   5.943  14.223  0.6361 -1.3446  1.8312
 3204TIP3    H231028   0.936   5.946  14.352 -1.5640  0.2134  0.4816
 3205TIP3   OH231029   1.355   4.079  11.712  0.0811 -0.3156  0.0865
 3205TIP3    H131030   1.272   4.059  11.756  0.8431  0.1415  1.7569
 3205TIP3    H231031   1.330   4.138  11.640 -0.9878  0.1540  0.8281
 3206TIP3   OH231032   0.428   5.035  13.827  0.7265  0.1582 -0.1972
 3206TIP3    H131033   0.440   5.096  13.899  0.8361  1.2393 -1.1254
 3206TIP3    H231034   0.377   4.963  13.865  0.5865  0.8262  0.8971
 3207TIP3   OH231035   3.452   2.603   2.612  0.0589 -0.3961  0.3288
 3207TIP3    H131036   3.524   2.645   2.659 -1.5856  1.7284  0.9861
 3207TIP3    H231037   3.473   2.615   2.519  0.0106  1.1536  0.5159
 3208TIP3   OH231038   5.760   4.701  10.991 -0.1186  0.3385 -0.0858
 3208TIP3    H131039   5.852   4.688  11.016 -0.1772 -1.9430 -0.9175
 3208TIP3    H231040   5.717   4.724  11.073  0.6305 -1.8740  0.9992
 3209TIP3   OH231041   1.911   3.367  12.481  0.1441 -0.3258  0.4177
 3209TIP3    H131042   1.908   3.285  12.529  1.1986 -1.0138 -0.6514
 3209TIP3    H231043   2.004   3.380  12.462  0.5083  2.9914  3.7051
 3210TIP3   OH231044   1.388   5.095  14.121 -0.1602 -0.4348  0.1155
 3210TIP3    H131045   1.347   5.048  14.048 -0.1217 -1.2058  0.5963
 3210TIP3    H231046   1.421   5.027  14.179 -0.1114  0.1783  0.8189
 3211TIP3   OH231047   1.221   5.588  11.362  0.3232  0.3505  0.2872
 3211TIP3    H131048   1.276   5.526  11.409  0.1426  0.9335  1.2857
 3211TIP3    H231049   1.142   5.595  11.415 -0.0767  0.6636 -0.3450
 3212TIP3   OH231050   1.506   0.726  11.527 -0.1833  0.9349 -0.0592
 3212TIP3    H131051   1.577   0.669  11.500 -0.6442  1.3141 -2.1584
 3212TIP3    H231052   1.430   0.695  11.476 -0.6585  2.7932 -0.5043
 3213TIP3   OH231053   4.471   3.901   0.322  0.0404  0.0893 -0.5094
 3213TIP3    H131054   4.531   3.976   0.315  0.0441  0.0764 -0.6163
 3213TIP3    H231055   4.492   3.862   0.406 -0.1909  0.4083 -0.3001
 3214TIP3   OH231056   1.385   1.296  15.614  0.7952  0.0690 -0.4174
 3214TIP3    H131057   1.478   1.311  15.593  0.7641  0.1454 -0.4985
 3214TIP3    H231058   1.353   1.382  15.640  0.6391  0.1243 -0.7978
 3215TIP3   OH231059   6.349   2.398   1.085  0.0881 -0.1883  0.4992
 3215TIP3    H131060   6.414   2.380   1.017  0.8835 -0.8021  1.4064
 3215TIP3    H231061   6.286   2.327   1.077 -0.1697  0.0944 -0.0115
 3216TIP3   OH231062   1.228   1.222  12.610 -0.2100 -0.4786  0.5837
 3216TIP3    H131063   1.201   1.313  12.601  1.1038 -0.0510  0.8302
 3216TIP3    H231064   1.322   1.223  12.589 -0.3355 -1.8829 -0.0960
 3217TIP3   OH231065   5.353   6.123  13.194 -0.1769 -0.2863 -0.3488
 3217TIP3    H131066   5.293   6.108  13.267  1.8920 -0.8894  1.2807
 3217TIP3    H231067   5.370   6.035  13.158  0.9220 -0.2988  0.1869
 3218TIP3   OH231068   6.046   1.150  16.331 -0.0204 -0.5064  0.5539
 3218TIP3    H131069   6.089   1.209  16.269 -0.6896 -1.0148 -0.3936
 3218TIP3    H231070   6.080   1.063  16.309  2.7880 -0.2633  3.4610
 3219TIP3   OH231071   3.009   3.556   1.216  0.3501  0.4216  0.8702
 3219TIP3    H131072   2.990   3.553   1.310 -0.1311 -0.3499  0.7534
 3219TIP3    H231073   3.105   3.550   1.211  0.4932  2.1168  1.3704
 3220TIP3   OH231074   2.599   6.319  15.189  0.3066 -0.0983  0.0612
 3220TIP3    H131075   2.510   6.344  15.166  0.5352  0.0801 -0.6479
 3220TIP3    H231076   2.600   6.224  15.181  0.1458 -0.1107  0.1941
 3221TIP3   OH231077   1.269   2.707   0.087  0.8117 -0.4669 -0.0652
 3221TIP3    H131078   1.363   2.717   0.106  0.2877  1.2192  1.7549
 3221TIP3    H231079   1.227   2.780   0.133 -1.3915 -1.1037 -1.0047
 3222TIP3   OH231080   1.051   5.518  14.902 -0.1257  0.0203 -0.6190
 3222TIP3    H131081   1.010   5.497  14.818 -2.4346  1.7304  0.0173
 3222TIP3    H231082   0.997   5.588  14.938  0.5825 -0.9386  2.4840
 3223TIP3   OH231083   3.356   3.674   5.435  0.3226  0.3380 -0.1863
 3223TIP3    H131084   3.442   3.713   5.452  1.6548 -2.8679  0.8710
 3223TIP3    H231085   3.361   3.645   5.344  0.3053  0.2457 -0.1576
 3224TIP3   OH231086   5.555   1.463  14.797 -0.3344 -0.1421  0.6434
 3224TIP3    H131087   5.630   1.455  14.856  0.1352  0.4551  0.1496
 3224TIP3    H231088   5.493   1.397  14.827 -0.6443  0.9996  2.5993
 3225TIP3   OH231089   3.246   6.660   5.571 -0.2466 -0.5039 -0.6728
 3225TIP3    H131090   3.221   6.568   5.562  1.2136 -0.7910 -2.0668
 3225TIP3    H231091   3.340   6.661   5.552  0.3076  0.9001  1.9542
 3226TIP3   OH231092   6.209   2.863  13.977  0.2217  0.0174  0.2427
 3226TIP3    H131093   6.214   2.957  13.959 -0.7341 -0.1284 -0.7951
 3226TIP3    H231094   6.121   2.837  13.949  0.9165 -1.4320 -0.6693
 3227TIP3   OH231095   1.537   5.765  11.448 -0.6227  0.3631  0.2194
 3227TIP3    H131096   1.570   5.730  11.531 -0.9069 -0.6541 -0.1008
 3227TIP3    H231097   1.444   5.743  11.448 -0.0459 -2.2485 -1.7129
 3228TIP3   OH231098   4.560   3.349   3.982 -0.3248 -0.2004  0.4185
 3228TIP3    H131099   4.531   3.269   3.938  0.7533 -0.9827  1.1129
 3228TIP3    H231100   4.598   3.319   4.065 -0.6754  1.1023  1.0622
 3229TIP3   OH231101   1.275   0.249   4.147  0.2127  0.0489  0.0206
 3229TIP3    H131102   1.319   0.334   4.151  1.0266 -0.4112  1.1353
 3229TIP3    H231103   1.338   0.192   4.104 -0.6746  0.2115 -1.4944
 3230TIP3   OH231104   3.294   5.367  15.263 -0.4070 -0.1421  0.2981
 3230TIP3    H131105   3.263   5.369  15.173  0.9489  0.0154 -0.1751
 3230TIP3    H231106   3.236   5.305  15.307 -1.7782  0.6030 -0.4077
 3231TIP3   OH231107   1.809   3.802  13.924  0.3578 -0.2932 -0.5391
 3231TIP3    H131108   1.903   3.821  13.925  0.4174 -0.1670 -3.7140
 3231TIP3    H231109   1.767   3.888  13.915 -0.0513 -0.3815  0.4845
 3232TIP3   OH231110   0.690   2.423  14.340 -0.0802 -0.0668  0.6706
 3232TIP3    H131111   0.621   2.416  14.274  0.6820 -0.7890 -0.0533
 3232TIP3    H231112   0.772   2.420  14.290  0.5479 -2.5351  1.7960
 3233TIP3   OH231113   1.124   2.248   4.980 -0.1465  0.2271 -0.1372
 3233TIP3    H131114   1.205   2.290   4.952  0.2092  1.2643  2.3533
 3233TIP3    H231115   1.150   2.159   5.005  0.2548  0.6036  0.7966
 3234TIP3   OH231116   2.534   1.171  14.902 -0.1666 -0.1663 -0.1045
 3234TIP3    H131117   2.452   1.212  14.875  0.8145  1.8739 -0.1454
 3234TIP3    H231118   2.538   1.184  14.997 -0.4777 -1.3638  0.0725
 3235TIP3   OH231119   1.123   2.676   4.134  0.2251 -0.5824  0.3489
 3235TIP3    H131120   1.033   2.702   4.111  0.6726 -0.7319 -1.7182
 3235TIP3    H231121   1.157   2.638   4.053  2.8518  1.3709  0.4980
 3236TIP3   OH231122   5.358   1.320  14.925 -0.2151  0.0289 -0.1471
 3236TIP3    H131123   5.329   1.376  14.997  1.6658  1.5796 -0.5487
 3236TIP3    H231124   5.355   1.231  14.961  1.2072  0.8272  2.0237
 3237TIP3   OH231125   1.952   1.855  13.526  0.5926  0.1725  0.2675
 3237TIP3    H131126   1.995   1.941  13.522 -0.0189  0.4929  0.5128
 3237TIP3    H231127   2.024   1.792  13.517  1.0795  0.7047  0.3766
 3238TIP3   OH231128   1.456   1.249   0.922  0.2955 -0.1336 -0.6866
 3238TIP3    H131129   1.545   1.273   0.947  0.7200 -0.0978 -2.2371
 3238TIP3    H231130   1.403   1.274   0.998  1.5774 -0.0541  0.2022
 3239TIP3   OH231131   0.974   4.251  14.830 -0.4465  0.2182  0.0405
 3239TIP3    H131132   0.907   4.289  14.775 -0.1144  1.6792  0.6275
 3239TIP3    H231133   1.057   4.281  14.792 -0.1893  0.2518  0.6201
 3240TIP3   OH231134   5.762   6.475   5.132  0.3104 -0.3542  0.2929
 3240TIP3    H131135   5.700   6.545   5.152 -0.3041 -0.5500 -0.8584
 3240TIP3    H231136   5.811   6.462   5.213 -1.5347 -0.5972  1.4155
 3241TIP3   OH231137   1.006   3.826   2.471  0.6107  0.6094 -0.0321
 3241TIP3    H131138   1.064   3.750   2.464 -0.2285 -0.2360  1.8389
 3241TIP3    H231139   1.015   3.854   2.563 -2.2404  0.2043  0.3969
 3242TIP3   OH231140   5.867   3.357   1.237 -0.4912 -0.2931  0.2441
 3242TIP3    H131141   5.777   3.355   1.271 -0.6139 -0.3981 -0.0789
 3242TIP3    H231142   5.865   3.296   1.163 -0.4350  0.5454 -0.4564
 3243TIP3   OH231143   2.639   6.137  11.213 -0.1276  0.1030  0.1163
 3243TIP3    H131144   2.609   6.047  11.197 -0.2186  0.1129  0.2284
 3243TIP3    H231145   2.569   6.176  11.266  0.8031 -0.3557  1.7415
 3244TIP3   OH231146   2.551   6.682  11.050 -0.3671 -0.0512  0.2955
 3244TIP3    H131147   2.593   6.671  10.965 -2.6624  0.0127 -0.8755
 3244TIP3    H231148   2.472   6.733  11.032 -0.5226  0.5516  2.5636
 3245TIP3   OH231149   4.320   0.095  15.315 -0.6629  0.2595 -0.1077
 3245TIP3    H131150   4.342   0.010  15.353 -0.6333  0.1885 -0.2815
 3245TIP3    H231151   4.340   0.086  15.222 -3.3855 -0.4760 -0.6620
 3246TIP3   OH231152   2.628   1.339   2.992 -0.2929 -0.5013 -0.2549
 3246TIP3    H131153   2.562   1.370   2.931  0.8619 -1.0365 -1.8084
 3246TIP3    H231154   2.653   1.253   2.958  0.4399 -0.7532  0.9070
 3247TIP3   OH231155   2.661   5.256  14.482 -0.2452 -0.4106  0.4138
 3247TIP3    H131156   2.699   5.340  14.505  0.4454 -0.7917  0.6731
 3247TIP3    H231157   2.730   5.210  14.435  0.1230 -1.6803  2.1476
 3248TIP3   OH231158   6.605   0.064   0.694  0.5355 -1.0319  0.2893
 3248TIP3    H131159   6.699   0.061   0.673  0.7952 -2.4372  1.5794
 3248TIP3    H231160   6.575  -0.026   0.684 -0.7494 -0.5494 -0.3430
 3249TIP3   OH231161   0.801   5.723  13.444  0.4804  0.6831 -0.1660
 3249TIP3    H131162   0.785   5.672  13.523  0.3953  1.2862  0.2081
 3249TIP3    H231163   0.896   5.729  13.438  0.4901  0.5294 -0.1847
 3250TIP3   OH231164   0.451   0.848   0.142  0.5684 -0.3410  0.2519
 3250TIP3    H131165   0.445   0.773   0.082 -0.3628  0.1442 -0.2679
 3250TIP3    H231166   0.523   0.825   0.201  0.2695 -1.6692  0.1224
 3251TIP3   OH231167   1.005   3.770   3.953 -0.3467 -0.4382 -0.1725
 3251TIP3    H131168   0.956   3.783   3.871 -0.4969  0.8913  0.1123
 3251TIP3    H231169   1.013   3.858   3.989  2.6289 -0.5910 -0.4009
 3252TIP3   OH231170   5.758   4.065  13.623 -0.2623  0.1172  0.1644
 3252TIP3    H131171   5.822   4.130  13.650  0.6558  0.0217 -1.6703
 3252TIP3    H231172   5.802   3.981  13.631  0.3203  0.1374 -2.2330
 3253TIP3   OH231173   5.890   1.605   4.653 -0.1224 -0.0748 -0.1555
 3253TIP3    H131174   5.819   1.562   4.700  0.3000  1.5068  2.0068
 3253TIP3    H231175   5.970   1.568   4.690  0.2106  0.9157  0.1451
 3254TIP3   OH231176   0.125   2.340  14.418 -0.9643 -0.3100  0.0579
 3254TIP3    H131177   0.127   2.341  14.514  0.2997 -1.7864  0.0571
 3254TIP3    H231178   0.208   2.302  14.392 -2.2820 -2.1593 -1.5829
 3255TIP3   OH231179   3.668   3.713  11.905  0.4092 -0.3118  0.6465
 3255TIP3    H131180   3.710   3.654  11.842  0.5706 -1.0246  1.4040
 3255TIP3    H231181   3.674   3.666  11.988 -2.3381 -0.6643  0.6832
 3256TIP3   OH231182   5.363   0.996   4.056  0.6313 -0.2890  0.2193
 3256TIP3    H131183   5.366   0.900   4.053  0.1900 -0.4124  2.6564
 3256TIP3    H231184   5.392   1.018   4.145  1.8344  1.8980 -0.6817
 3257TIP3   OH231185   1.165   6.326  11.396 -0.0824 -0.5033  0.0723
 3257TIP3    H131186   1.114   6.286  11.326 -0.1089  0.0678 -0.2417
 3257TIP3    H231187   1.109   6.319  11.473 -0.3410 -0.5295 -0.1156
 3258TIP3   OH231188   3.756   6.118   2.100 -0.3637  0.1569  0.4172
 3258TIP3    H131189   3.763   6.025   2.118  2.9293 -0.2256 -2.2195
 3258TIP3    H231190   3.740   6.159   2.185 -2.6733 -2.8194  1.4873
 3259TIP3   OH231191   4.106   2.146   1.746 -0.2908  0.2009  0.0819
 3259TIP3    H131192   4.027   2.188   1.711 -0.1918 -0.1867 -0.6264
 3259TIP3    H231193   4.167   2.145   1.672 -0.2302 -1.0153  0.1452
 3260TIP3   OH231194   3.775   2.080   4.766  0.2995 -0.4146 -0.5616
 3260TIP3    H131195   3.688   2.118   4.758 -0.1546 -0.8098  2.2175
 3260TIP3    H231196   3.760   1.986   4.772  0.9456 -0.5175 -0.5111
 3261TIP3   OH231197   1.935   6.677   0.626  0.2906 -0.3473 -0.4597
 3261TIP3    H131198   1.953   6.606   0.688  0.4315 -1.2160 -1.4837
 3261TIP3    H231199   1.850   6.711   0.653 -0.6298 -2.1159 -1.0679
 3262TIP3   OH231200   2.646   2.191   4.635 -0.5347  0.5483 -0.1008
 3262TIP3    H131201   2.713   2.128   4.609 -1.3343  0.2565 -1.5064
 3262TIP3    H231202   2.592   2.143   4.697 -0.3213  0.2993 -0.1047
 3263TIP3   OH231203   2.928   2.534  16.150 -0.0196  0.0498  0.4118
 3263TIP3    H131204   2.943   2.613  16.099 -0.5135 -0.6104 -0.7656
 3263TIP3    H231205   2.958   2.556  16.238  0.4093  1.3425 -0.0558
 3264TIP3   OH231206   2.062   3.324   5.005  0.4284 -0.5111  0.0394
 3264TIP3    H131207   2.114   3.252   5.040 -0.0668 -1.0964 -0.4269
 3264TIP3    H231208   2.114   3.402   5.024  1.1382 -1.0233  0.2287
 3265TIP3   OH231209   0.833   4.409  15.921  0.0393  0.3255 -0.0662
 3265TIP3    H131210   0.814   4.501  15.937  1.4679  0.6763 -0.3599
 3265TIP3    H231211   0.854   4.374  16.008 -0.3145  0.3169  0.0161
 3266TIP3   OH231212   5.546   0.328  15.011  0.3681 -0.1310 -0.7337
 3266TIP3    H131213   5.624   0.318  14.958 -0.2942 -2.8728 -1.2582
 3266TIP3    H231214   5.561   0.271  15.087 -1.3274 -1.1463 -1.1343
 3267TIP3   OH231215   3.732   5.597  13.531 -0.2434  0.7598 -0.5715
 3267TIP3    H131216   3.653   5.605  13.478 -0.0151 -1.0725 -1.2264
 3267TIP3    H231217   3.791   5.664  13.496 -1.3795  1.9212 -0.2817
 3268TIP3   OH231218   4.415   5.272  14.661 -0.1475 -0.0926  0.6178
 3268TIP3    H131219   4.467   5.282  14.741  0.1716 -0.7819  0.5017
 3268TIP3    H231220   4.446   5.342  14.604 -0.3438  0.3747  1.0808
 3269TIP3   OH231221   3.347   2.537  13.614 -0.0417 -0.1232  0.6127
 3269TIP3    H131222   3.384   2.563  13.529 -0.7083  0.3555  0.4627
 3269TIP3    H231223   3.253   2.552  13.605 -0.4546 -2.6459  0.5329
 3270TIP3   OH231224   1.544   1.356  11.978  0.1838  0.6731 -0.5774
 3270TIP3    H131225   1.527   1.417  11.906 -1.7184 -0.1612 -0.8693
 3270TIP3    H231226   1.625   1.312  11.954 -0.9028 -0.2451 -2.6835
 3271TIP3   OH231227   1.036   2.407  13.139  0.0126 -0.4948 -0.1379
 3271TIP3    H131228   1.075   2.391  13.225 -0.4625  1.0030  0.3856
 3271TIP3    H231229   1.106   2.447  13.088 -0.2038  0.2498  0.1340
 3272TIP3   OH231230   2.365   6.489   0.974  0.0937  0.2703 -0.0577
 3272TIP3    H131231   2.437   6.549   0.995  1.5637 -1.0965 -1.1360
 3272TIP3    H231232   2.385   6.456   0.887 -0.6623 -1.8685  0.5549
 3273TIP3   OH231233   2.095   5.379   0.783  0.1292  0.1998  0.5949
 3273TIP3    H131234   2.044   5.306   0.750 -0.1949  0.1753  1.1399
 3273TIP3    H231235   2.032   5.432   0.831  0.8114 -0.3900  2.1769
 3274TIP3   OH231236   4.578   5.752   4.758 -0.7405  0.1748  0.0853
 3274TIP3    H131237   4.662   5.748   4.804  0.6311  1.6303 -2.1783
 3274TIP3    H231238   4.518   5.791   4.821  0.3688 -0.4595  1.5788
 3275TIP3   OH231239   2.637   4.143  11.339  0.3261 -0.3548 -0.2925
 3275TIP3    H131240   2.671   4.124  11.251  0.5800 -1.9845  0.1418
 3275TIP3    H231241   2.676   4.075  11.394 -0.0244  0.5244  1.0430
 3276TIP3   OH231242   6.473   5.153  11.715 -0.5243 -0.3401  0.6367
 3276TIP3    H131243   6.427   5.139  11.632  0.8965 -3.0565  0.2564
 3276TIP3    H231244   6.562   5.122  11.698  0.0018 -0.1366  2.9346
 3277TIP3   OH231245   4.936   5.855   3.386  0.1197  0.0566  0.5987
 3277TIP3    H131246   4.890   5.937   3.363  0.9121  0.3908  0.1903
 3277TIP3    H231247   4.866   5.796   3.413 -0.3313  1.3691  2.4528
 3278TIP3   OH231248   4.114   4.144  13.266 -0.4443  0.0532 -0.8525
 3278TIP3    H131249   4.091   4.235  13.286  0.2450 -0.2338  1.3745
 3278TIP3    H231250   4.030   4.097  13.269 -0.5596  0.2970 -0.0816
 3279TIP3   OH231251   2.382   5.962   1.027 -0.2406 -0.4156 -0.3760
 3279TIP3    H131252   2.468   5.919   1.023 -0.9744 -2.2456  1.8541
 3279TIP3    H231253   2.385   6.014   1.107 -1.2550 -0.6486 -0.1756
 3280TIP3   OH231254   5.014   2.834   4.768  0.1340  0.3051 -0.0454
 3280TIP3    H131255   4.929   2.850   4.809  0.0554  2.9042 -1.1400
 3280TIP3    H231256   5.032   2.741   4.786 -1.2461  0.6168  3.2530
 3281TIP3   OH231257   5.004   5.823   1.146  0.0481 -0.2712  0.0120
 3281TIP3    H131258   4.989   5.750   1.207 -0.1189  0.7281  1.1806
 3281TIP3    H231259   5.081   5.795   1.095 -0.5972 -1.6861 -0.2269
 3282TIP3   OH231260   3.726   5.802  12.117  0.1915 -0.1740 -0.0687
 3282TIP3    H131261   3.672   5.733  12.155  3.1162 -1.9288  1.0455
 3282TIP3    H231262   3.752   5.856  12.192  3.1795 -1.6661  0.0575
 3283TIP3   OH231263   5.265   0.738   0.241  0.1051 -0.1041 -0.1205
 3283TIP3    H131264   5.253   0.648   0.270 -0.9893 -0.0877 -0.4878
 3283TIP3    H231265   5.275   0.732   0.146 -0.6294  0.2058 -0.2237
 3284TIP3   OH231266   4.888   4.186   1.185 -0.0334 -0.7009 -0.8845
 3284TIP3    H131267   4.952   4.252   1.159 -0.8687  0.3801 -0.2164
 3284TIP3    H231268   4.934   4.103   1.173  1.6729  0.0782  0.0049
 3285TIP3   OH231269   4.162   5.627   5.264  0.0859 -0.3019 -0.2875
 3285TIP3    H131270   4.239   5.654   5.214 -0.0422 -0.7897 -0.7542
 3285TIP3    H231271   4.143   5.702   5.321 -0.0216  0.4343 -1.2687
 3286TIP3   OH231272   5.172   5.284   1.206 -0.5466  0.6397 -0.1792
 3286TIP3    H131273   5.137   5.213   1.261  0.8139  2.1622  2.8035
 3286TIP3    H231274   5.132   5.270   1.120 -2.2062 -2.2891  0.9858
 3287TIP3   OH231275   1.861   0.178   1.962 -0.3150 -0.0763  0.0193
 3287TIP3    H131276   1.813   0.201   2.042  0.5867  1.2298  0.2111
 3287TIP3    H231277   1.798   0.192   1.891 -0.6608  0.2499  0.3865
 3288TIP3   OH231278   4.277   1.192   0.192 -0.4208  0.1610  0.3919
 3288TIP3    H131279   4.316   1.109   0.161  0.9086  1.2989 -1.0719
 3288TIP3    H231280   4.287   1.189   0.287  0.1901 -1.0923  0.3017
 3289TIP3   OH231281   3.245   5.282  16.388 -1.0182 -0.2849 -0.1569
 3289TIP3    H131282   3.170   5.282  16.447 -2.0571 -0.1964 -1.4645
 3289TIP3    H231283   3.210   5.313  16.304  0.5471  0.0830 -0.6836
 3290TIP3   OH231284   6.281   2.952   2.323  0.5162  0.2987 -0.0593
 3290TIP3    H131285   6.326   2.869   2.339 -0.0296 -0.3460 -1.7787
 3290TIP3    H231286   6.285   2.964   2.228 -0.3867  1.6813  0.0650
 3291TIP3   OH231287   6.529   4.050   3.519 -0.3249  0.1340 -0.1544
 3291TIP3    H131288   6.604   4.045   3.460 -1.5844  0.0240 -1.7709
 3291TIP3    H231289   6.504   3.959   3.535 -0.0025  0.1614  0.5522
 3292TIP3   OH231290   1.889   5.476   3.534 -0.3434  0.1137  0.3333
 3292TIP3    H131291   1.932   5.406   3.584  0.0510  1.4987  1.9603
 3292TIP3    H231292   1.800   5.479   3.568 -0.4215  0.2842  0.1176
 3293TIP3   OH231293   1.392   0.175  15.092 -0.2042  0.2800 -0.0079
 3293TIP3    H131294   1.389   0.240  15.162 -0.9966  0.9353 -0.6362
 3293TIP3    H231295   1.309   0.186  15.045 -0.3556 -1.1883 -0.1213
 3294TIP3   OH231296   0.958   4.013  17.049  0.0811 -0.3059 -0.5802
 3294TIP3    H131297   0.870   4.052  17.051 -0.1051 -0.6540 -1.5590
 3294TIP3    H231298   0.943   3.921  17.026  0.5571 -0.8766  1.2752
 3295TIP3   OH231299   4.949   2.244   3.616  0.0947  0.4383  0.6766
 3295TIP3    H131300   4.969   2.154   3.639 -1.4823  0.2645  1.4218
 3295TIP3    H231301   4.970   2.250   3.523  1.1590 -0.4028  0.8445
 3296TIP3   OH231302   5.022   6.183   6.039  0.4945 -0.4154  0.0069
 3296TIP3    H131303   4.986   6.217   6.121  0.2941  0.7423 -0.5522
 3296TIP3    H231304   5.116   6.185   6.052  0.4703 -0.0609  0.1517
 3297TIP3   OH231305   4.964   0.612   2.840 -0.1868 -0.1959  0.1449
 3297TIP3    H131306   4.967   0.703   2.867 -0.9412 -0.2951  0.5707
 3297TIP3    H231307   4.977   0.562   2.920 -0.5542 -0.4684  0.0386
 3298TIP3   OH231308   3.623   2.061   0.657  0.3063 -0.2111  0.1393
 3298TIP3    H131309   3.666   2.137   0.618  1.2776 -1.0641 -0.4773
 3298TIP3    H231310   3.562   2.031   0.590  1.1912 -1.0178 -0.3301
 3299TIP3   OH231311   2.005   2.649  14.595 -0.5617 -0.1766 -0.4924
 3299TIP3    H131312   1.916   2.670  14.566 -1.7059 -1.9744  1.6626
 3299TIP3    H231313   2.042   2.598  14.522 -1.9802 -1.1003 -0.5894
 3300TIP3   OH231314   2.502   5.469   5.651  0.6340  0.2088  0.0664
 3300TIP3    H131315   2.435   5.439   5.589  0.5169  0.6341 -0.0135
 3300TIP3    H231316   2.457   5.469   5.736  0.4109  0.9046 -0.0540
 3301TIP3   OH231317   1.712   6.069  10.767 -0.5015 -0.4522  0.1544
 3301TIP3    H131318   1.655   6.144  10.783 -1.1469 -0.6396 -1.1723
 3301TIP3    H231319   1.788   6.106  10.720 -0.0632 -0.3783  0.9203
 3302TIP3   OH231320   3.424   2.511  13.149 -0.1031 -0.1437 -0.4826
 3302TIP3    H131321   3.382   2.538  13.067 -2.9212  1.2138  1.3501
 3302TIP3    H231322   3.474   2.587  13.177  0.1601 -0.3059 -0.5153
 3303TIP3   OH231323   0.125   0.296   2.237 -0.0795 -0.2768  0.7957
 3303TIP3    H131324   0.170   0.375   2.265 -1.9822  0.5907  1.5405
 3303TIP3    H231325   0.140   0.233   2.308 -1.2828  0.5138  1.7827
 3304TIP3   OH231326   3.987   3.048  17.000 -0.1666 -0.3982 -0.1195
 3304TIP3    H131327   3.959   3.081  16.915 -1.1735 -0.4883  0.1692
 3304TIP3    H231328   4.080   3.028  16.989 -0.3239 -0.5285 -1.2320
 3305TIP3   OH231329   5.399   6.366  11.557 -0.3425 -0.2823  0.3498
 3305TIP3    H131330   5.462   6.357  11.629 -0.7718 -0.5076  0.7015
 3305TIP3    H231331   5.314   6.366  11.601 -0.5728  0.3529 -0.0915
 3306TIP3   OH231332   3.381   0.936  12.305  0.6312  0.2693 -0.2728
 3306TIP3    H131333   3.333   0.912  12.226 -1.5738  0.7692  0.8671
 3306TIP3    H231334   3.426   0.855  12.331 -2.0166 -1.0697  0.2673
 3307TIP3   OH231335   0.828   2.921   3.675 -0.0815  0.0267  0.1141
 3307TIP3    H131336   0.853   2.830   3.690  0.9243 -0.1018 -2.0792
 3307TIP3    H231337   0.800   2.923   3.583 -2.0369  1.5195  0.7152
 3308TIP3   OH231338   2.296   3.113   6.048 -0.0439  0.1604 -0.5673
 3308TIP3    H131339   2.255   3.190   6.087 -0.0504  0.1871 -0.6265
 3308TIP3    H231340   2.274   3.041   6.107 -1.0034 -0.0010 -1.0993
 3309TIP3   OH231341   4.051   0.923   4.779 -0.0589 -0.0223 -0.2430
 3309TIP3    H131342   3.976   0.930   4.837 -0.3331 -0.5830 -0.5343
 3309TIP3    H231343   4.104   0.853   4.817 -0.6366 -0.9453 -1.1151
 3310TIP3   OH231344   1.850   2.070   3.742  0.4417 -0.6309 -0.0956
 3310TIP3    H131345   1.865   2.140   3.678  0.7973 -0.9962 -0.4158
 3310TIP3    H231346   1.759   2.043   3.727  0.4059 -0.4614 -0.1919
 3311TIP3   OH231347   3.243   5.435   6.178  0.2494 -0.0444 -0.5160
 3311TIP3    H131348   3.293   5.354   6.187 -0.2110 -0.2912 -0.1538
 3311TIP3    H231349   3.299   5.502   6.216 -0.4801 -0.6244  1.6429
 3312TIP3   OH231350   4.564   6.231   4.744 -0.0215 -0.1092  0.2796
 3312TIP3    H131351   4.655   6.230   4.715 -0.1910 -0.6456 -0.2429
 3312TIP3    H231352   4.565   6.190   4.831  0.7035  2.8198  1.6959
 3313TIP3   OH231353   1.750   5.420   0.780 -0.4654  0.0495 -0.1174
 3313TIP3    H131354   1.819   5.421   0.846 -0.7062 -0.6051  0.1492
 3313TIP3    H231355   1.673   5.388   0.827 -1.2708  1.9212 -0.1067
 3314TIP3   OH231356   0.223   1.144  10.653 -0.0830 -0.0857 -0.1377
 3314TIP3    H131357   0.193   1.205  10.586  1.4384  0.0649 -0.7090
 3314TIP3    H231358   0.191   1.179  10.736 -2.1417 -0.3676 -0.7900
 3315TIP3   OH231359   2.049   1.049   3.190 -0.0042  0.4796  0.5524
 3315TIP3    H131360   2.045   1.141   3.214  0.3601  0.7677 -0.4384
 3315TIP3    H231361   2.040   1.050   3.094 -2.6754 -0.6803  0.7353
 3316TIP3   OH231362   3.819   5.487  13.768 -0.4590  0.3183  0.7821
 3316TIP3    H131363   3.888   5.424  13.749  0.7761  1.6754  0.6768
 3316TIP3    H231364   3.799   5.529  13.684 -2.3843 -1.0084  0.5492
 3317TIP3   OH231365   5.073   6.333  14.830 -0.5201  0.2436 -0.3780
 3317TIP3    H131366   5.053   6.267  14.897  2.8393 -1.9040 -1.3553
 3317TIP3    H231367   5.032   6.300  14.750  0.3395 -0.1792 -0.6498
 3318TIP3   OH231368   5.046   5.931   3.633 -0.2870 -0.5537 -0.5454
 3318TIP3    H131369   4.964   5.981   3.631  0.5198  0.7746 -1.5186
 3318TIP3    H231370   5.045   5.880   3.552 -1.1921 -2.2958  0.5320
 3319TIP3   OH231371   3.715   5.107   3.517 -0.5860  0.3053  0.0608
 3319TIP3    H131372   3.712   5.065   3.431  0.5105 -1.9276  1.0623
 3319TIP3    H231373   3.724   5.201   3.498 -0.7139 -0.1280 -2.2454
 3320TIP3   OH231374   1.495   1.015  14.132 -0.9774 -0.2613  0.7697
 3320TIP3    H131375   1.583   0.983  14.114 -0.7300  0.6135  0.3960
 3320TIP3    H231376   1.444   0.937  14.150 -0.6369 -0.9791 -1.2040
 3321TIP3   OH231377   2.339   4.898  10.842 -0.1606  0.7989 -0.2200
 3321TIP3    H131378   2.429   4.875  10.819 -0.3558 -1.2656  0.9228
 3321TIP3    H231379   2.286   4.828  10.804 -1.1725  1.3370  0.1840
 3322TIP3   OH231380   5.909   3.160   5.908  0.4568 -0.2143 -0.1182
 3322TIP3    H131381   5.874   3.145   5.820  2.0775 -1.4079 -0.5873
 3322TIP3    H231382   5.845   3.218   5.949 -0.8938 -0.5237 -1.6973
 3323TIP3   OH231383   4.033   5.137   2.936  0.4251  0.4154 -0.1577
 3323TIP3    H131384   4.051   5.185   2.855  1.4979 -0.8913 -0.7020
 3323TIP3    H231385   4.109   5.082   2.949 -1.0966 -1.7006  0.0634
 3324TIP3   OH231386   5.164   3.690  10.900 -0.2612  0.6835 -0.3041
 3324TIP3    H131387   5.125   3.612  10.940 -0.6496  1.5236  0.9997
 3324TIP3    H231388   5.153   3.677  10.806 -0.2820 -0.8544 -0.1029
 3325TIP3   OH231389   5.565   3.171  14.347 -0.0645  0.0781  0.1827
 3325TIP3    H131390   5.490   3.133  14.301 -0.1526  1.8494 -1.1789
 3325TIP3    H231391   5.564   3.264  14.321  0.5798  0.8544  2.8464
 3326TIP3   OH231392   1.940   0.199  15.615  0.4624 -0.1613 -0.0389
 3326TIP3    H131393   1.928   0.127  15.553  1.3779 -0.6321  0.3265
 3326TIP3    H231394   1.963   0.157  15.697  1.1694  0.5502  0.1403
 3327TIP3   OH231395   3.258   5.266  13.857 -0.2262 -0.5107  0.1954
 3327TIP3    H131396   3.352   5.275  13.869  0.0166 -1.6072 -0.7853
 3327TIP3    H231397   3.241   5.307  13.772 -0.7407  0.2705  0.6670
 3328TIP3   OH231398   5.527   1.593   2.973 -0.2233  0.0502 -0.7739
 3328TIP3    H131399   5.620   1.580   2.958 -0.3888 -0.0790 -1.7321
 3328TIP3    H231400   5.497   1.643   2.897 -1.0057 -0.2072 -0.6433
 3329TIP3   OH231401   3.010   5.918  13.949 -0.5491  0.2122 -0.1817
 3329TIP3    H131402   3.060   5.936  13.869 -0.7451  0.4908 -0.2404
 3329TIP3    H231403   3.066   5.857  13.998 -0.5381 -0.1625 -0.6446
 3330TIP3   OH231404   4.123   4.087  11.519  0.0893  0.1577 -0.2254
 3330TIP3    H131405   4.060   4.030  11.564  0.0963  1.0280  0.8983
 3330TIP3    H231406   4.204   4.035  11.517 -0.3022 -0.4468 -0.4945
 3331TIP3   OH231407   5.337   4.164   1.996 -0.3503 -0.3643 -0.0343
 3331TIP3    H131408   5.324   4.105   2.070  2.1530  1.2745  1.8140
 3331TIP3    H231409   5.407   4.123   1.945  2.1933  1.4432  1.8661
 3332TIP3   OH231410   6.717   1.484   3.552  0.1520  0.4745 -0.3465
 3332TIP3    H131411   6.750   1.419   3.490  1.1789  0.7259 -0.0762
 3332TIP3    H231412   6.708   1.564   3.500  2.3883  1.0616  0.1361
 3333TIP3   OH231413   0.032   0.258  15.017 -0.6275 -0.0303  0.7121
 3333TIP3    H131414  -0.056   0.297  15.019 -0.7121 -0.2408  2.8580
 3333TIP3    H231415   0.016   0.165  14.999 -0.7457  0.1360 -0.0657
 3334TIP3   OH231416   0.509   2.009   3.367 -0.6195 -0.2086 -0.1053
 3334TIP3    H131417   0.454   1.931   3.366 -1.9808  0.7442 -1.4882
 3334TIP3    H231418   0.448   2.081   3.384  0.7366  0.4981  2.0708
 3335TIP3   OH231419   1.504   0.633   2.252 -0.2732  0.5652 -0.1371
 3335TIP3    H131420   1.529   0.636   2.160 -1.6547  0.5570 -0.5270
 3335TIP3    H231421   1.568   0.575   2.293 -0.6896 -0.8149 -1.4272
 3336TIP3   OH231422   1.458   5.931  11.726  0.4743  0.2728 -0.3314
 3336TIP3    H131423   1.431   5.996  11.660  1.6025  1.1293  0.0286
 3336TIP3    H231424   1.529   5.974  11.773  1.6267 -1.4696 -0.4611
 3337TIP3   OH231425   5.035   6.288   2.331  0.3185 -0.0868 -0.6917
 3337TIP3    H131426   4.976   6.261   2.261  0.1924 -0.8846 -0.2820
 3337TIP3    H231427   5.100   6.218   2.337  2.0319  1.3586 -1.9448
 3338TIP3   OH231428   0.394   6.425  13.700 -0.1117  0.0641 -0.2753
 3338TIP3    H131429   0.420   6.497  13.758  0.3247  0.9760 -1.5893
 3338TIP3    H231430   0.300   6.414  13.715 -0.2266  1.0614 -0.2348
 3339TIP3   OH231431   4.204   6.545   3.841  0.3860  0.2423 -0.0123
 3339TIP3    H131432   4.206   6.587   3.927  1.7526  0.8954 -0.3559
 3339TIP3    H231433   4.138   6.476   3.850  0.2927  0.5045  1.4630
 3340TIP3   OH231434   3.037   6.182  14.083  0.3695  0.4349 -0.2903
 3340TIP3    H131435   2.953   6.202  14.124 -0.0110 -1.8625  0.1261
 3340TIP3    H231436   3.015   6.130  14.006  1.4391 -1.2357  0.4892
 3341TIP3   OH231437   2.223   0.665   4.525 -0.6145  0.1218  0.0236
 3341TIP3    H131438   2.246   0.682   4.434  0.3273 -4.4555 -0.6861
 3341TIP3    H231439   2.280   0.593   4.552 -2.3419 -0.0532  3.5729
 3342TIP3   OH231440   5.629   5.436   3.336  0.0423  0.0804  0.6798
 3342TIP3    H131441   5.546   5.402   3.368  0.7764 -3.0500 -0.5285
 3342TIP3    H231442   5.679   5.456   3.416 -0.3447 -1.9987  1.4732
 3343TIP3   OH231443   3.831   1.439   2.664 -0.0402  0.3115  0.0526
 3343TIP3    H131444   3.875   1.384   2.729 -0.7162  0.2553  0.4684
 3343TIP3    H231445   3.864   1.408   2.580  1.4792  0.9427  0.3939
 3344TIP3   OH231446   4.370   2.214  14.818 -0.1571  0.4331 -0.2849
 3344TIP3    H131447   4.313   2.264  14.760  1.4823 -0.3526 -2.6198
 3344TIP3    H231448   4.380   2.269  14.895 -0.2332  2.6957 -1.8632
 3345TIP3   OH231449   0.876   6.777   2.762  0.2244 -0.1041 -0.4110
 3345TIP3    H131450   0.941   6.813   2.822 -0.7333  0.1320  0.4908
 3345TIP3    H231451   0.800   6.758   2.817 -0.0383 -1.5403 -1.2338
 3346TIP3   OH231452   4.099   1.193  13.427  0.6511 -0.0596  0.2201
 3346TIP3    H131453   4.069   1.121  13.372  0.5515 -0.4420  0.7678
 3346TIP3    H231454   4.131   1.150  13.507  0.5584  0.5038  0.5619
 3347TIP3   OH231455   5.075   2.330   0.130 -0.3360  0.2309 -0.4523
 3347TIP3    H131456   5.157   2.365   0.095  0.5478  0.2547  1.5751
 3347TIP3    H231457   5.100   2.248   0.172 -1.3779  0.1511  0.0384
 3348TIP3   OH231458   6.215   4.455   2.753 -0.0661  0.1327  0.0005
 3348TIP3    H131459   6.237   4.486   2.664  0.6686 -0.2630  0.0391
 3348TIP3    H231460   6.259   4.518   2.811 -0.9810  0.6997  0.0950
 3349TIP3   OH231461   3.079   2.595  13.167 -0.0136  0.5020 -0.3118
 3349TIP3    H131462   3.109   2.672  13.214 -0.1004 -0.3237  1.1267
 3349TIP3    H231463   3.151   2.573  13.109  1.0720  0.1528  1.1391
 3350TIP3   OH231464   4.563   1.676  14.091  0.3682 -0.0867  0.1065
 3350TIP3    H131465   4.622   1.706  14.161  0.8589  1.7260 -1.0758
 3350TIP3    H231466   4.494   1.741  14.088 -0.0361 -0.5456 -0.6475
 3351TIP3   OH231467   4.920   5.392  16.829  0.5299  0.0445 -0.3114
 3351TIP3    H131468   4.840   5.443  16.819  0.4740  0.2431  1.0185
 3351TIP3    H231469   4.922   5.367  16.921  2.0446  0.1231 -0.2965
 3352TIP3   OH231470   6.160   2.612   5.684 -0.1184  0.0475  0.0306
 3352TIP3    H131471   6.135   2.544   5.746  0.8775 -0.0245  0.3732
 3352TIP3    H231472   6.237   2.653   5.724  0.4094  0.1363 -1.0589
 3353TIP3   OH231473   6.448   3.074  15.337  0.0901 -0.1525 -0.1786
 3353TIP3    H131474   6.508   3.018  15.287 -1.1902  0.0914 -1.9989
 3353TIP3    H231475   6.373   3.017  15.356  0.1877  0.0148  0.7333
 3354TIP3   OH231476   4.441   0.041   5.327 -0.0715 -0.2443  0.5636
 3354TIP3    H131477   4.449   0.000   5.414  1.3438 -1.2841 -0.0326
 3354TIP3    H231478   4.347   0.049   5.313 -0.3303 -1.0761  1.7515
 3355TIP3   OH231479   6.086   2.214  11.911  0.4916  0.3401  0.4618
 3355TIP3    H131480   6.083   2.118  11.917  1.8490  0.3821  2.4896
 3355TIP3    H231481   5.997   2.239  11.887  0.1555 -1.4338 -0.2742
 3356TIP3   OH231482   4.676   1.295   2.213 -0.0364  0.0365  0.2882
 3356TIP3    H131483   4.769   1.276   2.202 -0.1581 -0.4944  0.1702
 3356TIP3    H231484   4.632   1.229   2.160 -0.4702  0.4774  0.0938
 3357TIP3   OH231485   0.044   4.744   1.279  0.2873  0.1096  0.3352
 3357TIP3    H131486   0.042   4.781   1.367 -1.5226  0.4457  0.1742
 3357TIP3    H231487  -0.031   4.783   1.235  0.7666 -0.5922 -1.1415
 3358TIP3   OH231488   4.548   6.397  16.392 -0.0543 -0.3900  0.1972
 3358TIP3    H131489   4.507   6.338  16.328  0.2672 -0.1247 -0.2497
 3358TIP3    H231490   4.480   6.461  16.413 -0.9372 -1.8048  1.8523
 3359TIP3   OH231491   1.042   5.535  14.422  0.6134 -0.0035 -0.4623
 3359TIP3    H131492   1.084   5.471  14.364 -0.3598  0.9572 -2.2566
 3359TIP3    H231493   1.067   5.620  14.386 -2.0476  0.5911 -0.9922
 3360TIP3   OH231494   6.284   2.344   2.202  0.3558 -0.0374 -0.1574
 3360TIP3    H131495   6.292   2.288   2.124 -0.3820 -1.5240  0.8086
 3360TIP3    H231496   6.355   2.407   2.193  0.5262 -0.4449 -1.8450
 3361TIP3   OH231497   6.693   2.202   1.089  0.0016 -0.3642  0.5622
 3361TIP3    H131498   6.628   2.223   1.156 -0.2787 -0.0503  0.1936
 3361TIP3    H231499   6.775   2.236   1.123  0.2820 -2.1512  1.7508
 3362TIP3   OH231500   6.461   5.309   3.931  0.0765 -0.1921  0.2077
 3362TIP3    H131501   6.416   5.359   3.999  0.1830 -0.5831  0.5683
 3362TIP3    H231502   6.503   5.237   3.978  0.5102 -0.2190 -0.2139
 3363TIP3   OH231503   1.261   3.786   3.708  0.1832 -0.2252  0.2789
 3363TIP3    H131504   1.173   3.749   3.708  0.1221 -0.0810  0.0326
 3363TIP3    H231505   1.274   3.818   3.619  1.2725 -2.0907 -0.2496
 3364TIP3   OH231506   6.342   2.219  11.812 -0.3013  0.2572 -0.7242
 3364TIP3    H131507   6.378   2.306  11.795  0.4161  0.9012  3.4989
 3364TIP3    H231508   6.260   2.236  11.859 -0.1886 -1.3505  0.0897
 3365TIP3   OH231509   2.752   5.408   4.036  0.4128 -0.3044 -0.9458
 3365TIP3    H131510   2.714   5.338   4.089  0.5139  0.1702 -0.2504
 3365TIP3    H231511   2.838   5.375   4.010  0.2136 -0.6847 -1.1298
 3366TIP3   OH231512   3.477   6.313   4.468  0.5327  0.2939 -0.1610
 3366TIP3    H131513   3.527   6.367   4.529 -0.3884 -0.5625  1.4130
 3366TIP3    H231514   3.476   6.226   4.509 -0.7414 -0.1187 -1.0308
 3367TIP3   OH231515   6.019   0.276  11.354  0.3875  0.0750  0.3812
 3367TIP3    H131516   5.934   0.294  11.313  0.2390  0.9041  1.0527
 3367TIP3    H231517   6.048   0.194  11.314 -0.1621  0.4289 -0.7591
 3368TIP3   OH231518   4.468   6.497  11.375 -0.5127 -0.0824 -0.5159
 3368TIP3    H131519   4.534   6.554  11.335 -0.1028  0.3481  0.7482
 3368TIP3    H231520   4.405   6.480  11.306 -1.0862  2.5800 -0.6803
 3369TIP3   OH231521   1.177   1.135  11.997  0.1463  0.7126  0.2761
 3369TIP3    H131522   1.154   1.220  12.035 -0.4274  1.7680 -2.3676
 3369TIP3    H231523   1.259   1.151  11.950  1.3095 -0.7790  1.7344
 3370TIP3   OH231524   0.719   6.140  15.693 -0.0330  0.4246  0.3584
 3370TIP3    H131525   0.669   6.082  15.635  1.3344  0.2000 -0.6081
 3370TIP3    H231526   0.714   6.226  15.651  0.6105  0.3452  0.1076
 3371TIP3   OH231527   3.671   4.014   5.386  0.0188 -0.4724  0.1675
 3371TIP3    H131528   3.629   3.928   5.397 -2.6003  0.4468 -1.9004
 3371TIP3    H231529   3.740   3.998   5.322 -0.0594 -1.1685  0.2478
 3372TIP3   OH231530   0.421   2.019  10.511  0.3505  0.2743 -0.3909
 3372TIP3    H131531   0.414   2.004  10.605 -1.2401 -0.2905 -0.5984
 3372TIP3    H231532   0.497   2.077  10.503  1.6952 -1.2084  1.0635
 3373TIP3   OH231533   3.030   5.727  16.507 -0.7133  0.3705  0.2244
 3373TIP3    H131534   3.059   5.811  16.542 -0.8072  0.4259  0.1649
 3373TIP3    H231535   3.099   5.665  16.534 -1.7063  0.0609  2.1199
 3374TIP3   OH231536   5.244   1.930  12.071 -0.0600  0.6385  0.7838
 3374TIP3    H131537   5.154   1.957  12.089 -0.9501  0.1532 -2.5031
 3374TIP3    H231538   5.269   1.980  11.993  0.2078 -3.6771 -2.0919
 3375TIP3   OH231539   0.660   0.145  11.848 -0.1425 -0.0760  0.0710
 3375TIP3    H131540   0.669   0.127  11.942  0.4519 -2.0837 -0.3673
 3375TIP3    H231541   0.748   0.136  11.813 -0.7017 -1.3663 -1.0243
 3376TIP3   OH231542   2.556   5.077   2.339 -0.2905 -0.1797  0.5875
 3376TIP3    H131543   2.576   5.170   2.325 -0.5781 -0.1909  0.0925
 3376TIP3    H231544   2.605   5.032   2.270 -0.2929 -0.3801  0.7170
 3377TIP3   OH231545   3.932   3.085  11.431 -0.3456 -0.5769 -0.5894
 3377TIP3    H131546   3.960   2.996  11.411 -0.3540 -0.7060 -0.0206
 3377TIP3    H231547   4.008   3.126  11.472 -0.9300 -0.8787  0.8107
 3378TIP3   OH231548   1.663   4.045  13.166 -0.4072 -0.8434 -1.2674
 3378TIP3    H131549   1.612   4.127  13.166  1.4177  0.3660  1.6323
 3378TIP3    H231550   1.725   4.056  13.094  1.7278  1.6159  0.8588
 3379TIP3   OH231551   6.190   3.929  16.017 -0.1941  0.1321  0.5856
 3379TIP3    H131552   6.184   4.021  16.043 -0.0945 -0.0358  1.2143
 3379TIP3    H231553   6.109   3.890  16.051 -0.4355  0.0759 -0.0460
 3380TIP3   OH231554   1.944   6.093  15.964  0.3355 -0.4202  0.4452
 3380TIP3    H131555   1.901   6.053  16.040  0.5463  0.2751  0.9369
 3380TIP3    H231556   1.874   6.101  15.899  0.1056 -0.8358  0.6360
 3381TIP3   OH231557   3.163   2.157   4.693 -0.1855 -0.0549  0.5272
 3381TIP3    H131558   3.248   2.127   4.726 -0.1889 -2.0811 -1.1961
 3381TIP3    H231559   3.106   2.156   4.770  1.1130  0.4922  1.5283
 3382TIP3   OH231560   3.531   2.423  13.755 -0.3432 -0.4346 -0.0495
 3382TIP3    H131561   3.482   2.473  13.690  0.7128  0.2800 -0.3066
 3382TIP3    H231562   3.594   2.371  13.704  0.7148  0.3758  0.4020
 3383TIP3   OH231563   1.682   2.254   2.137 -0.3141 -0.3488  0.0342
 3383TIP3    H131564   1.764   2.209   2.119  0.3461  0.3518  1.2830
 3383TIP3    H231565   1.690   2.338   2.090 -0.5557 -0.5231 -0.3199
 3384TIP3   OH231566   4.382   0.425   3.721 -0.0335  0.1250  0.3749
 3384TIP3    H131567   4.329   0.347   3.738  0.6182 -0.4140 -0.0775
 3384TIP3    H231568   4.331   0.475   3.658 -0.6859  0.3123  1.0394
 3385TIP3   OH231569   2.608   1.479   2.171  0.0220  0.4475  0.1950
 3385TIP3    H131570   2.681   1.523   2.215  0.3172 -0.9661  1.1222
 3385TIP3    H231571   2.531   1.530   2.196  0.5317  1.2669  0.1261
 3386TIP3   OH231572   6.396   4.676  15.809 -0.0487 -0.5658  0.0943
 3386TIP3    H131573   6.417   4.608  15.873 -0.0025  0.1410  0.8410
 3386TIP3    H231574   6.302   4.663  15.791 -0.4476  0.2194  1.5070
 3387TIP3   OH231575   5.046   1.928   2.183  0.3903 -0.2348 -0.5881
 3387TIP3    H131576   4.988   1.934   2.259  0.4500 -1.4573 -0.4492
 3387TIP3    H231577   5.071   1.836   2.178  0.1599 -0.2281 -2.2649
 3388TIP3   OH231578   3.241   0.578  16.211  0.0943  0.9442 -0.0830
 3388TIP3    H131579   3.200   0.492  16.224 -0.9905  1.5995  0.9057
 3388TIP3    H231580   3.326   0.558  16.172  0.2728 -0.6497  1.0664
 3389TIP3   OH231581   4.611   0.161   0.613  0.1430  0.4132 -0.2531
 3389TIP3    H131582   4.524   0.135   0.642 -0.4475  0.7947 -1.6127
 3389TIP3    H231583   4.644   0.085   0.565  0.3181  0.4850 -0.2468
 3390TIP3   OH231584   4.143   5.501   2.971  0.2674  0.5791 -0.0492
 3390TIP3    H131585   4.198   5.570   3.007  1.7780 -0.2522 -0.7010
 3390TIP3    H231586   4.194   5.464   2.899 -0.5770 -1.0934  0.1692
 3391TIP3   OH231587   6.352   2.756   5.885  0.1410 -0.4440 -0.4662
 3391TIP3    H131588   6.263   2.765   5.921  0.1145 -0.0217 -0.6371
 3391TIP3    H231589   6.401   2.828   5.924 -0.3641  1.1945 -2.7149
 3392TIP3   OH231590   3.185   6.679   3.075 -0.1489 -0.5035 -0.4871
 3392TIP3    H131591   3.220   6.738   3.142 -1.4841 -2.4180  2.0052
 3392TIP3    H231592   3.256   6.616   3.060  0.2519  0.0868 -1.0662
 3393TIP3   OH231593   0.020   5.246  16.165  0.1632  0.1599  0.2909
 3393TIP3    H131594   0.040   5.166  16.116  3.1235  1.0993 -0.1728
 3393TIP3    H231595  -0.038   5.295  16.107  0.0338 -0.7194 -0.3394
 3394TIP3   OH231596   5.938   3.553  13.364 -0.5239 -0.0352 -0.2617
 3394TIP3    H131597   5.901   3.475  13.321 -0.5325 -0.9847  1.4127
 3394TIP3    H231598   6.030   3.554  13.337 -0.8590  0.1928 -1.4290
 3395TIP3   OH231599   0.851   1.769  14.961  0.3496  0.1843  0.4569
 3395TIP3    H131600   0.890   1.778  14.874  1.9490  1.9544  1.3259
 3395TIP3    H231601   0.892   1.692  14.998 -0.0573 -0.3578 -0.2117
 3396TIP3   OH231602   2.697   4.325  10.780  0.1846  0.4914 -0.2066
 3396TIP3    H131603   2.626   4.277  10.737 -0.6404 -0.7606  2.4821
 3396TIP3    H231604   2.658   4.409  10.803  0.3588  0.8114 -1.0634
 3397TIP3   OH231605   0.700   6.348   0.278  0.2780  0.1284  0.4117
 3397TIP3    H131606   0.775   6.382   0.326  1.8156 -0.1692 -1.7045
 3397TIP3    H231607   0.707   6.253   0.287  1.2698  0.0049 -1.3238
 3398TIP3   OH231608   1.660   1.593  12.852 -0.7499  0.2567 -0.0822
 3398TIP3    H131609   1.732   1.626  12.798 -0.4624  1.0508  0.7605
 3398TIP3    H231610   1.685   1.503  12.874 -0.3098  0.3234 -0.3069
 3399TIP3   OH231611   3.346   0.642  14.876 -1.0600  0.2462 -0.1638
 3399TIP3    H131612   3.394   0.724  14.877 -0.8048  0.0851  1.4677
 3399TIP3    H231613   3.398   0.582  14.930 -1.0028 -1.1386 -1.6900
 3400TIP3   OH231614   3.593   4.173   4.752 -0.1424 -0.2341  0.3797
 3400TIP3    H131615   3.623   4.084   4.736  1.5440  0.3454  0.1609
 3400TIP3    H231616   3.593   4.181   4.847  0.7209 -0.1568  0.3828
 3401TIP3   OH231617   6.037   4.150  13.796  0.0722  0.0350 -0.1330
 3401TIP3    H131618   6.102   4.093  13.837 -0.4954  0.7676  1.8268
 3401TIP3    H231619   6.079   4.235  13.790 -0.0843  0.0896 -0.4805
 3402TIP3   OH231620   1.795   6.472   2.469 -0.1616  0.1005 -0.4171
 3402TIP3    H131621   1.791   6.377   2.458  0.2548  0.1506 -1.0352
 3402TIP3    H231622   1.840   6.504   2.390 -0.8920  0.8766 -0.5276
 3403TIP3   OH231623   2.923   5.603  11.645 -0.3984  0.0636  0.4791
 3403TIP3    H131624   3.002   5.607  11.591 -0.8637 -0.3105 -0.2293
 3403TIP3    H231625   2.888   5.692  11.642 -0.1427  0.1684  0.5900
 3404TIP3   OH231626   2.999   1.162   3.980  0.1231 -0.1189  0.1887
 3404TIP3    H131627   2.976   1.116   4.061 -0.8322  0.3329  0.1761
 3404TIP3    H231628   2.972   1.253   3.996  0.9338  0.1982 -0.2255
 3405TIP3   OH231629   2.092   5.576   4.588 -0.3503 -1.2371  0.4344
 3405TIP3    H131630   2.099   5.647   4.653  0.3478 -1.1519  0.2618
 3405TIP3    H231631   2.042   5.615   4.516  0.7033 -0.6838  0.0039
 3406TIP3   OH231632   2.776   4.459   0.307 -0.0350  0.0117  0.0286
 3406TIP3    H131633   2.828   4.534   0.334  1.7763 -1.2763  0.2129
 3406TIP3    H231634   2.727   4.434   0.386  0.6459 -0.0451  0.4336
 3407TIP3   OH231635   1.987   2.983   5.738  0.4464  0.4169 -0.4045
 3407TIP3    H131636   2.017   2.923   5.806 -1.6989  1.0672  1.1838
 3407TIP3    H231637   2.014   3.070   5.770 -0.6064  0.7277 -0.3300
 3408TIP3   OH231638   1.926   2.363  14.661 -0.1133 -0.2083  0.2242
 3408TIP3    H131639   1.996   2.353  14.596  0.7757 -2.1421  1.4506
 3408TIP3    H231640   1.847   2.371  14.609  0.8034  0.1303 -1.1490
 3409TIP3   OH231641   6.117   4.965  13.691  0.1557 -0.0117 -0.0893
 3409TIP3    H131642   6.096   4.875  13.667  0.3363  0.2740 -1.3570
 3409TIP3    H231643   6.034   5.012  13.684  0.7264  0.6627 -2.9808
 3410TIP3   OH231644   5.148   1.924   4.268 -0.2250  0.1114 -0.3519
 3410TIP3    H131645   5.086   1.983   4.227 -1.8212 -0.4502  1.2013
 3410TIP3    H231646   5.194   1.883   4.195 -0.7272  1.5201 -1.4866
 3411TIP3   OH231647   2.414   2.895  12.399 -0.0984 -0.5555  1.0751
 3411TIP3    H131648   2.486   2.857  12.449 -0.2283 -1.2210  0.7571
 3411TIP3    H231649   2.445   2.982  12.375  0.0900 -0.3549  2.0419
 3412TIP3   OH231650   0.534   4.903  11.116 -0.0808  0.2181 -0.4115
 3412TIP3    H131651   0.516   4.840  11.186  1.3624  1.2886  0.9663
 3412TIP3    H231652   0.558   4.849  11.041  0.1919 -0.9077  0.4727
 3413TIP3   OH231653   4.171   3.386   3.332 -0.2199  0.2853 -0.1060
 3413TIP3    H131654   4.226   3.435   3.271  0.9470 -1.1091 -0.1850
 3413TIP3    H231655   4.212   3.399   3.417  1.0964 -1.9540 -0.3746
 3414TIP3   OH231656   2.497   1.090   2.010  0.0320 -0.4110 -0.1838
 3414TIP3    H131657   2.434   1.096   2.081  1.0886 -1.3778  0.8535
 3414TIP3    H231658   2.492   0.999   1.980 -0.4126 -0.0112 -1.3623
 3415TIP3   OH231659   3.065   4.401   3.725  0.6357 -0.1757  0.6754
 3415TIP3    H131660   3.136   4.364   3.778  1.0019 -0.0762  0.2580
 3415TIP3    H231661   2.987   4.351   3.751  0.7867 -0.0270  1.4108
 3416TIP3   OH231662   2.822   6.618   0.784  0.0670 -0.1704 -0.7572
 3416TIP3    H131663   2.852   6.707   0.765 -0.1957 -0.2039 -1.3337
 3416TIP3    H231664   2.873   6.562   0.725  1.4582 -0.5699  0.7852
 3417TIP3   OH231665   0.310   1.214   6.115  0.4425  0.3371  0.4023
 3417TIP3    H131666   0.225   1.196   6.157  0.1050 -0.7631 -0.7256
 3417TIP3    H231667   0.373   1.171   6.172 -0.1714 -2.6740 -1.0879
 3418TIP3   OH231668   2.207   2.989   0.852 -0.2497  0.0617  0.3485
 3418TIP3    H131669   2.234   2.950   0.769 -2.8211 -4.3336  1.4343
 3418TIP3    H231670   2.112   2.984   0.851 -0.2988 -0.8337  3.8673
 3419TIP3   OH231671   3.624   4.910   5.419  0.5042  0.3069  0.0080
 3419TIP3    H131672   3.536   4.945   5.411 -0.0499 -1.0883 -0.1947
 3419TIP3    H231673   3.681   4.987   5.418 -0.6907  1.2065 -0.0502
 3420TIP3   OH231674   1.545   5.743  11.946  0.0751  0.2918 -0.1091
 3420TIP3    H131675   1.509   5.680  12.009 -0.7825  1.6998  0.8158
 3420TIP3    H231676   1.470   5.767  11.891  0.4763  0.2709 -0.6679
 3421TIP3   OH231677   1.351   2.412  12.916 -0.3654 -0.3456  0.6849
 3421TIP3    H131678   1.371   2.470  12.842 -2.2401  0.4980  0.7892
 3421TIP3    H231679   1.434   2.371  12.938  1.1699  2.7287  0.9488
 3422TIP3   OH231680   3.190   1.450   5.868 -0.3210 -0.2700  0.0915
 3422TIP3    H131681   3.133   1.408   5.804 -0.7001  2.2638 -1.3397
 3422TIP3    H231682   3.134   1.516   5.909  0.4458 -0.6044  1.6885
 3423TIP3   OH231683   1.974   2.722  13.663  0.0016 -0.3114 -0.9081
 3423TIP3    H131684   1.907   2.767  13.612 -0.6391  0.3153  0.4581
 3423TIP3    H231685   2.018   2.792  13.711  0.5209 -0.8957 -0.5209
 3424TIP3   OH231686   5.514   2.648  13.049 -0.1577 -0.4934 -0.6233
 3424TIP3    H131687   5.495   2.562  13.012  3.1787 -0.6662 -2.0511
 3424TIP3    H231688   5.556   2.696  12.979  0.9334  1.2191  1.1587
 3425TIP3   OH231689   4.939   4.311  12.855 -0.2074 -0.0172 -0.4330
 3425TIP3    H131690   4.877   4.321  12.927  2.4299 -1.3561  2.1402
 3425TIP3    H231691   4.935   4.218  12.833  0.4474  0.0188 -0.7034
 3426TIP3   OH231692   0.169   6.639  13.965  0.2918 -0.5320  0.2902
 3426TIP3    H131693   0.243   6.689  14.002  0.2541 -0.0908 -0.2339
 3426TIP3    H231694   0.208   6.556  13.938  0.5429 -0.4158  0.2871
 3427TIP3   OH231695   0.017   4.048   1.461  0.2580 -0.6759 -0.1503
 3427TIP3    H131696  -0.026   4.049   1.375 -1.0385  0.0608  0.4974
 3427TIP3    H231697  -0.003   4.133   1.499  1.2026 -0.8307  0.7213
 3428TIP3   OH231698   2.598   5.316   2.574 -0.6178 -0.7579 -0.0584
 3428TIP3    H131699   2.637   5.382   2.632 -0.0408 -0.0621 -1.2344
 3428TIP3    H231700   2.601   5.235   2.625 -1.5547  0.1606  1.4885
 3429TIP3   OH231701   1.219   4.939   3.244  0.1184 -0.0858  0.4932
 3429TIP3    H131702   1.280   4.921   3.172  0.6272  0.2866  0.8235
 3429TIP3    H231703   1.257   4.893   3.319 -1.6367 -2.4250  0.0063
 3430TIP3   OH231704   5.890   0.045   3.959 -0.1647 -0.2386 -0.8821
 3430TIP3    H131705   5.934   0.128   3.946 -0.4460  0.2240  1.0341
 3430TIP3    H231706   5.956  -0.021   3.935  0.6918  0.4936 -0.5686
 3431TIP3   OH231707   4.496   6.199  13.892 -0.0892 -0.2288 -0.3691
 3431TIP3    H131708   4.573   6.237  13.851 -0.2152 -0.6331 -0.9889
 3431TIP3    H231709   4.422   6.245  13.851 -0.1351  1.4283  1.5134
 3432TIP3   OH231710   0.884   1.792   0.826  0.1820  0.6288  0.0605
 3432TIP3    H131711   0.849   1.777   0.913  0.5418 -2.5533 -0.2819
 3432TIP3    H231712   0.896   1.887   0.820  1.1579  0.7905  3.8205
 3433TIP3   OH231713   5.459   6.193  15.976 -0.1653  0.0294  0.0553
 3433TIP3    H131714   5.442   6.211  15.883  0.1676  0.3209  0.0501
 3433TIP3    H231715   5.552   6.171  15.979 -0.5272 -1.5227  0.0882
 3434TIP3   OH231716   5.403   1.053   0.942  0.5773  0.2236  0.0878
 3434TIP3    H131717   5.336   1.000   0.898 -1.4138  0.7181  2.3990
 3434TIP3    H231718   5.455   0.989   0.991  0.3307  0.0574  0.1341
 3435TIP3   OH231719   5.959   2.555  16.554  0.2989 -0.6596  0.0387
 3435TIP3    H131720   5.929   2.482  16.498 -0.8824  0.2024 -0.4850
 3435TIP3    H231721   5.947   2.633  16.499  0.6740  0.0245  0.9283
 3436TIP3   OH231722   4.856   4.679   4.337  0.5879 -0.2182 -0.2671
 3436TIP3    H131723   4.792   4.663   4.268 -2.0224 -2.4137  2.4934
 3436TIP3    H231724   4.904   4.596   4.346  0.0631 -0.3734  1.3343
 3437TIP3   OH231725   2.354   1.869  12.638  0.4427 -0.0913 -0.2596
 3437TIP3    H131726   2.314   1.925  12.572 -2.4669 -1.9838 -0.1777
 3437TIP3    H231727   2.357   1.924  12.717 -1.2451  0.3717 -0.5001
 3438TIP3   OH231728   1.451   5.472  14.442  0.5220  0.2115  0.3331
 3438TIP3    H131729   1.515   5.511  14.382 -0.1606  1.2437  0.2482
 3438TIP3    H231730   1.382   5.439  14.384 -0.7290  2.3020  0.5796
 3439TIP3   OH231731   4.923   6.509  13.930 -0.2782 -0.0595  0.1691
 3439TIP3    H131732   5.003   6.466  13.901 -0.4112  0.8096 -1.6066
 3439TIP3    H231733   4.887   6.548  13.850 -0.3989  2.9670  1.6109
 3440TIP3   OH231734   6.676   6.226  13.260 -0.2767 -0.2640 -0.4708
 3440TIP3    H131735   6.762   6.247  13.296 -0.3915 -0.1812 -0.2482
 3440TIP3    H231736   6.692   6.151  13.202 -0.2098 -0.8263  0.2742
 3441TIP3   OH231737   4.144   2.498   4.470 -0.3165 -0.3952 -0.2263
 3441TIP3    H131738   4.215   2.524   4.412  0.9426 -2.5410  0.2879
 3441TIP3    H231739   4.117   2.580   4.512  0.7805  0.6990 -1.5851
 3442TIP3   OH231740   2.414   3.343  12.727  0.5790 -0.0183 -0.0543
 3442TIP3    H131741   2.478   3.311  12.791  0.8154  0.3233 -0.1143
 3442TIP3    H231742   2.450   3.427  12.699  0.1664  0.1107 -0.1899
 3443TIP3   OH231743   1.044   5.886  12.105 -0.0768 -0.1169  0.3466
 3443TIP3    H131744   1.128   5.887  12.152 -0.4734 -0.5104  1.0675
 3443TIP3    H231745   0.987   5.942  12.157 -1.3592 -2.8239  1.9088
 3444TIP3   OH231746   0.963   0.575  13.480 -0.4163  0.3950 -0.0154
 3444TIP3    H131747   1.027   0.589  13.549 -0.0340  3.0408 -0.8579
 3444TIP3    H231748   0.892   0.526  13.522  0.5605  0.5065  1.8016
 3445TIP3   OH231749   4.358   2.201   1.251  0.0098  0.6415 -0.0770
 3445TIP3    H131750   4.453   2.189   1.259 -0.1486 -0.6246 -0.0275
 3445TIP3    H231751   4.344   2.217   1.158  0.4511  2.6176  0.1683
 3446TIP3   OH231752   4.671   6.562   5.543  0.4402  0.3358 -0.0009
 3446TIP3    H131753   4.630   6.553   5.629  0.2415 -0.0679 -0.1353
 3446TIP3    H231754   4.764   6.542   5.559  0.4366  0.4458  0.1554
 3447TIP3   OH231755   6.770   0.296   4.203  0.1091 -0.2955  0.4454
 3447TIP3    H131756   6.757   0.367   4.140 -0.6500  1.1307  2.1582
 3447TIP3    H231757   6.863   0.299   4.225  0.3791 -0.8076 -0.6034
 3448TIP3   OH231758   6.106   0.373   1.178  0.1911  0.2189 -0.8538
 3448TIP3    H131759   6.069   0.312   1.242  1.2602 -0.2758 -0.6806
 3448TIP3    H231760   6.033   0.395   1.120 -0.4094 -0.5939 -0.4195
 3449TIP3   OH231761   0.146   6.499  16.893  0.1133 -0.0571  0.1889
 3449TIP3    H131762   0.216   6.553  16.858  0.1402 -0.3934 -0.2846
 3449TIP3    H231763   0.184   6.455  16.969  0.5154 -0.4943 -0.2654
 3450TIP3   OH231764   0.985   4.376   1.250 -0.4360 -0.3122  0.4539
 3450TIP3    H131765   0.905   4.405   1.293 -0.3608 -0.1520  0.4850
 3450TIP3    H231766   0.980   4.280   1.252 -0.4586 -0.3030  0.7672
 3451TIP3   OH231767   3.919   0.726   2.868 -0.3749  0.3035 -0.8430
 3451TIP3    H131768   3.872   0.663   2.924  1.3057  0.2845  0.6172
 3451TIP3    H231769   3.901   0.697   2.779 -2.1777 -0.3719 -0.2854
 3452TIP3   OH231770   1.141   2.985   4.088 -0.4024  0.5288 -0.4523
 3452TIP3    H131771   1.213   2.943   4.134 -1.8583  0.0108  1.4259
 3452TIP3    H231772   1.140   3.075   4.121 -1.5407  0.1168  0.6809
 3453TIP3   OH231773   1.434   1.231   1.707  0.2249  0.4565  0.2373
 3453TIP3    H131774   1.469   1.142   1.714 -0.8522  0.0387  0.2902
 3453TIP3    H231775   1.355   1.231   1.761  0.6236  1.6599  0.8375
 3454TIP3   OH231776   4.271   6.656  10.993 -0.0347  0.1189  0.5587
 3454TIP3    H131777   4.262   6.677  10.900  0.2505 -0.2155  0.4496
 3454TIP3    H231778   4.269   6.560  10.996 -0.8568  0.1504  0.9896
 3455TIP3   OH231779   3.194   2.590  15.483  0.6463 -0.2000  0.1139
 3455TIP3    H131780   3.141   2.670  15.482 -1.2229 -1.3930  0.6882
 3455TIP3    H231781   3.172   2.547  15.401  0.4461 -0.8824  0.5242
 3456TIP3   OH231782   1.107   0.742  11.019  0.0988 -0.0754  0.4264
 3456TIP3    H131783   1.102   0.646  11.015  0.2928 -0.0423 -0.8772
 3456TIP3    H231784   1.054   0.772  10.945  1.3473  0.7828 -0.1359
 3457TIP3   OH231785   0.255   0.162   0.846 -0.3029  0.6484  0.2310
 3457TIP3    H131786   0.231   0.254   0.837  0.9293  0.9662  0.2002
 3457TIP3    H231787   0.339   0.163   0.891 -0.5723 -0.4884  0.7732
 3458TIP3   OH231788   0.318   6.389  14.033 -0.4669  0.4061  0.2853
 3458TIP3    H131789   0.283   6.302  14.012 -2.1248  1.4320 -1.3618
 3458TIP3    H231790   0.398   6.396  13.982 -1.2594  0.4938 -0.9781
 3459TIP3   OH231791   0.404   1.655   1.415 -0.3420  0.1754 -0.2235
 3459TIP3    H131792   0.386   1.658   1.509  0.4661 -1.5451 -0.0014
 3459TIP3    H231793   0.317   1.655   1.374 -0.7184 -0.4505  0.5720
 3460TIP3   OH231794   6.283   2.072   5.293  0.5025 -0.1290 -0.0445
 3460TIP3    H131795   6.223   2.027   5.353 -0.0782 -0.8867 -1.1680
 3460TIP3    H231796   6.344   2.004   5.266  0.7707  0.2148 -0.3034
 3461TIP3   OH231797   1.973   1.964  12.938  0.3275  0.5313  0.6754
 3461TIP3    H131798   2.057   1.918  12.937 -0.1901 -0.4217  0.5185
 3461TIP3    H231799   1.940   1.951  13.027 -0.3627 -0.4105  0.2923
 3462TIP3   OH231800   3.460   6.085   0.709 -0.1613  0.0036  0.0223
 3462TIP3    H131801   3.461   6.167   0.659  1.5273  1.5595  2.5084
 3462TIP3    H231802   3.489   6.019   0.646 -1.2774  1.3322 -1.9489
 3463TIP3   OH231803   6.197   0.583  12.062  0.0606  0.3528  0.6462
 3463TIP3    H131804   6.114   0.614  12.098 -0.4171 -0.3940  0.2109
 3463TIP3    H231805   6.173   0.507  12.009  0.6870  1.5536 -1.4520
 3464TIP3   OH231806   3.477   1.049  14.106 -0.1531  0.9370  0.3546
 3464TIP3    H131807   3.548   1.109  14.085 -0.3678  1.1196  0.1360
 3464TIP3    H231808   3.415   1.059  14.033  0.7556 -1.0285 -0.7373
 3465TIP3   OH231809   1.984   5.252  15.727 -0.1363 -0.1672  0.4800
 3465TIP3    H131810   2.054   5.287  15.782  1.2749 -1.2969 -0.5492
 3465TIP3    H231811   2.023   5.245  15.640 -1.7390 -0.2271 -0.2532
 3466TIP3   OH231812   2.362   5.465   3.460 -0.6427 -0.4684  0.1709
 3466TIP3    H131813   2.345   5.541   3.404  0.7027 -0.2374  0.0545
 3466TIP3    H231814   2.450   5.435   3.433  0.4191  0.1936  2.7818
 3467TIP3   OH231815   4.281   5.290   5.766  0.0055  0.6905  0.5373
 3467TIP3    H131816   4.213   5.319   5.828 -1.2960 -0.3528 -0.3599
 3467TIP3    H231817   4.353   5.259   5.822 -1.1757 -0.2938  1.5589
 3468TIP3   OH231818   6.699   1.308  14.789 -0.8642  0.0084  0.0463
 3468TIP3    H131819   6.783   1.348  14.768 -0.1015 -1.0471  1.0649
 3468TIP3    H231820   6.648   1.379  14.828  0.2803  0.1480  1.3172
 3469TIP3   OH231821   6.125   0.929  13.119 -0.2646  0.1991  0.2145
 3469TIP3    H131822   6.182   1.005  13.131 -2.0917  1.8701 -1.3209
 3469TIP3    H231823   6.071   0.926  13.199  0.6482 -0.2484  0.8221
 3470TIP3   OH231824   1.162   0.011   3.451 -0.1970  0.4016  0.3533
 3470TIP3    H131825   1.230  -0.052   3.475  0.4218  1.2804  0.9540
 3470TIP3    H231826   1.080  -0.033   3.473  0.2847  0.3903  2.2101
 3471TIP3   OH231827   3.560   4.394   1.472  0.6902  0.3114 -0.2317
 3471TIP3    H131828   3.466   4.413   1.483  0.4734 -0.5347 -0.5856
 3471TIP3    H231829   3.601   4.433   1.548  0.0270  0.5604  0.0060
 3472TIP3   OH231830   1.686   0.481  11.063 -0.0290 -0.1843 -0.5832
 3472TIP3    H131831   1.759   0.533  11.093 -0.8661 -0.2428  1.6282
 3472TIP3    H231832   1.724   0.396  11.042  0.3235 -0.7021  2.0097
 3473TIP3   OH231833   5.063   3.659  15.753 -0.0141  0.6941 -0.0329
 3473TIP3    H131834   5.007   3.594  15.796  0.2900 -0.1765 -0.9335
 3473TIP3    H231835   5.060   3.636  15.660 -2.0853  3.6184 -0.7875
 3474TIP3   OH231836   6.257   3.165   4.615  0.2117  0.1947  0.3870
 3474TIP3    H131837   6.171   3.196   4.645  0.7052  1.1799  0.7974
 3474TIP3    H231838   6.237   3.095   4.553 -0.9042  0.6742  0.1951
 3475TIP3   OH231839   5.617   5.981   5.125 -0.1280  0.4648 -0.7139
 3475TIP3    H131840   5.668   6.028   5.059 -0.4308  3.4079  1.0857
 3475TIP3    H231841   5.571   6.049   5.174 -0.7395 -1.6926  1.8652
 3476TIP3   OH231842   6.623   6.273   1.417 -0.0450  0.0465 -0.3477
 3476TIP3    H131843   6.626   6.339   1.487 -0.5601 -2.4607  2.1402
 3476TIP3    H231844   6.706   6.226   1.424  0.0574  0.0185 -1.6827
 3477TIP3   OH231845   0.284   4.115  11.799 -0.3100  0.1196  0.0868
 3477TIP3    H131846   0.377   4.110  11.821 -0.1135 -0.8033 -0.9180
 3477TIP3    H231847   0.258   4.204  11.823  0.8502  0.4118  0.2722
 3478TIP3   OH231848   3.159   0.138  15.222  0.0672 -0.3405  0.4224
 3478TIP3    H131849   3.064   0.126  15.231 -0.1543  1.7813  1.1471
 3478TIP3    H231850   3.168   0.200  15.150  0.9043 -0.3091  0.5571
 3479TIP3   OH231851   5.522   0.837  15.160  0.3193  0.2434 -0.0008
 3479TIP3    H131852   5.582   0.808  15.091  1.5828  1.4361  0.5710
 3479TIP3    H231853   5.579   0.861  15.233 -1.1086 -3.3885  2.4436
 3480TIP3   OH231854   5.649   1.846   5.426  0.1006  0.0137 -0.1090
 3480TIP3    H131855   5.598   1.899   5.486  2.3068  2.7207 -0.5132
 3480TIP3    H231856   5.717   1.806   5.481 -0.0912 -0.4699 -0.2166
 3481TIP3   OH231857   0.066   2.004   2.280  0.1251 -0.1287 -0.1304
 3481TIP3    H131858   0.060   2.088   2.325 -0.1384 -0.3644  0.2807
 3481TIP3    H231859   0.059   2.026   2.187  2.6372  0.5579 -0.1944
 3482TIP3   OH231860   6.529   5.919   3.665 -0.5976 -0.2311  0.0173
 3482TIP3    H131861   6.589   5.990   3.687 -2.8789  1.5404  0.7296
 3482TIP3    H231862   6.461   5.960   3.611 -2.8108 -1.4919  1.7515
 3483TIP3   OH231863   2.155   0.915  15.874 -0.0063  0.1607  0.0945
 3483TIP3    H131864   2.229   0.855  15.877 -0.2970 -0.2194 -0.3234
 3483TIP3    H231865   2.177   0.984  15.937  1.1204  0.5321 -0.6886
 3484TIP3   OH231866   3.523   4.103   1.550  0.0943  0.0282  0.0141
 3484TIP3    H131867   3.508   4.186   1.507 -0.6052 -0.0935  0.0133
 3484TIP3    H231868   3.443   4.087   1.600  0.8927  0.1792  1.3738
 3485TIP3   OH231869   0.992   1.049  13.661  0.3563  0.2510  0.0568
 3485TIP3    H131870   1.020   1.050  13.569  2.1745 -1.0888  0.5534
 3485TIP3    H231871   1.040   1.121  13.701  0.0366  0.4485  0.0836
 3486TIP3   OH231872   6.035   3.367  12.028  0.5561 -0.9384  0.1983
 3486TIP3    H131873   5.986   3.296  11.985  0.5979 -0.5289 -0.5401
 3486TIP3    H231874   6.116   3.374  11.977 -0.4812  1.2233 -1.2336
 3487TIP3   OH231875   5.720   5.258  15.751  0.6105  0.1892 -0.0107
 3487TIP3    H131876   5.666   5.179  15.755  0.2244  0.5342  2.4490
 3487TIP3    H231877   5.781   5.241  15.679 -0.8052 -1.4614 -0.8837
 3488TIP3   OH231878   3.836   3.883  12.336  0.5113 -0.8264 -0.0658
 3488TIP3    H131879   3.888   3.901  12.415  0.3301 -2.1406  0.3591
 3488TIP3    H231880   3.897   3.895  12.264  0.3692  1.6233  0.1755
 3489TIP3   OH231881   1.162   2.862   4.887  0.0575 -0.4687 -0.1008
 3489TIP3    H131882   1.242   2.811   4.901  0.9986  0.6970 -1.1481
 3489TIP3    H231883   1.159   2.877   4.793  0.1999  2.0407  0.2597
 3490TIP3   OH231884   3.989   5.187   1.378  0.3045 -0.1804  0.2745
 3490TIP3    H131885   4.016   5.266   1.330  0.8119 -0.9104 -0.6567
 3490TIP3    H231886   3.982   5.120   1.310  0.8304 -1.1781  1.2064
 3491TIP3   OH231887   4.552   0.930  12.203 -0.2004 -0.2905 -0.7897
 3491TIP3    H131888   4.603   0.873  12.260  2.2348  0.8713 -1.7452
 3491TIP3    H231889   4.548   0.883  12.119  0.4762  0.2311 -1.1174
 3492TIP3   OH231890   0.262   6.071   2.002 -0.6987  0.0122 -0.0920
 3492TIP3    H131891   0.238   6.026   2.083  0.2778 -2.4954 -1.1789
 3492TIP3    H231892   0.355   6.052   1.990 -0.6878  0.8918 -1.4779
 3493TIP3   OH231893   0.722   2.248   4.660  0.1747  0.0977  0.1614
 3493TIP3    H131894   0.702   2.300   4.738  2.6519  0.1584  0.7955
 3493TIP3    H231895   0.750   2.312   4.595 -4.1587  0.3121 -1.6439
 3494TIP3   OH231896   2.826   4.074  10.750  0.2737 -0.0129 -0.3977
 3494TIP3    H131897   2.801   4.165  10.766 -0.8271  0.1687 -2.9975
 3494TIP3    H231898   2.776   4.025  10.816  0.8623  1.2363  1.0136
 3495TIP3   OH231899   4.236   4.985  15.169  0.2253 -0.4984  0.1001
 3495TIP3    H131900   4.177   5.057  15.144  1.1657  0.6053  1.0404
 3495TIP3    H231901   4.318   5.004  15.124  0.2424 -1.3942 -0.2532
 3496TIP3   OH231902   4.621   0.991  15.268  0.9518 -0.1108  0.5068
 3496TIP3    H131903   4.641   0.957  15.181 -0.7100  2.1373 -0.8065
 3496TIP3    H231904   4.549   0.936  15.299  1.9764 -1.3290  0.7616
 3497TIP3   OH231905   0.443   3.160   1.546  0.3667  0.0400  0.2575
 3497TIP3    H131906   0.410   3.246   1.521 -1.5251 -0.8167 -0.2405
 3497TIP3    H231907   0.379   3.127   1.608  2.2819 -0.0735  2.2732
 3498TIP3   OH231908   4.095   1.831  12.710 -0.1870  0.0045  0.0296
 3498TIP3    H131909   4.040   1.807  12.635 -0.2790  1.9077 -0.5245
 3498TIP3    H231910   4.089   1.926  12.715  2.1712  0.1598  0.6383
 3499TIP3   OH231911   1.166   6.650  15.000 -0.3272 -0.4215 -0.1269
 3499TIP3    H131912   1.095   6.595  14.967 -1.1026  0.4692  0.0568
 3499TIP3    H231913   1.241   6.627  14.945 -1.1775 -0.1852 -1.4089
 3500TIP3   OH231914   1.006   2.784  14.460  0.2036  0.6321 -0.3989
 3500TIP3    H131915   0.915   2.803  14.436 -0.7920 -1.1565  1.8409
 3500TIP3    H231916   1.018   2.825  14.545  1.1158 -0.1600 -0.1368
 3501TIP3   OH231917   2.102   6.575  11.339 -0.3013  0.5137 -0.4783
 3501TIP3    H131918   2.166   6.504  11.348 -1.4395 -0.5193 -0.5048
 3501TIP3    H231919   2.023   6.532  11.306 -0.9877  1.7975 -0.5143
 3502TIP3   OH231920   2.809   1.270  12.584 -0.4362  0.2178  0.3706
 3502TIP3    H131921   2.732   1.214  12.573  0.7212 -1.1117 -1.1068
 3502TIP3    H231922   2.775   1.349  12.626 -2.6734 -0.2214 -0.5500
 3503TIP3   OH231923   6.580   6.370   1.010  0.3701 -0.3901 -0.8637
 3503TIP3    H131924   6.662   6.348   1.054  0.4029  0.5622 -0.4362
 3503TIP3    H231925   6.596   6.352   0.918  1.6844  1.5311 -1.0412
 3504TIP3   OH231926   4.325   1.967  11.596  0.2788 -0.1542  0.4602
 3504TIP3    H131927   4.318   2.025  11.520  2.0040  0.0747  0.4533
 3504TIP3    H231928   4.403   1.997  11.642 -0.3911 -0.7068  1.9863
 3505TIP3   OH231929   2.668   6.361  14.166  0.4147 -0.2644  0.2990
 3505TIP3    H131930   2.720   6.288  14.200  0.1244 -0.4281  0.3940
 3505TIP3    H231931   2.644   6.412  14.243 -0.4871 -0.7944  0.3779
 3506TIP3   OH231932   1.052   5.863  10.366  0.7023 -0.0902 -0.0301
 3506TIP3    H131933   1.036   5.885  10.274  0.6242 -0.5991 -0.1372
 3506TIP3    H231934   1.124   5.920  10.392 -0.4242  1.3344  0.0950
 3507TIP3   OH231935   0.815   5.149  15.742  0.1312  0.1450 -0.1016
 3507TIP3    H131936   0.830   5.240  15.717 -1.4736  1.0949  2.2432
 3507TIP3    H231937   0.734   5.124  15.698  1.9931 -1.1370 -3.0248
 3508TIP3   OH231938   3.771   6.570  13.908  0.1723 -0.6079  0.0945
 3508TIP3    H131939   3.684   6.589  13.944  1.1299  1.8766  1.1662
 3508TIP3    H231940   3.753   6.540  13.819 -1.7758  0.0062  0.2390
 3509TIP3   OH231941   5.989   4.333  11.794 -0.4884  0.0796  0.0433
 3509TIP3    H131942   5.952   4.305  11.710  1.2332  0.4404 -0.8666
 3509TIP3    H231943   6.012   4.425  11.780  0.1175  0.0428  0.7888
 3510TIP3   OH231944   4.291   5.399  13.062  0.0174 -0.2766  0.3347
 3510TIP3    H131945   4.315   5.308  13.044  0.0645  0.0389 -1.2845
 3510TIP3    H231946   4.313   5.412  13.154 -0.3554 -2.0140  0.6832
 3511TIP3   OH231947   4.708   4.816  16.323  0.0940  0.3443 -0.1426
 3511TIP3    H131948   4.790   4.788  16.284  0.1595  0.7330 -0.2906
 3511TIP3    H231949   4.734   4.857  16.406  0.0222  0.1779 -0.0407
 3512TIP3   OH231950   6.311   4.600  12.779 -0.1213  0.3736  0.6937
 3512TIP3    H131951   6.264   4.649  12.847 -1.1264  0.3595  0.0061
 3512TIP3    H231952   6.387   4.563  12.825  0.8613  2.8657  1.1548
 3513TIP3   OH231953   0.311   3.796  15.283  0.0689 -0.6507 -0.3364
 3513TIP3    H131954   0.298   3.778  15.376 -0.4750  0.5538 -0.1731
 3513TIP3    H231955   0.252   3.869  15.264  2.0875  0.8509 -1.0241
 3514TIP3   OH231956   4.598   1.736   5.393  0.2167 -0.6164 -0.2343
 3514TIP3    H131957   4.640   1.700   5.471  0.6193 -1.8131 -0.9954
 3514TIP3    H231958   4.520   1.781   5.426  0.6679 -0.6666  0.9098
 3515TIP3   OH231959   5.374   6.244   0.743 -0.1701  0.2060  0.0453
 3515TIP3    H131960   5.402   6.210   0.658  0.6933 -1.0288  0.8268
 3515TIP3    H231961   5.370   6.339   0.730  0.0051  0.0275 -1.3584
 3516TIP3   OH231962   4.071   3.575  13.399  0.1075  0.3491 -0.4857
 3516TIP3    H131963   4.117   3.491  13.406 -0.4159  0.0362 -0.7170
 3516TIP3    H231964   4.125   3.637  13.448  1.2671  0.1919 -1.5571
 3517TIP3   OH231965   3.053   5.236  15.148 -0.0562 -0.2088 -0.6211
 3517TIP3    H131966   3.017   5.290  15.218 -0.4720 -2.4393  0.9608
 3517TIP3    H231967   2.977   5.205  15.100  0.1391  0.0771 -1.1199
 3518TIP3   OH231968   2.769   5.282  12.874 -0.0067  0.0475  0.0562
 3518TIP3    H131969   2.834   5.328  12.820 -0.9420  3.4367  1.7092
 3518TIP3    H231970   2.687   5.294  12.826 -0.1489 -0.4712  0.1761
 3519TIP3   OH231971   4.749   1.648   1.163 -0.2933 -0.0590 -0.1633
 3519TIP3    H131972   4.748   1.740   1.138  1.2970 -0.1882 -0.7964
 3519TIP3    H231973   4.710   1.602   1.088 -2.1765  0.1919  0.6469
 3520TIP3   OH231974   0.556   3.189   3.709  0.1359 -0.6066  0.5104
 3520TIP3    H131975   0.608   3.140   3.773  2.1894  0.4637 -0.3140
 3520TIP3    H231976   0.504   3.250   3.762  1.3786 -0.1307  1.1887
 3521TIP3   OH231977   5.706   4.392   3.429 -0.6511 -0.3216 -0.2769
 3521TIP3    H131978   5.726   4.316   3.374 -0.8962 -0.8778  0.3860
 3521TIP3    H231979   5.788   4.440   3.435 -0.2885 -0.9648 -0.0584
 3522TIP3   OH231980   1.986   0.153  16.080  0.1728 -0.5101 -0.1560
 3522TIP3    H131981   1.900   0.193  16.095  0.6570  0.1590  0.8922
 3522TIP3    H231982   1.983   0.125  15.988 -1.2373 -0.6807 -0.0739
 3523TIP3   OH231983   1.565   2.766  15.857  0.0378 -0.0280  0.5456
 3523TIP3    H131984   1.510   2.689  15.873  1.8010 -1.2732  0.7346
 3523TIP3    H231985   1.610   2.746  15.775  0.8155  0.6247  0.8119
 3524TIP3   OH231986   3.035   5.457   6.020 -0.0068 -0.1159 -0.5285
 3524TIP3    H131987   3.096   5.408   6.075  0.3773 -0.2434 -1.0690
 3524TIP3    H231988   3.090   5.500   5.955 -0.3986  0.5765 -0.4047
 3525TIP3   OH231989   5.462   5.807   1.373 -0.2311  0.6593 -0.3371
 3525TIP3    H131990   5.486   5.891   1.334  1.0575  0.7962  0.6769
 3525TIP3    H231991   5.450   5.827   1.466 -1.3482 -0.0122 -0.3337
 3526TIP3   OH231992   4.995   1.475   4.075  0.4242  0.2645 -0.6545
 3526TIP3    H131993   4.974   1.394   4.029  0.2078 -0.1086  0.0832
 3526TIP3    H231994   4.998   1.542   4.007 -1.0119 -0.0712 -1.0594
 3527TIP3   OH231995   0.572   1.850  16.690 -0.1379  0.1982 -0.0639
 3527TIP3    H131996   0.630   1.808  16.626 -0.0585  1.1539 -0.6415
 3527TIP3    H231997   0.560   1.939  16.656 -2.7614 -0.2834 -0.4923
 3528TIP3   OH231998   4.787   3.710   1.109  0.3620  0.6800  0.0678
 3528TIP3    H131999   4.749   3.758   1.036 -2.9759 -0.8272  0.7571
 3528TIP3    H232000   4.804   3.622   1.074  3.7062  1.3990 -0.3355
 3529TIP3   OH232001   1.021   3.398  12.378 -0.8006 -0.7414 -0.6442
 3529TIP3    H132002   0.992   3.323  12.430  1.1144  0.6298  2.5645
 3529TIP3    H232003   0.990   3.475  12.426  0.8511  0.5720 -1.5910
 3530TIP3   OH232004   1.241   6.076  10.645  0.2710 -0.2076  0.0707
 3530TIP3    H132005   1.236   6.048  10.554  0.0980 -0.3445  0.1249
 3530TIP3    H232006   1.240   6.172  10.640  1.0933 -0.2063 -0.1254
 3531TIP3   OH232007   4.850   4.995   2.233  0.3826 -0.3153 -0.2486
 3531TIP3    H132008   4.779   4.998   2.169 -1.2179  2.8761  1.5593
 3531TIP3    H232009   4.905   5.070   2.211  2.0625 -1.5208 -0.2907
 3532TIP3   OH232010   5.392   1.014  13.668  0.3288  0.2093 -0.1311
 3532TIP3    H132011   5.396   1.109  13.658 -1.7229  0.5378  1.7408
 3532TIP3    H232012   5.408   1.000  13.761  0.9530 -1.3040 -0.4682
 3533TIP3   OH232013   5.094   1.088   1.814  0.2322 -0.1941 -0.5744
 3533TIP3    H132014   5.034   1.162   1.806  1.5649  1.0014  0.1071
 3533TIP3    H232015   5.054   1.030   1.879  0.0044  0.7832  0.1686
 3534TIP3   OH232016   5.853   1.495   2.269  0.1510  0.7646 -0.6319
 3534TIP3    H132017   5.858   1.458   2.356  0.4962 -0.9079 -1.3509
 3534TIP3    H232018   5.913   1.570   2.271  1.2117 -0.1054  0.1513
 3535TIP3   OH232019   1.742   1.657  15.262  0.2572  0.1500  0.2097
 3535TIP3    H132020   1.653   1.689  15.273  0.3610  0.2532  0.7764
 3535TIP3    H232021   1.785   1.724  15.209 -0.2393 -0.3314 -0.8110
 3536TIP3   OH232022   5.857   5.949   0.179 -0.2797 -0.5668  0.3960
 3536TIP3    H132023   5.789   5.915   0.121  0.5291 -0.5319 -0.5768
 3536TIP3    H232024   5.928   5.976   0.121 -0.0573  0.8450  1.2987
 3537TIP3   OH232025   4.793   2.082  15.932 -0.2855  0.1829  0.2266
 3537TIP3    H132026   4.827   2.114  15.849  0.4897  0.5813  0.6872
 3537TIP3    H232027   4.779   2.161  15.984 -1.9770  0.0187  0.0173
 3538TIP3   OH232028   6.261   6.564  11.635 -0.3605  0.2564  0.8775
 3538TIP3    H132029   6.232   6.559  11.545  0.9700 -0.7572  0.4927
 3538TIP3    H232030   6.228   6.649  11.666 -0.1093  0.9898 -0.8046
 3539TIP3   OH232031   4.472   5.578  12.594  0.4055  0.0151  0.5039
 3539TIP3    H132032   4.453   5.489  12.562  0.9309 -0.3351  1.1668
 3539TIP3    H232033   4.445   5.577  12.686  0.7414  0.4402  0.6068
 3540TIP3   OH232034   3.044   6.135   1.075  0.2314  0.1012 -0.0666
 3540TIP3    H132035   3.059   6.220   1.033 -0.9059  2.1302  3.5091
 3540TIP3    H232036   2.951   6.118   1.062  0.7199 -1.2960 -1.9415
 3541TIP3   OH232037   3.630   4.623   6.550 -0.0209 -0.0444  0.3130
 3541TIP3    H132038   3.629   4.689   6.481  1.7472 -0.1873  0.1256
 3541TIP3    H232039   3.669   4.546   6.509 -2.0985 -1.2237  0.5291
 3542TIP3   OH232040   0.507   0.024   4.711 -0.3843  0.2093 -0.2820
 3542TIP3    H132041   0.528   0.115   4.733 -0.1118  0.2871 -0.8579
 3542TIP3    H232042   0.547  -0.027   4.781  0.0773  0.4863 -0.3422
 3543TIP3   OH232043   0.535   4.850  10.741 -0.0495  0.5069 -0.1389
 3543TIP3    H132044   0.465   4.784  10.738 -1.2279  1.7717 -1.2138
 3543TIP3    H232045   0.614   4.802  10.720 -0.6985 -0.8136  0.3714
 3544TIP3   OH232046   6.340   3.445   3.859  0.6110  0.3744  0.1085
 3544TIP3    H132047   6.366   3.355   3.839  2.1958  0.9936 -0.6789
 3544TIP3    H232048   6.265   3.435   3.918 -0.9627 -1.4663 -2.0973
 3545TIP3   OH232049   3.205   1.142  14.546  0.1837 -0.1909  0.3888
 3545TIP3    H132050   3.153   1.067  14.575  1.2038 -0.2404  2.1727
 3545TIP3    H232051   3.289   1.104  14.520  0.0024  0.1106 -0.6758
 3546TIP3   OH232052   2.630   0.846  17.019  0.2153 -0.4084 -0.5920
 3546TIP3    H132053   2.613   0.753  17.033 -0.9554 -0.2708 -1.1103
 3546TIP3    H232054   2.544   0.887  17.021  0.8056  0.8181  0.6989
 3547TIP3   OH232055   6.265   2.314  13.285  0.1799  0.6215  0.4101
 3547TIP3    H132056   6.332   2.266  13.334 -0.7847 -0.7113  0.4789
 3547TIP3    H232057   6.310   2.344  13.206  1.0304  0.3514  0.7792
 3548TIP3   OH232058   5.417   5.329   3.543 -0.4942 -0.1766 -0.0168
 3548TIP3    H132059   5.482   5.366   3.602 -0.7211 -0.5016  0.4328
 3548TIP3    H232060   5.341   5.386   3.552  0.3038  1.2213 -1.8147
 3549TIP3   OH232061   2.850   2.126   2.148 -0.4949 -0.5020 -0.6514
 3549TIP3    H132062   2.846   2.216   2.114 -0.1366 -0.2730 -0.0995
 3549TIP3    H232063   2.930   2.124   2.201 -1.1584 -0.7847  0.3573
 3550TIP3   OH232064   0.586   1.223  11.878  0.4200  0.0610 -0.6709
 3550TIP3    H132065   0.494   1.205  11.897  0.6657  0.4072  0.9810
 3550TIP3    H232066   0.594   1.318  11.886  0.9378  0.0257 -0.7213
 3551TIP3   OH232067   5.445   5.288   2.236  0.0376  0.7085  0.4230
 3551TIP3    H132068   5.477   5.359   2.180 -0.4187  0.4282 -0.1995
 3551TIP3    H232069   5.422   5.331   2.319 -0.4992  1.3288 -0.0442
 3552TIP3   OH232070   0.494   3.335   1.794 -0.8623 -0.0887  0.4734
 3552TIP3    H132071   0.516   3.418   1.752 -0.2294  0.0296  1.0431
 3552TIP3    H232072   0.478   3.275   1.720 -2.7965  0.9128  0.0613
 3553TIP3   OH232073   3.822   4.701  13.189 -0.1920  0.5932  0.7676
 3553TIP3    H132074   3.744   4.711  13.243 -1.9600 -0.0604 -1.5762
 3553TIP3    H232075   3.815   4.771  13.123  1.9076  1.3770  1.3301
 3554TIP3   OH232076   6.415   6.118   5.627  0.2894 -0.1794  0.1859
 3554TIP3    H132077   6.477   6.189   5.645 -0.5390  0.1782  1.6793
 3554TIP3    H232078   6.397   6.079   5.712 -1.4620 -0.3376 -0.2391
 3555TIP3   OH232079   3.161   0.465   3.462  0.8502 -0.1419  0.1822
 3555TIP3    H132080   3.129   0.470   3.372  2.1399 -1.2689 -0.3598
 3555TIP3    H232081   3.232   0.529   3.467  0.0874  0.6812  0.7172
 3556TIP3   OH232082   0.613   4.269  13.082 -0.1491  0.3170 -0.2447
 3556TIP3    H132083   0.691   4.216  13.064 -1.0567 -1.3192  0.5384
 3556TIP3    H232084   0.611   4.276  13.178 -0.2827  1.4266 -0.3170
 3557TIP3   OH232085   4.736   1.324  13.444 -0.6167  0.0238 -0.0793
 3557TIP3    H132086   4.823   1.347  13.476 -0.0069 -0.4949 -1.3156
 3557TIP3    H232087   4.707   1.401  13.395 -0.0165 -0.5151 -1.3154
 3558TIP3   OH232088   5.697   1.114  14.847  0.2123 -0.1405 -0.4050
 3558TIP3    H132089   5.751   1.038  14.866 -1.1331 -0.8382  0.7774
 3558TIP3    H232090   5.729   1.147  14.764  1.1736 -1.6854 -0.6597
 3559TIP3   OH232091   1.810   0.733  16.115 -0.1092  0.7185  0.3095
 3559TIP3    H132092   1.809   0.823  16.147  0.4987  0.3340  1.4353
 3559TIP3    H232093   1.830   0.741  16.021 -0.4238  1.7690  0.3321
 3560TIP3   OH232094   4.484   6.418  14.235 -0.0350 -0.5972 -0.3395
 3560TIP3    H132095   4.434   6.337  14.221 -1.2937  0.1121  0.0613
 3560TIP3    H232096   4.554   6.413  14.170 -1.4287 -0.9263 -1.8607
 3561TIP3   OH232097   0.141   6.269  13.055  0.3773 -0.0575 -0.7478
 3561TIP3    H132098   0.148   6.180  13.021  1.1395  0.2678 -1.4603
 3561TIP3    H232099   0.048   6.289  13.049 -0.0191 -1.3295  0.7881
 3562TIP3   OH232100   5.033   5.893   3.141 -0.3925 -0.4629 -0.2608
 3562TIP3    H132101   5.128   5.896   3.158 -0.6646 -0.5948  1.3711
 3562TIP3    H232102   4.995   5.861   3.223 -2.0314  1.6272 -0.1415
 3563TIP3   OH232103   1.069   1.071   0.939  0.5996  0.1996  0.3421
 3563TIP3    H132104   0.983   1.052   0.976  2.0069 -2.0322  2.6638
 3563TIP3    H232105   1.066   1.034   0.850  0.4719 -3.6229  1.8469
 3564TIP3   OH232106   4.023   0.896  13.729  0.0825 -0.0630 -0.1745
 3564TIP3    H132107   3.980   0.981  13.737 -0.2244 -0.2973  0.7610
 3564TIP3    H232108   3.962   0.843  13.679  0.2918  0.2815 -0.7957
 3565TIP3   OH232109   0.732   3.385  11.201  0.7819 -0.1431 -0.0621
 3565TIP3    H132110   0.667   3.429  11.146 -0.2467  1.0424  2.0401
 3565TIP3    H232111   0.684   3.361  11.280  2.5364 -0.6834  0.8555
 3566TIP3   OH232112   1.061   4.058  16.746 -0.3608 -0.0730 -0.0321
 3566TIP3    H132113   1.121   4.070  16.820  0.2009 -1.8409 -0.2003
 3566TIP3    H232114   0.974   4.053  16.787 -0.4188  2.1876  0.2242
 3567TIP3   OH232115   5.437   1.136   1.347  0.1125  0.0221  1.0037
 3567TIP3    H132116   5.514   1.107   1.398  2.0262  1.9364 -0.7002
 3567TIP3    H232117   5.401   1.055   1.311  2.2936 -0.8014  0.5481
 3568TIP3   OH232118   4.219   0.119   4.041  0.3623  0.6512  0.0769
 3568TIP3    H132119   4.166   0.101   3.963 -0.6001 -0.5575  0.9985
 3568TIP3    H232120   4.156   0.146   4.108  1.2065  1.8477  0.3983
 3569TIP3   OH232121   3.892   4.806   3.761 -0.2353  0.8464 -0.0173
 3569TIP3    H132122   3.809   4.804   3.713  0.3985 -0.4119 -1.0865
 3569TIP3    H232123   3.875   4.759   3.842  0.1104 -1.6982 -1.3785
 3570TIP3   OH232124   2.334   6.096   4.434 -0.4821  0.0172  0.3270
 3570TIP3    H132125   2.283   6.082   4.354 -0.9287 -0.1636  0.6451
 3570TIP3    H232126   2.417   6.052   4.417  0.8829  3.1643 -1.5404
 3571TIP3   OH232127   1.424   6.635   5.127  0.3834  0.0083 -0.0188
 3571TIP3    H132128   1.468   6.674   5.052  0.4495  1.4924  0.7871
 3571TIP3    H232129   1.448   6.542   5.123 -1.5658 -0.4581 -3.2372
 3572TIP3   OH232130   6.311   4.182   2.632 -0.1496 -0.1803  0.6701
 3572TIP3    H132131   6.381   4.142   2.579  0.8410  1.4090  0.7483
 3572TIP3    H232132   6.289   4.262   2.584 -0.5802  0.2934  1.6658
 3573TIP3   OH232133   3.745   0.831  13.354 -0.3221 -0.4916 -0.2268
 3573TIP3    H132134   3.786   0.807  13.438  1.2241 -2.1066 -1.4002
 3573TIP3    H232135   3.733   0.926  13.360 -0.0188 -0.5385  1.7328
 3574TIP3   OH232136   3.772   0.119   5.404  0.4622  0.5230 -0.3806
 3574TIP3    H132137   3.716   0.065   5.350  0.0186 -1.2010  1.7291
 3574TIP3    H232138   3.856   0.073   5.407 -0.4783 -1.1667  2.9508
 3575TIP3   OH232139   3.523   4.305  14.934  0.1916  0.1815  0.2968
 3575TIP3    H132140   3.548   4.240  14.869  1.9633  0.8914  0.2494
 3575TIP3    H232141   3.483   4.376  14.884 -3.5277 -1.6423  0.5148
 3576TIP3   OH232142   2.091   4.521   2.291  0.6509  0.3100 -0.2838
 3576TIP3    H132143   2.026   4.475   2.344  1.3673  0.2697  0.5670
 3576TIP3    H232144   2.040   4.580   2.236 -0.0997  0.3160  0.4182
 3577TIP3   OH232145   4.036   4.950  12.847 -0.2411  0.7763 -0.2213
 3577TIP3    H132146   4.092   4.872  12.841  0.2899  1.1631 -0.2518
 3577TIP3    H232147   3.948   4.917  12.830  0.0712  0.3024 -0.9522
 3578TIP3   OH232148   4.751   0.250  14.130 -0.4616 -0.1656 -0.0750
 3578TIP3    H132149   4.836   0.290  14.147 -0.0502 -1.5061  1.1758
 3578TIP3    H232150   4.740   0.256  14.036  0.0776  1.8834 -0.0163
 3579TIP3   OH232151   1.288   2.526  14.236  0.4283 -0.2311 -0.0034
 3579TIP3    H132152   1.240   2.597  14.194 -0.6457 -0.6946  0.4166
 3579TIP3    H232153   1.368   2.567  14.268 -0.6024  0.9914  1.0527
 3580TIP3   OH232154   1.361   6.280  14.014 -0.3554 -0.1450  0.1140
 3580TIP3    H132155   1.451   6.257  14.037 -0.3541 -0.1415  0.1115
 3580TIP3    H232156   1.321   6.305  14.097  0.0274  1.1372 -0.0807
 3581TIP3   OH232157   6.318   3.112   3.675 -0.5509 -0.2139 -0.0085
 3581TIP3    H132158   6.405   3.110   3.713 -0.8108 -0.2161  0.5870
 3581TIP3    H232159   6.262   3.067   3.739 -1.7910  3.4686  1.6114
 3582TIP3   OH232160   2.592   0.578   3.886 -0.1930  0.1901 -0.1017
 3582TIP3    H132161   2.578   0.596   3.793  1.2585  2.1436  0.0271
 3582TIP3    H232162   2.687   0.571   3.895 -0.2281  1.3971  1.4594
 3583TIP3   OH232163   1.860   5.899   1.618 -0.0351  0.3232 -0.2593
 3583TIP3    H132164   1.853   5.822   1.561 -1.0454  0.7078 -0.6799
 3583TIP3    H232165   1.798   5.962   1.580 -1.6151  0.1670  1.9318
 3584TIP3   OH232166   0.916   5.449  14.663 -0.0130  0.2549 -0.5382
 3584TIP3    H132167   0.828   5.484  14.676 -1.8306 -3.1493 -3.0078
 3584TIP3    H232168   0.949   5.494  14.586 -0.3308  0.1884 -0.7136
 3585TIP3   OH232169   2.437   5.746  16.325 -0.7607  0.4828 -0.2827
 3585TIP3    H132170   2.363   5.690  16.301 -1.7342  2.0872 -1.1058
 3585TIP3    H232171   2.507   5.685  16.347 -2.3910 -1.0643  0.7422
 3586TIP3   OH232172   2.974   5.934  14.506  0.0872 -0.2833 -0.5580
 3586TIP3    H132173   3.035   5.888  14.448 -0.6507  2.6068 -3.8026
 3586TIP3    H232174   2.888   5.922  14.465 -0.8082 -0.1541  1.2366
 3587TIP3   OH232175   2.763   2.529  14.798  0.1125 -0.1416 -0.1122
 3587TIP3    H132176   2.686   2.542  14.743  0.9197  0.9076 -1.0131
 3587TIP3    H232177   2.825   2.483  14.741  0.2374 -0.8183  0.5532
 3588TIP3   OH232178   0.045   6.103  16.806  0.0278  0.2253 -0.1671
 3588TIP3    H132179   0.093   6.182  16.780  1.4437 -0.2375  0.9376
 3588TIP3    H232180   0.075   6.036  16.746  1.6262 -0.3216  1.2086
 3589TIP3   OH232181   1.957   0.023   1.123 -0.0834  0.1905 -0.4219
 3589TIP3    H132182   1.910   0.057   1.048 -2.6216 -1.2379  0.4623
 3589TIP3    H232183   1.959   0.095   1.186  0.1412  0.6941 -1.0076
 3590TIP3   OH232184   5.613   3.433  12.117 -0.2094  0.4065 -0.3702
 3590TIP3    H132185   5.693   3.426  12.168 -0.7054 -2.9735  0.0395
 3590TIP3    H232186   5.638   3.405  12.029 -0.2062  2.6480 -1.1198
 3591TIP3   OH232187   6.434   4.537  16.059 -0.1337 -0.5799 -0.4727
 3591TIP3    H132188   6.523   4.553  16.090 -0.8876  0.5963  1.1822
 3591TIP3    H232189   6.401   4.469  16.118 -1.0751  0.6028  0.3945
 3592TIP3   OH232190   2.608   5.183   1.755 -0.1287  0.5355  0.1131
 3592TIP3    H132191   2.686   5.229   1.787  0.0201 -0.6909  1.5984
 3592TIP3    H232192   2.540   5.249   1.751 -0.1295  0.7374  2.9697
 3593TIP3   OH232193   2.344   2.716   1.265 -0.5303  0.4228 -0.3378
 3593TIP3    H132194   2.366   2.788   1.324  4.1813 -2.8981  2.3777
 3593TIP3    H232195   2.283   2.662   1.314 -1.0788  0.5900 -0.8308
 3594TIP3   OH232196   5.131   3.411   4.217 -0.4371  0.2291 -0.1341
 3594TIP3    H132197   5.196   3.389   4.151 -1.1840  1.3840 -1.2831
 3594TIP3    H232198   5.087   3.489   4.182 -1.1392  0.5944  1.5146
 3595TIP3   OH232199   1.114   4.036   0.420 -0.0805  0.1924 -0.5402
 3595TIP3    H132200   1.041   3.987   0.458 -0.3339  1.3538  0.5433
 3595TIP3    H232201   1.154   3.977   0.357 -0.2802 -1.4295  0.8413
 3596TIP3   OH232202   4.952   0.873   2.890 -0.0439  0.3677 -1.1375
 3596TIP3    H132203   4.927   0.925   2.814 -0.8112  1.4858 -0.1414
 3596TIP3    H232204   4.909   0.916   2.964 -1.5100 -2.2060 -0.3992
 3597TIP3   OH232205   6.457   0.072   0.375  0.0089  0.9628  0.1463
 3597TIP3    H132206   6.497   0.159   0.378 -0.7928  1.2987  1.3587
 3597TIP3    H232207   6.407   0.065   0.456  1.1421 -1.1678  0.7031
 3598TIP3   OH232208   1.873   0.397   0.492 -0.3712 -0.0676 -0.9016
 3598TIP3    H132209   1.817   0.328   0.528 -0.1175  0.4048  0.4189
 3598TIP3    H232210   1.953   0.351   0.465 -0.2815 -0.3137 -0.2128
 3599TIP3   OH232211   6.689   0.715  12.767 -0.0824  0.1819 -0.5247
 3599TIP3    H132212   6.613   0.720  12.709 -0.9576 -0.3753  0.5374
 3599TIP3    H232213   6.754   0.665  12.718 -1.1085 -0.9902 -0.7180
 3600TIP3   OH232214   2.696   5.333  15.639 -0.4308  0.8990 -0.7345
 3600TIP3    H132215   2.632   5.288  15.692  0.8480 -0.0021  0.0675
 3600TIP3    H232216   2.668   5.318  15.548 -1.3786  0.5959 -0.3905
 3601TIP3   OH232217   1.090   6.021   2.182  0.1707  0.5123 -0.5266
 3601TIP3    H132218   1.130   6.056   2.262 -0.9746  0.7835 -0.0627
 3601TIP3    H232219   0.996   6.038   2.193 -0.2911 -1.7286 -0.7582
 3602TIP3   OH232220   3.404   2.238   0.128 -0.5610 -0.1004  0.3800
 3602TIP3    H132221   3.439   2.242   0.217 -1.7727 -2.0993  0.9977
 3602TIP3    H232222   3.313   2.266   0.136 -0.6857 -0.3064 -0.2284
 3603TIP3   OH232223   5.639   4.434  16.288  0.1526 -0.0702 -0.1066
 3603TIP3    H132224   5.720   4.408  16.244  0.4115  2.2195 -1.0180
 3603TIP3    H232225   5.642   4.529  16.291 -2.9024  0.1040 -0.9305
 3604TIP3   OH232226   4.538   4.717   5.436  0.1691 -0.5975 -0.1084
 3604TIP3    H132227   4.492   4.742   5.516  0.9792 -1.1266  0.5300
 3604TIP3    H232228   4.477   4.660   5.389  0.4058 -1.7835  1.0217
 3605TIP3   OH232229   5.121   6.239   4.095 -0.2043  0.2058 -0.7460
 3605TIP3    H132230   5.072   6.294   4.034 -1.4856 -0.7099 -0.5669
 3605TIP3    H232231   5.157   6.168   4.041  2.7868  2.0102 -1.2611
 3606TIP3   OH232232   4.531   0.774  13.253 -0.4773 -0.5960  0.3290
 3606TIP3    H132233   4.538   0.860  13.295 -0.2542  0.3824 -1.6684
 3606TIP3    H232234   4.547   0.712  13.324  0.8294  1.0399  1.5089
 3607TIP3   OH232235   5.062   4.287   6.261 -0.0985 -0.4215 -0.2826
 3607TIP3    H132236   5.088   4.212   6.207 -1.0211 -0.3115 -0.8925
 3607TIP3    H232237   4.968   4.298   6.243  0.4731  2.2652 -1.9337
 3608TIP3   OH232238   4.535   0.066   2.103 -0.2122 -0.2523 -0.2318
 3608TIP3    H132239   4.629   0.076   2.113 -0.2423  0.0749 -0.2709
 3608TIP3    H232240   4.519   0.079   2.009 -0.2472 -0.7200 -0.2926
 3609TIP3   OH232241   6.338   2.222   5.694  0.0301  0.1242  0.2957
 3609TIP3    H132242   6.298   2.283   5.633  1.0341  0.4253 -0.0694
 3609TIP3    H232243   6.418   2.265   5.723  2.1883 -2.1008 -2.0404
 3610TIP3   OH232244   3.057   0.382  11.417  0.2894 -0.8568  0.5994
 3610TIP3    H132245   3.072   0.429  11.499 -0.0330 -2.3081  1.4905
 3610TIP3    H232246   3.102   0.298  11.428  2.2910 -0.1403 -1.6154
 3611TIP3   OH232247   4.051   1.225   6.405 -0.3930  0.5188 -0.1534
 3611TIP3    H132248   4.115   1.165   6.443 -1.4629  0.4588  1.5996
 3611TIP3    H232249   4.081   1.312   6.433 -1.5042  0.4330  1.3473
 3612TIP3   OH232250   3.587   2.187  14.157 -0.1179  0.2361  0.2367
 3612TIP3    H132251   3.679   2.162  14.151  0.1603  1.1776  0.4805
 3612TIP3    H232252   3.539   2.105  14.152  0.7631 -0.3037  0.6297
 3613TIP3   OH232253   6.409   1.695   3.064  0.2775  0.6403  0.0168
 3613TIP3    H132254   6.316   1.678   3.052 -0.1398  1.3524  2.1790
 3613TIP3    H232255   6.438   1.630   3.128  1.0920  0.9690 -0.0056
 3614TIP3   OH232256   0.562   4.690   0.404  0.9341 -0.0097  0.4873
 3614TIP3    H132257   0.614   4.706   0.482 -2.2244 -0.5007  2.7843
 3614TIP3    H232258   0.508   4.769   0.394 -1.2935 -1.4324  0.9645
 3615TIP3   OH232259   0.425   2.817  12.714  0.0439 -0.4910  0.2887
 3615TIP3    H132260   0.348   2.823  12.657 -0.0002  0.8611  0.4849
 3615TIP3    H232261   0.428   2.901  12.759  2.3655 -0.0586 -0.6358
 3616TIP3   OH232262   0.917   5.596  12.619  0.1553 -0.3166 -0.7256
 3616TIP3    H132263   0.854   5.524  12.623 -0.0747 -0.0523  1.3035
 3616TIP3    H232264   0.871   5.671  12.658  1.6987 -0.1230  0.8203
 3617TIP3   OH232265   3.896   3.261   0.820 -0.1873 -0.3805 -0.6223
 3617TIP3    H132266   3.814   3.306   0.799  0.0763  0.2349 -0.3263
 3617TIP3    H232267   3.902   3.264   0.916  0.5404  0.2045 -0.6852
 3618TIP3   OH232268   2.161   2.371   4.917  0.0860  0.0996 -0.5021
 3618TIP3    H132269   2.218   2.323   4.857  2.2176 -0.7695  2.1408
 3618TIP3    H232270   2.187   2.462   4.907 -1.7131  0.3698 -3.1243
 3619TIP3   OH232271   6.457   1.645   2.080 -0.3401  0.0572 -0.5072
 3619TIP3    H132272   6.485   1.731   2.049 -2.4653  0.6539 -0.8769
 3619TIP3    H232273   6.512   1.627   2.156 -1.4917  2.8444  1.0695
 3620TIP3   OH232274   3.554   4.626   2.913  0.5917  0.8262 -0.4187
 3620TIP3    H132275   3.518   4.537   2.912 -1.6926  1.7323 -0.2641
 3620TIP3    H232276   3.571   4.646   2.821  0.7542  0.3819 -0.4866
 3621TIP3   OH232277   5.908   3.007  13.114 -0.7015  0.4978 -0.4948
 3621TIP3    H132278   5.885   3.001  13.206 -3.3724  1.8333 -1.0348
 3621TIP3    H232279   6.003   3.021  13.114 -0.7841  1.2426  2.0549
 3622TIP3   OH232280   1.931   0.848   2.740 -0.1767 -0.4658 -0.1356
 3622TIP3    H132281   1.874   0.887   2.674 -0.5150 -0.6990  0.0185
 3622TIP3    H232282   1.875   0.835   2.817  0.3449  0.2961  0.3766
 3623TIP3   OH232283   1.604   4.753   2.751 -0.0561  0.8086  0.3735
 3623TIP3    H132284   1.689   4.710   2.755 -0.7037 -0.4689  0.6197
 3623TIP3    H232285   1.619   4.832   2.698  0.9089 -0.2423 -0.9352
 3624TIP3   OH232286   3.412   3.748   1.597  0.1866  0.0170 -0.2268
 3624TIP3    H132287   3.453   3.828   1.629  0.9417 -0.6460  0.4791
 3624TIP3    H232288   3.472   3.716   1.529 -0.8537  0.8304 -1.5393
 3625TIP3   OH232289   0.205   2.536  13.296 -0.0012 -0.0863 -0.0234
 3625TIP3    H132290   0.238   2.475  13.362 -1.7528  0.1750  1.1180
 3625TIP3    H232291   0.124   2.495  13.263 -0.0156  0.5721 -0.8288
 3626TIP3   OH232292   2.249   0.546  14.052  0.2051  0.4585 -0.3655
 3626TIP3    H132293   2.232   0.454  14.031  2.1449  0.4118 -1.7708
 3626TIP3    H232294   2.205   0.595  13.983  2.2331  0.4673 -1.6592
 3627TIP3   OH232295   2.049   0.665   6.622  0.2844  0.3974 -0.6604
 3627TIP3    H132296   2.086   0.608   6.554  0.4876  2.7977 -2.6390
 3627TIP3    H232297   1.960   0.631   6.636  1.0063 -1.4710 -0.5114
 3628TIP3   OH232298   3.725   2.476   1.508 -0.2382  0.0165  0.0785
 3628TIP3    H132299   3.748   2.477   1.601  2.0148  1.7289 -0.4293
 3628TIP3    H232300   3.691   2.564   1.491  0.0390 -0.0480 -0.8503
 3629TIP3   OH232301   3.250   1.477   3.635 -0.4074  0.1153 -0.2577
 3629TIP3    H132302   3.170   1.450   3.589  0.4716 -2.1728 -0.4920
 3629TIP3    H232303   3.241   1.441   3.723  0.3339 -0.0893 -0.2614
 3630TIP3   OH232304   5.032   6.306  14.560 -0.4014 -0.3143  0.1752
 3630TIP3    H132305   5.075   6.334  14.479  1.3370 -0.9290  0.8716
 3630TIP3    H232306   4.987   6.385  14.591  0.7934  0.5311 -0.2082
 3631TIP3   OH232307   1.933   6.522   0.099  0.2778  0.2458  0.3949
 3631TIP3    H132308   1.906   6.441   0.143 -0.9477  0.4639  0.0594
 3631TIP3    H232309   1.983   6.569   0.166  1.1434 -0.8452  0.5429
 3632TIP3   OH232310   6.779   2.947  12.348  0.2737 -0.0048 -0.3050
 3632TIP3    H132311   6.804   2.901  12.428  1.0367  1.6815  0.4384
 3632TIP3    H232312   6.860   2.951  12.297 -0.1762 -0.9531 -1.1399
 3633TIP3   OH232313   2.077   0.613  16.387 -0.6227 -0.2988 -0.1256
 3633TIP3    H132314   2.118   0.607  16.474  0.8046 -0.0650 -0.7606
 3633TIP3    H232315   2.045   0.702  16.382  0.8552  0.2324 -0.4945
 3634TIP3   OH232316   2.637   0.957  14.772  0.0893  0.4838 -0.0573
 3634TIP3    H132317   2.710   0.922  14.823 -1.0494 -0.9728  0.6148
 3634TIP3    H232318   2.611   1.036  14.819  0.2899  0.2068  0.5297
 3635TIP3   OH232319   4.864   6.117  15.769 -0.3839  0.4766  0.3377
 3635TIP3    H132320   4.888   6.033  15.809  0.2244  0.5116  0.0500
 3635TIP3    H232321   4.823   6.166  15.841  1.4743  0.8593  1.1549
 3636TIP3   OH232322   1.634   0.225  14.878 -0.2569 -0.0714  0.0889
 3636TIP3    H132323   1.553   0.274  14.895 -0.8187 -0.9373 -0.0611
 3636TIP3    H232324   1.690   0.244  14.953 -0.1270  1.4921 -0.3752
 3637TIP3   OH232325   5.917   0.029  11.573  0.0254 -0.2056  0.0408
 3637TIP3    H132326   5.978   0.098  11.598 -0.7764  0.5870 -0.1606
 3637TIP3    H232327   5.951  -0.006  11.491  0.7503 -0.4490  0.4391
 3638TIP3   OH232328   3.690   3.167  11.326 -0.1318  0.2818 -0.5038
 3638TIP3    H132329   3.672   3.189  11.234  0.0298  0.5792 -0.4636
 3638TIP3    H232330   3.786   3.167  11.332 -0.1496  0.6825 -0.2293
 3639TIP3   OH232331   0.844   4.447  11.731 -0.2717 -0.3449 -0.4292
 3639TIP3    H132332   0.855   4.504  11.655 -1.8858  0.1738 -0.3045
 3639TIP3    H232333   0.753   4.417  11.725 -0.4645 -0.1846  1.3568
 3640TIP3   OH232334   1.916   4.607  16.220 -0.3098  0.4912 -0.0575
 3640TIP3    H132335   1.924   4.676  16.154 -0.5634  0.0834 -0.5173
 3640TIP3    H232336   1.831   4.566  16.202 -0.1204  0.0013  0.1609
 3641TIP3   OH232337   5.590   0.545  13.324 -0.8373 -0.2901  0.5478
 3641TIP3    H132338   5.614   0.508  13.239 -0.0990 -0.3410  0.7711
 3641TIP3    H232339   5.626   0.633  13.323  1.1395 -1.0530  1.6659
 3642TIP3   OH232340   2.549   1.282  15.167 -0.3649 -0.4060  0.9158
 3642TIP3    H132341   2.547   1.377  15.178 -0.9918 -0.1517 -1.2211
 3642TIP3    H232342   2.612   1.252  15.233  1.5668  1.7246  0.1275
 3643TIP3   OH232343   3.558   6.637  15.393  0.3499  0.5807 -0.0084
 3643TIP3    H132344   3.463   6.648  15.393  0.5510  2.6610 -0.6818
 3643TIP3    H232345   3.571   6.544  15.376 -1.5727  0.3234 -0.2642
 3644TIP3   OH232346   3.717   6.538  10.898  0.0568 -0.3781 -0.2436
 3644TIP3    H132347   3.777   6.557  10.826 -1.3006  0.2936 -1.2217
 3644TIP3    H232348   3.703   6.444  10.893 -1.4147 -0.0979 -2.0049
 3645TIP3   OH232349   5.102   3.000  14.766 -0.0151 -0.4829 -0.0193
 3645TIP3    H132350   5.171   3.005  14.700  0.1904  0.8125  0.2866
 3645TIP3    H232351   5.148   2.987  14.849 -0.3876 -4.6978 -0.3976
 3646TIP3   OH232352   4.904   1.862   5.387  0.3476  0.6258 -0.1481
 3646TIP3    H132353   4.853   1.820   5.318 -1.1376 -0.1893  1.3983
 3646TIP3    H232354   4.884   1.955   5.379 -0.6129  0.4256 -0.2239
 3647TIP3   OH232355   2.456   0.212   2.086  0.2952 -0.4509 -0.1742
 3647TIP3    H132356   2.459   0.118   2.071  0.2274  0.0354 -3.6501
 3647TIP3    H232357   2.362   0.234   2.083  0.3917 -0.0977 -0.7002
 3648TIP3   OH232358   6.525   2.103   4.783 -0.2398  0.0157  0.4300
 3648TIP3    H132359   6.510   2.115   4.689  0.2156  0.4499  0.4139
 3648TIP3    H232360   6.438   2.107   4.822 -0.1969  2.5969  0.3518
 3649TIP3   OH232361   1.723   4.692  10.434  0.1049 -0.3358  0.2450
 3649TIP3    H132362   1.743   4.636  10.509  1.9418  0.0751  0.1063
 3649TIP3    H232363   1.809   4.725  10.407 -0.7571  1.0311 -0.8465
 3650TIP3   OH232364   2.288   4.166   3.665 -0.5657 -0.5255 -0.7075
 3650TIP3    H132365   2.284   4.077   3.699  0.2314 -0.8888 -1.5222
 3650TIP3    H232366   2.246   4.160   3.579  0.0337 -0.2414 -1.0193
 3651TIP3   OH232367   1.039   2.140   2.803 -0.1815  0.0830  0.1957
 3651TIP3    H132368   0.953   2.109   2.777  0.0604 -2.4275  2.1795
 3651TIP3    H232369   1.065   2.082   2.875  3.1207  0.8470 -0.2930
 3652TIP3   OH232370   3.833   1.371  14.482 -0.1456 -0.0299  0.2649
 3652TIP3    H132371   3.898   1.390  14.415  0.5327 -0.7635  0.6943
 3652TIP3    H232372   3.806   1.457  14.515 -1.1276  0.3732 -1.5151
 3653TIP3   OH232373   3.954   4.489   5.786  0.5044 -0.0510 -0.3644
 3653TIP3    H132374   3.936   4.453   5.873  2.7701 -0.4490 -0.0395
 3653TIP3    H232375   3.954   4.584   5.799 -0.9984 -0.0346 -0.3293
 3654TIP3   OH232376   5.654   4.440  13.672  0.2534 -0.3053  0.1886
 3654TIP3    H132377   5.625   4.350  13.657 -2.5185  0.3925  1.0213
 3654TIP3    H232378   5.712   4.459  13.598 -0.1618 -2.3551 -0.7025
 3655TIP3   OH232379   3.861   4.975   2.584 -0.0630  0.0832  0.0870
 3655TIP3    H132380   3.874   4.963   2.678 -0.3276 -1.8746 -0.1032
 3655TIP3    H232381   3.928   5.039   2.558  1.1754 -0.7063  1.2820
 3656TIP3   OH232382   3.904   3.555  15.943 -0.7280 -0.3168 -0.5539
 3656TIP3    H132383   3.838   3.519  16.001 -0.9508  1.4371  0.3077
 3656TIP3    H232384   3.909   3.648  15.966  0.6649 -0.0265 -1.9088
 3657TIP3   OH232385   3.244   1.637  12.424  0.2679  0.4046 -0.1596
 3657TIP3    H132386   3.154   1.621  12.453  0.3371 -0.3693 -0.3580
 3657TIP3    H232387   3.264   1.563  12.366  1.0258  0.5875 -0.1395
 3658TIP3   OH232388   6.239   2.356   4.684 -0.4392  0.2432 -0.1518
 3658TIP3    H132389   6.172   2.344   4.617 -1.5171  0.1609  0.9113
 3658TIP3    H232390   6.300   2.418   4.646 -1.6717  1.1145 -0.7543
 3659TIP3   OH232391   5.687   1.777   5.153 -0.4051 -0.4631  0.4729
 3659TIP3    H132392   5.613   1.732   5.112  0.4731 -1.8310  0.3644
 3659TIP3    H232393   5.663   1.781   5.246 -0.7214 -0.6912  0.4043
 3660TIP3   OH232394   4.854   1.002   3.422  0.6267 -0.6877 -0.0495
 3660TIP3    H132395   4.935   0.980   3.377  0.1844  0.9621 -1.7121
 3660TIP3    H232396   4.855   1.097   3.429 -0.1741 -0.7975  1.8348
 3661TIP3   OH232397   5.587   3.788  13.720  0.1559 -0.0222  0.2105
 3661TIP3    H132398   5.672   3.788  13.676 -0.2860 -1.3989 -0.6625
 3661TIP3    H232399   5.592   3.716  13.783 -0.6862 -0.7238 -0.5092
 3662TIP3   OH232400   2.908   2.397   4.652 -0.2371  0.0179 -0.7327
 3662TIP3    H132401   2.910   2.469   4.589  0.9706 -0.8671 -1.7388
 3662TIP3    H232402   2.817   2.367   4.653 -0.2951  0.1244 -1.9801
 3663TIP3   OH232403   4.824   2.714   1.311  0.4095 -0.2804  1.1985
 3663TIP3    H132404   4.797   2.629   1.276  1.9142 -0.2362 -0.1685
 3663TIP3    H232405   4.903   2.695   1.362  1.1515  0.3603  0.3198
 3664TIP3   OH232406   5.981   0.221   0.423 -0.3762  0.2974 -0.1137
 3664TIP3    H132407   5.948   0.221   0.513  0.0769  0.9462  0.0563
 3664TIP3    H232408   5.923   0.160   0.376 -0.1328 -0.6401  0.7876
 3665TIP3   OH232409   2.744   3.347  13.434  0.9639  0.1324  0.0805
 3665TIP3    H132410   2.671   3.298  13.397 -0.0502  1.7430 -0.0717
 3665TIP3    H232411   2.734   3.337  13.529  0.8810 -0.1157  0.0476
 3666TIP3   OH232412   6.400   5.541   1.947 -0.0143  0.2270 -0.6856
 3666TIP3    H132413   6.469   5.484   1.982 -1.4979 -0.9042  0.4118
 3666TIP3    H232414   6.422   5.628   1.981 -0.3972 -0.5303  1.6026
 3667TIP3   OH232415   0.522   0.842   2.532 -0.3743  0.2861  0.1102
 3667TIP3    H132416   0.609   0.805   2.515 -0.2614  0.7774 -0.4206
 3667TIP3    H232417   0.467   0.766   2.552  0.0675 -0.0759 -0.0370
 3668TIP3   OH232418   5.255   6.615  11.010  0.2824  0.4449 -0.3142
 3668TIP3    H132419   5.296   6.700  11.024 -1.0456  0.8528  1.2167
 3668TIP3    H232420   5.184   6.611  11.074  0.5741 -1.9855 -0.0836
 3669TIP3   OH232421   5.649   4.747  12.198  0.2897 -0.7856 -0.0090
 3669TIP3    H132422   5.613   4.706  12.276 -0.1975  0.2503  0.3238
 3669TIP3    H232423   5.585   4.814  12.175  0.2621 -1.2841 -1.4811
 3670TIP3   OH232424   0.246   4.490   0.079  0.2461 -0.2127 -0.4490
 3670TIP3    H132425   0.322   4.477   0.022  1.0100 -0.8475  0.7032
 3670TIP3    H232426   0.176   4.440   0.037  1.0466 -1.4231 -0.3552
 3671TIP3   OH232427   6.633   3.615  14.753  0.4648 -0.0504  0.2151
 3671TIP3    H132428   6.549   3.659  14.761 -0.8494 -2.3721 -0.3601
 3671TIP3    H232429   6.692   3.682  14.719 -1.0756  1.6753  0.8617
 3672TIP3   OH232430   6.400   1.166  13.514  0.0724  0.0090  0.6303
 3672TIP3    H132431   6.362   1.233  13.458 -0.8761  0.0025  1.2527
 3672TIP3    H232432   6.345   1.088  13.499 -1.1986  0.4526  2.7481
 3673TIP3   OH232433   6.187   4.856   2.003 -0.2752  0.2801  0.3255
 3673TIP3    H132434   6.135   4.903   1.938 -1.7789 -0.1217  1.2151
 3673TIP3    H232435   6.246   4.801   1.951 -1.1046  0.3463 -0.7060
 3674TIP3   OH232436   4.459   0.549   5.884 -0.2594 -0.4117  0.5696
 3674TIP3    H132437   4.424   0.566   5.796 -0.2530 -2.6916  0.0964
 3674TIP3    H232438   4.382   0.546   5.940 -0.3160  0.4377  0.5425
 3675TIP3   OH232439   2.989   0.960  13.604  0.0359 -0.7672 -0.2709
 3675TIP3    H132440   2.935   0.985  13.528  0.7188  0.4267 -0.3703
 3675TIP3    H232441   2.980   1.033  13.665  1.5091 -0.5688 -0.2713
 3676TIP3   OH232442   5.641   1.087   4.529 -0.0109 -0.3655  0.1238
 3676TIP3    H132443   5.550   1.063   4.509 -0.2574  0.2532  0.5149
 3676TIP3    H232444   5.645   1.181   4.511  0.3534 -0.2444  0.8620
 3677TIP3   OH232445   2.860   5.439  14.975  0.1750 -0.4080  0.0771
 3677TIP3    H132446   2.953   5.429  14.995 -0.0593 -1.6190  0.6048
 3677TIP3    H232447   2.828   5.350  14.965 -0.9823 -0.0077  0.1503
 3678TIP3   OH232448   2.199   1.652   1.766 -0.1550 -0.0647  0.2585
 3678TIP3    H132449   2.236   1.732   1.728 -0.0584 -0.1795  0.1112
 3678TIP3    H232450   2.115   1.680   1.804 -1.0283 -0.2758 -1.4618
 3679TIP3   OH232451   3.502   1.777   4.958  0.0658  0.1417  0.4603
 3679TIP3    H132452   3.545   1.786   5.043  0.7326 -2.0194  0.3731
 3679TIP3    H232453   3.443   1.703   4.969  0.8625 -0.7672 -1.2569
 3680TIP3   OH232454   2.378   5.515  14.617  0.3897  0.2723  0.4093
 3680TIP3    H132455   2.384   5.593  14.561 -2.8367  0.7528  0.6456
 3680TIP3    H232456   2.365   5.443  14.556  2.6814 -0.0530  0.2384
 3681TIP3   OH232457   5.489   2.594  16.757  0.1878  0.1476  0.0352
 3681TIP3    H132458   5.485   2.686  16.734 -0.7105 -0.3892 -2.0317
 3681TIP3    H232459   5.471   2.547  16.676  1.5058 -1.8708  0.8534
 3682TIP3   OH232460   1.777   2.976   0.557 -0.4308  0.4614  0.0896
 3682TIP3    H132461   1.728   2.898   0.583  0.1272 -0.1921 -0.7851
 3682TIP3    H232462   1.764   2.982   0.463 -0.9225  1.7525  0.2345
 3683TIP3   OH232463   5.054   1.657  11.515  0.0668  0.2220 -0.4810
 3683TIP3    H132464   5.008   1.741  11.518  0.4827  0.3984  2.7774
 3683TIP3    H232465   5.143   1.678  11.543  1.0370 -0.8158 -2.7050
 3684TIP3   OH232466   3.513   3.245   0.318 -0.3047  0.8340  0.0061
 3684TIP3    H132467   3.527   3.322   0.263  1.5372  0.0297 -0.6948
 3684TIP3    H232468   3.468   3.183   0.261 -3.0233  1.8394  0.9722
 3685TIP3   OH232469   0.434   4.728   1.007 -0.2327  0.0591  0.3706
 3685TIP3    H132470   0.508   4.789   1.007  0.2799 -0.5550  0.2718
 3685TIP3    H232471   0.467   4.650   1.053 -1.5581  0.6593  2.3862
 3686TIP3   OH232472   1.947   5.691   2.994 -0.1622 -0.0186  0.2795
 3686TIP3    H132473   1.858   5.715   2.970 -0.2907 -2.1214 -1.5988
 3686TIP3    H232474   1.938   5.605   3.035  0.9236  0.0744  0.7257
 3687TIP3   OH232475   0.964   4.603  14.988  0.1900 -0.0900  0.0288
 3687TIP3    H132476   0.918   4.560  15.060 -0.0670  0.3335  0.1193
 3687TIP3    H232477   0.948   4.697  15.002  2.0063  0.1417  0.7167
 3688TIP3   OH232478   2.490   6.652  15.100 -0.0185 -0.2990 -0.3515
 3688TIP3    H132479   2.450   6.637  15.014 -1.1400 -0.6722  0.2277
 3688TIP3    H232480   2.418   6.680  15.156  0.3801 -1.6250  0.8833
 3689TIP3   OH232481   3.568   1.632   1.099 -0.1973  0.4154  0.4115
 3689TIP3    H132482   3.631   1.594   1.039 -1.8074 -1.0455 -0.3921
 3689TIP3    H232483   3.621   1.676   1.165  1.6879 -1.6949  0.3589
 3690TIP3   OH232484   0.310   2.091   1.285 -0.5208 -0.2957 -0.6175
 3690TIP3    H132485   0.353   2.014   1.322  1.5549  0.9457 -0.3561
 3690TIP3    H232486   0.381   2.154   1.272 -2.1079  1.4035 -1.2608
 3691TIP3   OH232487   5.876   6.233  11.714  0.5424  0.0031  0.5560
 3691TIP3    H132488   5.911   6.167  11.774  2.7874  0.7204  0.0496
 3691TIP3    H232489   5.867   6.187  11.630 -0.6516 -0.4273  0.8995
 3692TIP3   OH232490   2.526   5.593   1.773 -0.1740  0.1735 -0.3814
 3692TIP3    H132491   2.453   5.651   1.755 -0.4179 -0.2484 -0.7585
 3692TIP3    H232492   2.543   5.548   1.689  0.9173  0.7260 -0.4736
 3693TIP3   OH232493   6.776   6.184   0.071  0.3401  0.0871 -0.4884
 3693TIP3    H132494   6.860   6.182   0.116 -0.2224  0.2664  0.5823
 3693TIP3    H232495   6.765   6.096   0.035  0.8746  0.0033 -0.4490
 3694TIP3   OH232496   3.897   6.272   5.287  0.0105 -0.9080  0.5601
 3694TIP3    H132497   3.839   6.313   5.350 -1.7802  0.9357 -2.1908
 3694TIP3    H232498   3.885   6.178   5.301 -1.0033 -0.5372  2.3448
 3695TIP3   OH232499   6.594   2.534   5.492  0.3731  0.0575 -0.7767
 3695TIP3    H132500   6.606   2.576   5.406 -2.9653 -0.9534 -1.8282
 3695TIP3    H232501   6.579   2.607   5.552 -0.9333  0.6368 -1.7715
 3696TIP3   OH232502   0.366   5.242   2.312 -0.2227  0.4875  0.4801
 3696TIP3    H132503   0.277   5.254   2.279 -0.0152 -0.1865 -0.3469
 3696TIP3    H232504   0.422   5.280   2.244  0.2322 -1.3119 -0.1699
 3697TIP3   OH232505   1.676   0.421   2.920 -0.0513 -0.0886  0.0856
 3697TIP3    H132506   1.624   0.351   2.880  0.0105 -1.1316  1.8027
 3697TIP3    H232507   1.623   0.500   2.907 -0.3989 -0.5374 -1.3385
 3698TIP3   OH232508   5.139   3.734   5.887 -0.0630 -0.1666  0.0790
 3698TIP3    H132509   5.136   3.639   5.875 -0.7493 -0.0606 -0.6381
 3698TIP3    H232510   5.196   3.747   5.963  1.6737 -1.0563 -1.0143
 3699TIP3   OH232511   5.140   3.523  16.171  0.5517 -0.2059  0.7685
 3699TIP3    H132512   5.048   3.531  16.145  0.7471  1.4333  0.4895
 3699TIP3    H232513   5.187   3.524  16.088  1.0748  3.3778  1.0045
 3700TIP3   OH232514   5.655   5.559   2.615  0.0571  0.2240 -0.1292
 3700TIP3    H132515   5.584   5.496   2.631  0.6002  0.1982  2.4496
 3700TIP3    H232516   5.731   5.504   2.595  0.2315  0.0920  0.8698
 3701TIP3   OH232517   2.741   6.593  16.186 -0.4253  0.5170  0.0826
 3701TIP3    H132518   2.717   6.661  16.250 -2.5382  0.3186 -0.4500
 3701TIP3    H232519   2.695   6.620  16.106  0.9771 -0.0551 -0.9212
 3702TIP3   OH232520   1.452   2.997   6.130  0.5863 -0.3389 -0.3989
 3702TIP3    H132521   1.362   2.976   6.153 -0.2573  1.4824 -1.8927
 3702TIP3    H232522   1.490   3.034   6.210 -0.2355 -0.3086 -0.0272
 3703TIP3   OH232523   6.619   5.735  14.858 -0.6199  0.0989  0.2727
 3703TIP3    H132524   6.652   5.702  14.775  0.8008  0.7909  0.5492
 3703TIP3    H232525   6.628   5.662  14.919 -2.0628 -0.5465 -0.2676
 3704TIP3   OH232526   5.400   5.608  11.843  0.1140 -0.3084 -0.2791
 3704TIP3    H132527   5.444   5.678  11.794  1.4390 -1.1489 -0.3108
 3704TIP3    H232528   5.334   5.574  11.783  2.9110 -2.5532 -2.2160
 3705TIP3   OH232529   2.844   5.799  14.212 -0.3187  0.8708 -0.1210
 3705TIP3    H132530   2.873   5.745  14.138 -0.0484  0.2273  0.4532
 3705TIP3    H232531   2.779   5.859  14.173 -0.4130  0.3289 -0.8156
 3706TIP3   OH232532   2.620   0.061  13.610 -0.2852  0.1372  0.4840
 3706TIP3    H132533   2.640   0.113  13.688 -0.6218 -0.1440  0.7604
 3706TIP3    H232534   2.585  -0.021  13.644 -1.0291  0.2569  0.0295
 3707TIP3   OH232535   3.910   1.428   0.570  0.5465 -0.3275  0.2011
 3707TIP3    H132536   3.845   1.363   0.543  0.2350  0.6725 -1.5588
 3707TIP3    H232537   3.979   1.377   0.612 -0.8161 -1.5320  1.0153
 3708TIP3   OH232538   6.599   0.007  13.807  0.2114 -0.2313  0.2007
 3708TIP3    H132539   6.601   0.024  13.901  2.0101  0.2633  0.0868
 3708TIP3    H232540   6.663  -0.063  13.793  0.4156  0.1291 -0.7361
 3709TIP3   OH232541   0.068   0.806   2.330  0.4931 -0.5465 -0.0626
 3709TIP3    H132542   0.068   0.756   2.249 -1.1984 -2.6244  1.1567
 3709TIP3    H232543  -0.016   0.852   2.330  0.0734 -1.2690  0.8733
 3710TIP3   OH232544   2.696   6.642   4.356 -0.3619 -0.5692 -0.2831
 3710TIP3    H132545   2.656   6.588   4.424 -0.1133  0.7790  0.9594
 3710TIP3    H232546   2.779   6.598   4.336 -1.6772 -2.4837 -1.7109
 3711TIP3   OH232547   0.199   4.475   4.536 -0.6509  0.4401 -0.2874
 3711TIP3    H132548   0.171   4.383   4.529 -0.6787  0.3480  0.9432
 3711TIP3    H232549   0.160   4.506   4.618  2.1397  0.5362  1.0686
 3712TIP3   OH232550   0.609   5.875  14.077  0.2962 -0.7092  0.0829
 3712TIP3    H132551   0.521   5.852  14.105  0.4941 -2.5194 -0.7246
 3712TIP3    H232552   0.666   5.825  14.135  0.7426 -1.8513 -1.3092
 3713TIP3   OH232553   1.059   6.145   0.285 -0.6729  0.4272 -0.0283
 3713TIP3    H132554   1.011   6.227   0.271 -0.4990  1.3708  4.3891
 3713TIP3    H232555   0.992   6.083   0.314 -0.0586  0.3065  1.1504
 3714TIP3   OH232556   5.830   4.980   1.053  0.2124 -0.1889 -0.8696
 3714TIP3    H132557   5.882   4.904   1.082  2.6676  0.4744 -3.3103
 3714TIP3    H232558   5.853   5.049   1.115 -1.5420 -1.1867  0.9788
 3715TIP3   OH232559   0.095   1.198   1.042  0.4869  0.3346  0.3739
 3715TIP3    H132560   0.150   1.275   1.051  1.3674 -0.1892 -0.3514
 3715TIP3    H232561   0.049   1.211   0.959  0.2289  0.3235  0.5131
 3716TIP3   OH232562   4.900   6.114   5.001  0.0500  0.4827  0.3670
 3716TIP3    H132563   4.990   6.097   5.031  0.4674  1.1723 -0.4776
 3716TIP3    H232564   4.869   6.029   4.969  0.8306  0.5000 -0.4477
 3717TIP3   OH232565   4.248   0.514   4.316 -0.2853  0.6926  0.3004
 3717TIP3    H132566   4.327   0.556   4.351  0.9271  0.0121 -1.5729
 3717TIP3    H232567   4.222   0.569   4.242  1.1989 -1.7008 -2.0508
 3718TIP3   OH232568   4.521   5.041  15.733  0.2487 -0.4714 -0.2299
 3718TIP3    H132569   4.462   5.031  15.808  1.9681 -0.0728  1.2245
 3718TIP3    H232570   4.476   5.102  15.675  0.2425  1.7171  1.9818
 3719TIP3   OH232571   1.836   5.767   5.228 -0.2033  0.1650  0.7937
 3719TIP3    H132572   1.792   5.745   5.310 -0.5897 -0.8285  0.3314
 3719TIP3    H232573   1.771   5.749   5.161  0.3333  0.3536  0.2244
 3720TIP3   OH232574   5.789   5.009  11.133 -0.3525 -0.0161 -0.1271
 3720TIP3    H132575   5.847   5.073  11.091 -0.1484 -1.5967 -2.3205
 3720TIP3    H232576   5.703   5.028  11.096 -0.5179 -0.2571  0.1342
 3721TIP3   OH232577   4.964   3.109   3.825  0.2665  0.0289  0.0694
 3721TIP3    H132578   4.953   3.202   3.845 -0.2424  0.1852 -0.9256
 3721TIP3    H232579   5.057   3.100   3.804  0.2188  0.4137 -0.3179
 3722TIP3   OH232580   6.201   1.941   0.124  0.4025 -0.5159  0.3374
 3722TIP3    H132581   6.121   1.908   0.165 -0.6210  0.7524 -0.5821
 3722TIP3    H232582   6.223   2.020   0.173  1.0655 -0.8235  0.5470
 3723TIP3   OH232583   0.840   0.766   1.158 -0.1753 -0.3589 -0.2362
 3723TIP3    H132584   0.857   0.793   1.249  0.7798  0.2254 -0.5800
 3723TIP3    H232585   0.844   0.847   1.108  1.3921 -0.9500 -1.0927
 3724TIP3   OH232586   0.881   5.584   0.563  0.1142 -0.4814  1.1624
 3724TIP3    H132587   0.861   5.501   0.607  0.6332 -2.0262 -1.3960
 3724TIP3    H232588   0.945   5.627   0.620  0.0943 -2.0249  2.3646
 3725TIP3   OH232589   5.394   1.978   3.793  0.1235 -0.2512 -0.0238
 3725TIP3    H132590   5.348   1.965   3.710  2.0147  0.7948 -1.2630
 3725TIP3    H232591   5.466   1.915   3.790  0.3811  0.0118  0.6821
 3726TIP3   OH232592   5.198   5.203  16.676 -0.6067  1.0122 -0.4055
 3726TIP3    H132593   5.189   5.228  16.585  2.6791  1.6191 -0.6222
 3726TIP3    H232594   5.212   5.108  16.674  0.0177  1.1062 -0.5905
 3727TIP3   OH232595   0.379   1.092   5.039  0.0661 -0.1820  0.1725
 3727TIP3    H132596   0.293   1.053   5.054  0.1300 -0.8809 -1.2293
 3727TIP3    H232597   0.439   1.039   5.091 -0.1270 -0.6812 -0.1161
 3728TIP3   OH232598   0.037   4.030  13.165 -0.5438 -0.2231 -0.0905
 3728TIP3    H132599   0.100   4.075  13.221 -0.6648  1.8964 -1.5915
 3728TIP3    H232600   0.091   3.972  13.110 -0.0137  0.6111 -0.4673
 3729TIP3   OH232601   5.919   6.082  13.071 -0.1438  0.1962 -0.2274
 3729TIP3    H132602   5.920   6.176  13.089  1.1856 -0.1794  1.8573
 3729TIP3    H232603   5.846   6.048  13.124 -1.6132  0.2487 -2.1770
 3730TIP3   OH232604   3.858   6.663  16.006  0.0650 -0.2674 -0.4622
 3730TIP3    H132605   3.883   6.740  16.057 -0.5162  0.1694 -0.8318
 3730TIP3    H232606   3.934   6.646  15.950  0.7431 -0.8084  0.6023
 3731TIP3   OH232607   1.010   1.055  14.990  0.2437 -0.4521  0.7405
 3731TIP3    H132608   0.940   0.991  14.981  0.9516 -1.3590  1.5675
 3731TIP3    H232609   1.091   1.003  14.987  0.7959  0.2802  2.2706
 3732TIP3   OH232610   3.466   1.627  12.633  0.0740 -0.0812  0.0454
 3732TIP3    H132611   3.378   1.646  12.598 -0.1492 -0.9713  0.1090
 3732TIP3    H232612   3.460   1.536  12.663  1.1036 -0.2329 -0.2107
 3733TIP3   OH232613   5.539   2.324   5.134  0.1507 -0.6814 -0.1970
 3733TIP3    H132614   5.584   2.256   5.084  2.0820 -1.7874  2.9264
 3733TIP3    H232615   5.608   2.388   5.153 -0.5858 -0.2084  0.9156
 3734TIP3   OH232616   1.969   1.870  16.179  0.5600 -0.6620  0.5265
 3734TIP3    H132617   1.881   1.837  16.193  0.0956 -0.0522 -0.8683
 3734TIP3    H232618   1.965   1.962  16.206  0.4390 -0.3015 -0.6997
 3735TIP3   OH232619   4.647   2.529   5.532  0.2657 -0.7655 -0.1028
 3735TIP3    H132620   4.613   2.613   5.562 -0.8511 -0.7149 -1.4765
 3735TIP3    H232621   4.733   2.549   5.496 -0.7713  0.1177 -2.1406
 3736TIP3   OH232622   6.469   0.618  14.899  0.2322  0.3233 -0.1650
 3736TIP3    H132623   6.535   0.563  14.943  1.2055  2.5000  1.1871
 3736TIP3    H232624   6.472   0.701  14.947 -2.2849  1.0471 -1.2141
 3737TIP3   OH232625   3.406   0.876   5.209 -0.3282 -0.7790 -0.2184
 3737TIP3    H132626   3.398   0.945   5.143  0.5656  0.1371  0.6117
 3737TIP3    H232627   3.363   0.800   5.169 -0.9994  0.1408 -1.2956
 3738TIP3   OH232628   5.018   6.751  13.347  0.4824 -0.2078  0.0590
 3738TIP3    H132629   5.090   6.800  13.308 -0.0932  0.0144 -0.7426
 3738TIP3    H232630   4.967   6.718  13.273 -1.4490  1.4438  0.5875
 3739TIP3   OH232631   3.347   5.375   4.155  0.1360 -0.1259  0.3172
 3739TIP3    H132632   3.300   5.324   4.090  1.2555  1.3101 -1.6616
 3739TIP3    H232633   3.381   5.310   4.217  2.6466 -1.9220 -2.8422
 3740TIP3   OH232634   1.260   1.747  12.518  0.3822  0.0908 -0.0636
 3740TIP3    H132635   1.232   1.785  12.601  0.8433  0.0211  0.1224
 3740TIP3    H232636   1.333   1.690  12.541  1.6249  1.3999 -0.7447
 3741TIP3   OH232637   1.747   6.433   1.461 -0.1502 -0.3218 -0.5809
 3741TIP3    H132638   1.792   6.504   1.415 -1.3527 -0.0100 -1.2880
 3741TIP3    H232639   1.748   6.460   1.553 -0.9622  0.8359 -0.8914
 3742TIP3   OH232640   6.775   4.857  15.117  0.1946 -0.5330  0.2728
 3742TIP3    H132641   6.700   4.851  15.176  0.5606 -1.9376  0.6217
 3742TIP3    H232642   6.849   4.827  15.169  0.6220 -1.2215 -0.7076
 3743TIP3   OH232643   4.112   4.242   2.746 -0.1802  0.2330 -0.1566
 3743TIP3    H132644   4.122   4.293   2.827  0.3640 -2.0054  1.2375
 3743TIP3    H232645   4.017   4.242   2.730 -0.2306  1.2871  0.0599
 3744TIP3   OH232646   2.275   2.098   5.836  0.2429 -0.0705 -0.3789
 3744TIP3    H132647   2.352   2.086   5.892  0.1066 -0.0068 -0.1757
 3744TIP3    H232648   2.247   2.009   5.814 -0.0285 -0.1055  0.1043
 3745TIP3   OH232649   6.260   1.913  14.752  0.2239 -0.2841 -0.3362
 3745TIP3    H132650   6.317   1.989  14.766 -0.7544  0.0764  1.9108
 3745TIP3    H232651   6.246   1.912  14.657  1.9023  1.1215 -0.6376
 3746TIP3   OH232652   6.065   4.920   3.131 -0.4078  0.1807  0.1592
 3746TIP3    H132653   6.035   5.005   3.164 -0.1447 -1.2561  4.4328
 3746TIP3    H232654   5.988   4.882   3.088 -0.9801  1.8909 -0.3683
 3747TIP3   OH232655   1.473   5.024   4.533  1.2185  0.4119 -0.2681
 3747TIP3    H132656   1.431   4.938   4.525  0.2723  1.0706 -3.2495
 3747TIP3    H232657   1.402   5.087   4.519  1.9765  1.6965  1.4860
 3748TIP3   OH232658   6.091   4.149  12.302  0.6119  0.0380  0.3767
 3748TIP3    H132659   6.178   4.150  12.342  0.4321 -0.2696  0.7836
 3748TIP3    H232660   6.089   4.069  12.250 -0.1600 -1.0606  2.0408
 3749TIP3   OH232661   1.014   2.858   5.131  0.4162  0.0419 -0.4083
 3749TIP3    H132662   1.047   2.948   5.132  1.2083 -0.2214 -1.7236
 3749TIP3    H232663   1.063   2.815   5.061  0.1273 -1.4524  0.2764
 3750TIP3   OH232664   5.892   2.632   2.806 -0.5329  0.0307 -0.4018
 3750TIP3    H132665   5.925   2.573   2.739  0.7027 -1.7637  1.7320
 3750TIP3    H232666   5.880   2.577   2.883 -1.3736  2.1612  1.0453
 3751TIP3   OH232667   0.180   5.668  10.468 -0.2820  0.3965 -0.1925
 3751TIP3    H132668   0.242   5.613  10.515 -0.0622  0.4919 -0.3722
 3751TIP3    H232669   0.231   5.744  10.440 -1.0841  1.8106  2.0438
 3752TIP3   OH232670   1.295   1.875   2.106 -0.5617  0.1815  0.2122
 3752TIP3    H132671   1.324   1.815   2.174  1.8418 -0.1202 -1.0167
 3752TIP3    H232672   1.346   1.955   2.121 -1.1511  0.6608 -0.3001
 3753TIP3   OH232673   0.027   1.608   4.599 -0.5338  0.1977 -0.0389
 3753TIP3    H132674   0.006   1.610   4.506 -0.8534  0.7396  0.0449
 3753TIP3    H232675   0.100   1.546   4.606 -1.0397 -0.4584 -0.5421
 3754TIP3   OH232676   6.696   4.032  14.137 -0.8644  0.5332  0.0740
 3754TIP3    H132677   6.691   3.957  14.197  0.1670  0.2745 -0.1670
 3754TIP3    H232678   6.607   4.067  14.136 -1.0384  0.1461  1.2615
 3755TIP3   OH232679   0.231   1.426  16.818 -0.5869  0.3073  0.2975
 3755TIP3    H132680   0.309   1.377  16.792 -0.7082 -0.9853  2.2388
 3755TIP3    H232681   0.248   1.450  16.910 -2.2504  0.4851  0.5681
 3756TIP3   OH232682   0.803   0.121  14.068 -0.6885  0.3865 -0.4833
 3756TIP3    H132683   0.866   0.190  14.045 -0.8346  0.0587 -1.8720
 3756TIP3    H232684   0.727   0.169  14.101 -0.8692  0.8975 -1.6330
 3757TIP3   OH232685   1.321   0.916  11.100  0.3977  0.4257  0.3904
 3757TIP3    H132686   1.246   0.859  11.080 -0.6470  1.3907  1.4575
 3757TIP3    H232687   1.397   0.858  11.096 -0.6376 -1.0265  1.3850
 3758TIP3   OH232688   2.475   6.776  11.875  0.4112  0.4790  0.2020
 3758TIP3    H132689   2.390   6.811  11.903  0.1752 -1.8307  2.5439
 3758TIP3    H232690   2.457   6.687  11.847  1.4522  1.2737 -3.1498
 3759TIP3   OH232691   5.350   0.143  10.774  0.3262 -0.4960 -0.8368
 3759TIP3    H132692   5.430   0.148  10.723 -0.2147 -1.3236 -1.7617
 3759TIP3    H232693   5.288   0.097  10.718 -0.5393 -0.6120  0.2048
 3760TIP3   OH232694   0.761   6.507  13.328  0.4295 -0.4862  0.0912
 3760TIP3    H132695   0.678   6.486  13.286  1.2273 -0.6265 -1.4344
 3760TIP3    H232696   0.802   6.422  13.344  0.2801 -0.4186  0.8692
 3761TIP3   OH232697   4.925   6.631   3.734 -0.1343  0.4560 -0.2625
 3761TIP3    H132698   4.847   6.579   3.718 -1.0355  1.1574  1.7105
 3761TIP3    H232699   4.893   6.709   3.780  1.5686  1.3086 -0.4709
 3762TIP3   OH232700   6.470   0.179  11.719  0.0811  0.2529 -0.2832
 3762TIP3    H132701   6.558   0.156  11.689  0.7179  2.1382  0.0225
 3762TIP3    H232702   6.472   0.162  11.813  0.1966  0.5255 -0.2366
 3763TIP3   OH232703   0.271   4.505   2.923  0.5350 -0.0559 -0.4452
 3763TIP3    H132704   0.195   4.519   2.867 -1.7385  2.0277  2.9699
 3763TIP3    H232705   0.258   4.418   2.960  0.1715  0.0343 -0.3653
 3764TIP3   OH232706   2.277   1.601  15.921 -0.1384 -0.2460  0.1481
 3764TIP3    H132707   2.263   1.696  15.923  0.7474 -0.1233  0.7160
 3764TIP3    H232708   2.280   1.579  15.828 -3.2357 -0.1631 -0.0270
 3765TIP3   OH232709   3.878   0.651   3.723  0.6168  0.2840  0.0960
 3765TIP3    H132710   3.954   0.709   3.735 -1.0101  2.6718 -0.7232
 3765TIP3    H232711   3.834   0.651   3.808 -0.4197  1.8222 -0.4175
 3766TIP3   OH232712   5.597   1.322   1.723  0.2281  0.0344  0.6828
 3766TIP3    H132713   5.647   1.240   1.726  0.8717  0.3961 -0.1868
 3766TIP3    H232714   5.514   1.298   1.681  0.1979 -0.2863  0.9245
 3767TIP3   OH232715   0.053   2.827   5.463 -0.3158 -0.0987 -0.0355
 3767TIP3    H132716   0.014   2.852   5.547 -0.1046  2.5272 -0.6737
 3767TIP3    H232717  -0.022   2.819   5.404 -0.4112 -1.3745  0.2396
 3768TIP3   OH232718   0.814   2.056   1.287 -0.3532  0.6552 -0.5185
 3768TIP3    H132719   0.849   2.113   1.218 -1.4661  1.3038 -0.5689
 3768TIP3    H232720   0.891   2.017   1.328  0.3211  0.3376 -2.0639
 3769TIP3   OH232721   0.843   4.049  16.109  0.0673 -0.4733  0.2242
 3769TIP3    H132722   0.798   4.038  16.025  0.8516  0.9739 -0.4020
 3769TIP3    H232723   0.870   3.961  16.134  0.0941 -0.8752 -1.1988
 3770TIP3   OH232724   1.671   1.324  14.745 -0.0351 -0.1561  0.3745
 3770TIP3    H132725   1.754   1.276  14.737  0.9873  1.7020 -0.4901
 3770TIP3    H232726   1.644   1.310  14.835  0.1250 -2.5050  0.1031
 3771TIP3   OH232727   2.135   4.363  16.901 -0.6626  0.8582 -0.0057
 3771TIP3    H132728   2.161   4.419  16.828 -3.7996  2.2587 -0.1377
 3771TIP3    H232729   2.043   4.342  16.884  0.1571 -3.6184  0.5331
 3772TIP3   OH232730   2.222   5.399  15.648  0.4004  0.0623  0.7505
 3772TIP3    H132731   2.172   5.365  15.573 -0.3480  1.4206  0.6142
 3772TIP3    H232732   2.164   5.464  15.687  0.5013 -1.1329  2.9376
 3773TIP3   OH232733   5.677   5.271  10.973 -0.0579 -0.5011 -0.1528
 3773TIP3    H132734   5.644   5.183  10.953  1.6325 -1.2399  0.2205
 3773TIP3    H232735   5.771   5.259  10.983  0.1179  1.2753  0.4218
 3774TIP3   OH232736   6.578   2.777  11.896 -0.1538  0.0348 -0.2794
 3774TIP3    H132737   6.485   2.776  11.918 -0.2969 -1.9515 -0.9032
 3774TIP3    H232738   6.622   2.755  11.979 -0.2153  0.9225  0.0013
 3775TIP3   OH232739   6.762   2.405   1.977 -0.6352  0.1287 -0.5440
 3775TIP3    H132740   6.705   2.398   1.900 -0.1376 -1.4922 -0.7965
 3775TIP3    H232741   6.810   2.322   1.978  0.9176  1.0199  0.2983
 3776TIP3   OH232742   4.572   5.690   5.627  0.2647  0.3829  0.0839
 3776TIP3    H132743   4.608   5.750   5.693 -2.0050 -0.9857  2.6650
 3776TIP3    H232744   4.614   5.606   5.645 -0.2852  0.0268 -0.2828
 3777TIP3   OH232745   3.363   6.245   2.601  0.6511  0.1137 -0.2368
 3777TIP3    H132746   3.429   6.216   2.664  1.2073 -0.5745 -1.1165
 3777TIP3    H232747   3.366   6.341   2.605 -0.7705  0.0952  2.2555
 3778TIP3   OH232748   3.372   4.729  11.115 -0.0451  0.2340 -0.0626
 3778TIP3    H132749   3.379   4.817  11.079  0.1903 -0.0093 -0.6252
 3778TIP3    H232750   3.462   4.697  11.116 -0.3027 -0.5797 -1.3530
 3779TIP3   OH232751   0.013   4.682  10.894 -0.4670  0.0120 -0.3873
 3779TIP3    H132752   0.083   4.617  10.898  2.2526  2.8869  1.2606
 3779TIP3    H232753  -0.045   4.659  10.967 -0.5358 -1.6266 -0.9510
 3780TIP3   OH232754   6.277   2.213   3.726  0.2801  0.1407 -0.0789
 3780TIP3    H132755   6.324   2.151   3.781 -0.8382 -0.5724  0.0848
 3780TIP3    H232756   6.194   2.170   3.706 -0.1697  1.2404 -0.6375
 3781TIP3   OH232757   6.307   0.415  11.747 -0.2375  0.7495 -0.3592
 3781TIP3    H132758   6.349   0.331  11.767  0.8114  1.4145  0.2602
 3781TIP3    H232759   6.320   0.427  11.653  0.3472  0.6234 -0.2942
 3782TIP3   OH232760   2.394   0.669   0.886  0.4080  0.3320 -0.0798
 3782TIP3    H132761   2.413   0.623   0.805 -1.0312  1.8905 -1.3252
 3782TIP3    H232762   2.299   0.665   0.896  0.3191  2.2900  0.1988
 3783TIP3   OH232763   5.982   6.568  15.739  0.0291  0.2813  0.0920
 3783TIP3    H132764   6.052   6.515  15.701  0.3545 -0.1341  1.2578
 3783TIP3    H232765   5.901   6.534  15.700  0.4026  0.2666 -0.6800
 3784TIP3   OH232766   0.200   5.765  11.803  0.2261  0.0408 -0.1830
 3784TIP3    H132767   0.199   5.716  11.885  0.8038 -2.1123 -1.4098
 3784TIP3    H232768   0.230   5.701  11.738 -1.0927  1.4399 -2.2193
 3785TIP3   OH232769   6.023   1.248   1.293  0.3823  0.2394  0.0929
 3785TIP3    H132770   6.015   1.183   1.363  0.3799 -0.0236 -0.1562
 3785TIP3    H232771   5.936   1.289   1.290 -0.2662 -1.2134 -1.2070
 3786TIP3   OH232772   4.829   6.001  15.504  0.2158 -0.0686  0.6389
 3786TIP3    H132773   4.837   6.041  15.591  2.5495 -0.6404  0.7185
 3786TIP3    H232774   4.823   5.907  15.521 -1.7011 -0.0348  0.2739
 3787TIP3   OH232775   5.446   3.763  10.923 -1.0831 -0.6617  0.0119
 3787TIP3    H132776   5.361   3.731  10.896 -0.5322 -0.4759 -2.0359
 3787TIP3    H232777   5.507   3.693  10.900 -0.3682  0.2630 -0.9643
 3788TIP3   OH232778   6.602   0.148  16.996  0.0405 -0.3390  0.5214
 3788TIP3    H132779   6.595   0.223  17.055 -0.6761  1.2962 -1.5836
 3788TIP3    H232780   6.521   0.151  16.944  0.7320 -1.6272 -0.6520
 3789TIP3   OH232781   3.631   4.593   5.067 -0.0368 -0.2026  0.7915
 3789TIP3    H132782   3.722   4.564   5.078  0.4986  0.7944 -0.8759
 3789TIP3    H232783   3.613   4.645   5.146  1.1699  0.3733  0.7028
 3790TIP3   OH232784   0.840   6.248  13.308  0.1316  0.1557  0.1731
 3790TIP3    H132785   0.773   6.186  13.338  0.3428  0.6572  1.7189
 3790TIP3    H232786   0.870   6.212  13.225 -2.3921  0.1730 -0.7731
 3791TIP3   OH232787   5.723   5.462  15.166  0.0683  0.7105  0.0406
 3791TIP3    H132788   5.698   5.420  15.248 -1.1093 -0.1330 -0.7346
 3791TIP3    H232789   5.698   5.554  15.177  2.8473  1.3358  1.8235
 3792TIP3   OH232790   4.204   4.552  15.259  0.1596 -0.6109 -0.4807
 3792TIP3    H132791   4.256   4.632  15.267 -0.3177 -0.2441 -0.9850
 3792TIP3    H232792   4.113   4.581  15.268 -0.0205 -1.0929 -0.7048
 3793TIP3   OH232793   2.003   5.503   6.082 -0.0269  0.0126 -0.4029
 3793TIP3    H132794   1.973   5.451   6.157 -0.1891 -0.5627 -0.8601
 3793TIP3    H232795   1.922   5.529   6.037  0.1065 -0.6224 -1.0259
 3794TIP3   OH232796   4.159   0.753   0.960 -0.1005 -0.5316  0.3544
 3794TIP3    H132797   4.130   0.778   1.048 -0.3331 -0.5681  0.2893
 3794TIP3    H232798   4.220   0.681   0.975  1.5089  0.8635  0.6149
 3795TIP3   OH232799   6.568   3.095   0.996 -0.0990  0.1264 -0.0790
 3795TIP3    H132800   6.648   3.148   0.988 -1.5653  2.4748  0.3099
 3795TIP3    H232801   6.571   3.037   0.920  0.6983  1.9906 -1.5244
 3796TIP3   OH232802   4.045   1.447   1.478 -0.0056  0.7574  0.3759
 3796TIP3    H132803   4.095   1.383   1.428 -0.0497  1.6546 -0.8345
 3796TIP3    H232804   4.111   1.503   1.519  0.0176  1.2716 -0.3433
 3797TIP3   OH232805   6.507   3.039  12.612 -0.1408  0.4333  0.0304
 3797TIP3    H132806   6.425   3.066  12.653 -0.4062  0.7801 -0.7193
 3797TIP3    H232807   6.500   3.070  12.522  0.3270 -0.5368 -0.3542
 3798TIP3   OH232808   5.943   0.914  16.726 -0.3978  0.0193 -0.1661
 3798TIP3    H132809   5.937   0.859  16.805  2.0432  0.3158  0.2735
 3798TIP3    H232810   6.025   0.962  16.737 -0.5704  0.8698 -2.4039
 3799TIP3   OH232811   4.422   4.963  14.906  0.6322 -0.0827 -0.5780
 3799TIP3    H132812   4.439   4.881  14.952 -0.6973 -0.7014 -1.1844
 3799TIP3    H232813   4.488   5.024  14.941  0.6542 -0.9730  0.9714
 3800TIP3   OH232814   2.127   2.599   0.964  0.6981 -0.2929  0.4445
 3800TIP3    H132815   2.039   2.633   0.953 -0.0669 -2.0104  1.0869
 3800TIP3    H232816   2.184   2.675   0.952 -0.8254  0.7262 -0.5351
 3801TIP3   OH232817   6.032   2.877   6.752  0.3499  0.6209 -0.2645
 3801TIP3    H132818   6.065   2.913   6.834  2.7250  0.0172 -0.9190
 3801TIP3    H232819   6.102   2.894   6.689 -1.5020  1.2115 -2.2133
 3802TIP3   OH232820   1.259   0.046   1.480  0.0784 -0.0362  0.0760
 3802TIP3    H132821   1.277  -0.033   1.429 -0.0646 -1.2268  1.8562
 3802TIP3    H232822   1.178   0.027   1.527  0.1296  1.1106  0.6455
 3803TIP3   OH232823   3.401   5.953  14.102 -0.1732  0.4715 -0.2881
 3803TIP3    H132824   3.378   5.860  14.094  1.7628 -0.0661  0.1822
 3803TIP3    H232825   3.444   5.974  14.019  0.4523  0.6274  0.0745
 3804TIP3   OH232826   4.244   1.303  14.874 -0.3086  0.1565  0.3267
 3804TIP3    H132827   4.157   1.343  14.879 -1.7764 -2.5010 -2.2495
 3804TIP3    H232828   4.284   1.343  14.797 -1.2380 -2.2073 -1.4273
 3805TIP3   OH232829   2.929   2.056  11.703  0.0064 -0.2629 -0.2786
 3805TIP3    H132830   2.852   2.106  11.726 -0.2266  1.0052 -3.5541
 3805TIP3    H232831   2.899   1.965  11.701 -0.1245 -0.3931  3.3102
 3806TIP3   OH232832   4.057   4.118   4.533  0.0077 -0.5929 -0.5103
 3806TIP3    H132833   4.095   4.161   4.609 -0.9167 -1.0304  0.2191
 3806TIP3    H232834   3.995   4.182   4.497 -0.8685 -1.0392  0.1736
 3807TIP3   OH232835   5.631   1.839   5.727  0.0484 -0.3279  0.4540
 3807TIP3    H132836   5.586   1.840   5.812 -1.1409  0.6788 -0.1597
 3807TIP3    H232837   5.640   1.932   5.704 -0.5074 -0.6132 -0.9626
 3808TIP3   OH232838   6.117   6.295   2.266  0.0624  0.1025 -0.1817
 3808TIP3    H132839   6.047   6.237   2.236  1.8404 -2.1042 -0.1923
 3808TIP3    H232840   6.105   6.375   2.215 -2.2331 -0.3616 -0.4221
 3809TIP3   OH232841   1.004   5.384   0.025  0.1628 -0.2911 -0.0126
 3809TIP3    H132842   0.944   5.422   0.090 -0.4516 -1.1957 -0.0425
 3809TIP3    H232843   1.089   5.384   0.068 -0.0568  0.0151  0.4297
 3810TIP3   OH232844   3.246   5.028  15.216  0.0666 -0.1410 -0.1701
 3810TIP3    H132845   3.190   5.105  15.210 -0.2763 -0.4926 -1.5942
 3810TIP3    H232846   3.200   4.970  15.278  0.2830  0.7379  0.8287
 3811TIP3   OH232847   1.096   6.437  13.672  0.0163  0.2468 -0.3002
 3811TIP3    H132848   1.114   6.511  13.614 -1.8330  0.5597 -0.5074
 3811TIP3    H232849   1.004   6.447  13.694  0.3617 -0.6355  1.6193
 3812TIP3   OH232850   1.268   2.540  16.834  0.2111  0.4605 -0.3822
 3812TIP3    H132851   1.330   2.487  16.785  0.5671  0.8134 -0.3175
 3812TIP3    H232852   1.304   2.629  16.832  0.2345  0.4762  0.5150
 3813TIP3   OH232853   0.790   4.563   4.465 -0.3222 -0.4256 -0.2673
 3813TIP3    H132854   0.795   4.506   4.542  0.8981  0.1849  0.1181
 3813TIP3    H232855   0.797   4.503   4.391 -0.9439 -0.9651  0.1054
 3814TIP3   OH232856   0.251   0.431  15.364  0.0309  0.0307 -0.2732
 3814TIP3    H132857   0.261   0.511  15.416 -1.7533  0.8025 -1.0552
 3814TIP3    H232858   0.222   0.463  15.278 -0.0572 -1.4210 -0.7840
 3815TIP3   OH232859   0.866   3.886   6.357 -0.5228 -0.4661 -0.4393
 3815TIP3    H132860   0.953   3.853   6.339 -0.3850 -1.7043  2.1931
 3815TIP3    H232861   0.809   3.842   6.293  0.1025 -3.5431  1.0104
 3816TIP3   OH232862   1.922   6.135   4.934 -0.4354 -0.2132 -0.0535
 3816TIP3    H132863   1.839   6.126   4.887 -0.9393 -2.0151  1.1178
 3816TIP3    H232864   1.898   6.137   5.026  0.7863 -0.3971  0.2884
 3817TIP3   OH232865   1.136   2.352  14.895  0.3290  0.5691 -0.0575
 3817TIP3    H132866   1.094   2.407  14.830  0.7507  1.6336  0.5502
 3817TIP3    H232867   1.202   2.409  14.936  0.3243 -0.1855  1.0318
 3818TIP3   OH232868   0.291   2.667   1.073 -0.6923  0.9367  0.0471
 3818TIP3    H132869   0.326   2.594   1.125 -0.5571  0.5794 -0.5381
 3818TIP3    H232870   0.286   2.740   1.134 -0.6707  0.4780  0.5992
 3819TIP3   OH232871   0.816   6.111   2.224 -0.5069  0.0496  0.1198
 3819TIP3    H132872   0.807   6.158   2.141  1.0140  1.5490  0.7618
 3819TIP3    H232873   0.752   6.040   2.219 -1.1649  0.7519 -1.8917
 3820TIP3   OH232874   1.978   5.129  14.673  0.3425 -0.7982  0.2365
 3820TIP3    H132875   1.936   5.071  14.737  0.6614 -2.6058 -1.1486
 3820TIP3    H232876   1.938   5.106  14.590 -0.0979  1.5775 -0.2414
 3821TIP3   OH232877   4.027   4.389  16.721  0.1327  0.2441  0.1804
 3821TIP3    H132878   3.982   4.308  16.697 -0.7935  0.5917  0.7291
 3821TIP3    H232879   4.098   4.361  16.778 -0.1268 -0.1972  0.2894
 3822TIP3   OH232880   4.437   4.050   5.127 -0.3877 -0.5493 -0.3263
 3822TIP3    H132881   4.497   3.981   5.099  2.5690  1.0214  1.8940
 3822TIP3    H232882   4.352   4.006   5.134  0.9777 -3.4427 -1.0784
 3823TIP3   OH232883   6.264   0.942   5.972  0.1896  0.2533  0.3348
 3823TIP3    H132884   6.194   0.910   5.915  1.4020 -0.3938 -0.8134
 3823TIP3    H232885   6.297   0.864   6.016  1.8029  0.1742 -0.9544
 3824TIP3   OH232886   6.684   3.684  12.804  0.1218  0.0998  0.2352
 3824TIP3    H132887   6.774   3.653  12.799  0.0930  0.0292  0.1491
 3824TIP3    H232888   6.680   3.735  12.885  0.4014  0.6082 -0.0636
 3825TIP3   OH232889   4.264   3.005   4.484 -1.5062  0.2185 -0.2251
 3825TIP3    H132890   4.336   3.058   4.517  0.5613 -1.9791 -1.0133
 3825TIP3    H232891   4.219   2.973   4.562 -0.5820  0.2677  0.3313
 3826TIP3   OH232892   0.075   6.502  15.507 -0.8364 -0.4661  0.0249
 3826TIP3    H132893   0.016   6.567  15.469  1.0434  0.4008 -1.5036
 3826TIP3    H232894   0.107   6.452  15.431  1.1325 -0.2805  0.7221
 3827TIP3   OH232895   1.060   5.297   0.733 -0.1391  0.3060  0.2447
 3827TIP3    H132896   1.023   5.382   0.707 -1.8448 -0.6346 -0.5115
 3827TIP3    H232897   1.051   5.296   0.828  0.3386  1.1782  0.3051
 3828TIP3   OH232898   0.032   4.598   3.755  0.2056  0.2761 -0.3163
 3828TIP3    H132899   0.085   4.618   3.832 -0.5347  2.3972 -0.3178
 3828TIP3    H232900   0.071   4.519   3.718  1.9995  0.5657  0.9229
 3829TIP3   OH232901   2.390   6.588  15.594 -0.0077 -0.1019 -0.5915
 3829TIP3    H132902   2.454   6.576  15.524  0.0065 -1.2097 -0.3864
 3829TIP3    H232903   2.337   6.509  15.592 -1.1169  0.6326 -0.4894
 3830TIP3   OH232904   2.581   5.860   5.503  0.0223  0.0054  0.0448
 3830TIP3    H132905   2.611   5.919   5.433 -0.1547  0.0599  0.0138
 3830TIP3    H232906   2.625   5.893   5.582  0.6302 -0.3731 -0.1296
 3831TIP3   OH232907   6.079   1.196  11.505  0.4676  0.4185  0.1393
 3831TIP3    H132908   6.091   1.128  11.571 -3.3878 -0.2614  0.2260
 3831TIP3    H232909   6.041   1.269  11.553 -1.1397  0.3958 -1.0585
 3832TIP3   OH232910   0.992   6.359  14.478 -0.4696  0.4099  0.0700
 3832TIP3    H132911   1.059   6.365  14.546  1.2563 -1.4954 -1.4130
 3832TIP3    H232912   0.910   6.377  14.524  0.9437  1.9218  2.0885
 3833TIP3   OH232913   0.090   2.386  14.944 -0.5185 -0.0761 -0.1160
 3833TIP3    H132914   0.097   2.371  14.850 -2.2167 -0.4170 -0.1873
 3833TIP3    H232915   0.162   2.334  14.981 -0.3974 -0.6621 -1.1488
 3834TIP3   OH232916   0.145   6.101   3.503  0.1038  0.1960  1.1391
 3834TIP3    H132917   0.109   6.013   3.511  1.9303 -0.7437 -0.4627
 3834TIP3    H232918   0.180   6.104   3.414  0.0687  2.5563  1.1703
 3835TIP3   OH232919   0.523   1.445   2.821  0.1265  0.4330 -0.4700
 3835TIP3    H132920   0.496   1.481   2.905  2.0210  2.3533 -0.6584
 3835TIP3    H232921   0.446   1.456   2.764 -0.8698 -0.0995  0.7387
 3836TIP3   OH232922   5.521   6.720  11.229 -0.3537 -0.3720 -0.4049
 3836TIP3    H132923   5.473   6.687  11.304  0.7460  1.1154  0.9718
 3836TIP3    H232924   5.457   6.769  11.178 -1.3381 -2.2195 -1.0149
 3837TIP3   OH232925   1.691   2.596  13.139  0.2801  0.0110  0.5986
 3837TIP3    H132926   1.698   2.666  13.204  1.3710 -0.3119  0.8346
 3837TIP3    H232927   1.763   2.536  13.160 -0.1902 -0.7963 -0.0682
 3838TIP3   OH232928   3.661   5.137   4.219  0.2188  0.1481 -0.2176
 3838TIP3    H132929   3.584   5.145   4.275  0.7943 -2.3453  0.9883
 3838TIP3    H232930   3.732   5.114   4.279  1.8849  2.1552 -1.3450
 3839TIP3   OH232931   4.811   5.042   4.047 -0.0233  0.2600  0.0963
 3839TIP3    H132932   4.716   5.039   4.048 -0.0077 -0.3969 -0.1290
 3839TIP3    H232933   4.838   4.952   4.031  0.6191  0.5706 -0.6365
 3840TIP3   OH232934   2.157   1.064  13.776  0.2499  0.2359  0.5314
 3840TIP3    H132935   2.138   1.045  13.684 -0.7871  0.0858  0.7764
 3840TIP3    H232936   2.252   1.080  13.778  0.6251 -1.7570 -0.2290
 3841TIP3   OH232937   4.814   0.366   5.702  0.7803  0.0495  0.0916
 3841TIP3    H132938   4.754   0.441   5.708  1.5512  0.8077 -1.4652
 3841TIP3    H232939   4.782   0.305   5.769 -0.3756  1.3930  0.8015
 3842TIP3   OH232940   5.623   2.633  14.237  0.1582  0.7800  0.4262
 3842TIP3    H132941   5.690   2.686  14.280 -0.5046  0.7357  1.5273
 3842TIP3    H232942   5.611   2.674  14.151  0.7704  1.4736  0.6701
 3843TIP3   OH232943   2.793   0.836   3.875  0.4633 -0.8304 -0.2260
 3843TIP3    H132944   2.830   0.828   3.963 -1.9328  1.6299  1.0796
 3843TIP3    H232945   2.700   0.817   3.887 -0.2510  1.4233 -1.8295
 3844TIP3   OH232946   5.074   5.505   4.121 -0.5880 -0.4091 -0.1040
 3844TIP3    H132947   5.041   5.537   4.205  0.1543  1.2486 -0.4286
 3844TIP3    H232948   5.010   5.439   4.095 -1.8207  0.3433  0.9006
 3845TIP3   OH232949   5.178   5.475   5.375  0.8766  0.3849  0.1854
 3845TIP3    H132950   5.182   5.510   5.464  0.6875  0.8997 -0.0063
 3845TIP3    H232951   5.226   5.393   5.379  2.6447  1.4096  0.2950
 3846TIP3   OH232952   4.792   0.434   1.437 -0.1258  0.2624 -0.3656
 3846TIP3    H132953   4.781   0.520   1.397 -0.1460 -0.0783 -1.1144
 3846TIP3    H232954   4.886   0.427   1.452 -0.4562  1.6557  2.5599
 3847TIP3   OH232955   3.047   3.690   2.277  0.2695  0.2595 -0.1363
 3847TIP3    H132956   3.070   3.628   2.208  0.1326  1.7649 -1.5680
 3847TIP3    H232957   3.115   3.679   2.343 -1.2375 -3.3656  0.9540
 3848TIP3   OH232958   5.381   0.804   5.362  0.2976 -0.0378 -0.9682
 3848TIP3    H132959   5.384   0.711   5.383 -0.9789 -0.1451 -1.2544
 3848TIP3    H232960   5.402   0.809   5.269  0.9441  0.0156 -0.8227
 3849TIP3   OH232961   2.112   3.063   1.667  0.1007  0.0625 -0.2803
 3849TIP3    H132962   2.034   3.090   1.620  0.3885 -1.3182 -1.6274
 3849TIP3    H232963   2.145   3.142   1.708 -1.0770  0.9832 -1.0875
 3850TIP3   OH232964   0.966   2.609  13.849  0.1382  0.2825 -0.5432
 3850TIP3    H132965   0.937   2.572  13.933 -0.0311 -0.4935 -0.9296
 3850TIP3    H232966   0.906   2.570  13.785  0.2406  0.9044 -1.0131
 3851TIP3   OH232967   3.410   4.981  14.376 -0.7129 -0.4989  0.1433
 3851TIP3    H132968   3.345   5.026  14.430 -1.4882 -0.4259 -0.8361
 3851TIP3    H232969   3.460   4.927  14.438  0.6728  2.1503  1.4564
 3852TIP3   OH232970   3.211   0.202   3.152 -0.6755 -0.1435  0.4830
 3852TIP3    H132971   3.194   0.172   3.241  0.9093 -0.9225  0.5455
 3852TIP3    H232972   3.169   0.287   3.146  0.0837  0.3661  2.3165
 3853TIP3   OH232973   0.776   1.234   4.497 -0.1383  0.0853  0.4352
 3853TIP3    H132974   0.851   1.174   4.500 -0.2220 -0.0911 -0.5874
 3853TIP3    H232975   0.771   1.271   4.585  1.6291  0.6823  0.3106
 3854TIP3   OH232976   2.537   1.777   2.763 -0.3243  0.4045 -0.7079
 3854TIP3    H132977   2.470   1.720   2.801  1.1650  0.0637  1.5318
 3854TIP3    H232978   2.601   1.716   2.726  1.4130  0.5362  1.9325
 3855TIP3   OH232979   4.821   4.841  13.784  0.5019  0.2902 -0.3678
 3855TIP3    H132980   4.747   4.815  13.839  0.1276 -1.1203 -1.5231
 3855TIP3    H232981   4.880   4.887  13.844  0.0610 -1.1339  1.1932
 3856TIP3   OH232982   4.951   6.575  12.355  0.5454  0.6234 -0.2375
 3856TIP3    H132983   4.990   6.489  12.372 -2.5910 -0.6855  0.7796
 3856TIP3    H232984   4.918   6.569  12.266  0.1275  0.6850 -0.0882
 3857TIP3   OH232985   6.647   1.065  15.860 -0.0274  0.1635  0.2318
 3857TIP3    H132986   6.645   0.970  15.863 -1.1724  0.1630 -0.2971
 3857TIP3    H232987   6.682   1.085  15.773 -2.0539  0.2068 -0.6143
 3858TIP3   OH232988   1.702   6.721  16.844  0.0754 -0.6740  0.1502
 3858TIP3    H132989   1.788   6.745  16.810  0.3453 -2.2371 -0.3303
 3858TIP3    H232990   1.714   6.716  16.939  0.0767  0.7737  0.2299
 3859TIP3   OH232991   0.489   3.812  13.348  0.0476  0.2721 -0.0869
 3859TIP3    H132992   0.526   3.777  13.430  1.1417  1.8218  0.0920
 3859TIP3    H232993   0.459   3.734  13.301 -0.2603 -0.6706  1.6307
 3860TIP3   OH232994   4.212   1.001   0.614  0.1930  0.1473 -0.0720
 3860TIP3    H132995   4.237   1.006   0.706 -1.1488  1.6592  0.2321
 3860TIP3    H232996   4.277   0.943   0.574  1.8113  0.8709  1.4658
 3861TIP3   OH232997   2.408   2.269  15.397 -0.1833 -0.0013 -0.2425
 3861TIP3    H132998   2.462   2.328  15.345 -0.6268 -0.3712 -1.1325
 3861TIP3    H232999   2.467   2.236  15.465  0.3788  0.5472 -0.4611
 3862TIP3   OH233000   6.613   3.291  12.428  0.0780  0.4201  0.4878
 3862TIP3    H133001   6.569   3.219  12.383 -0.0318  0.0258  1.2225
 3862TIP3    H233002   6.548   3.361  12.431  0.6370  1.0502 -1.4479
 3863TIP3   OH233003   1.563   0.978   1.397 -0.1219 -0.0160 -0.2659
 3863TIP3    H133004   1.567   1.070   1.421 -3.0182 -0.2005  1.2102
 3863TIP3    H233005   1.606   0.973   1.311  2.1847  2.2488  0.7147
 3864TIP3   OH233006   1.190   2.538  11.618  0.0890  0.5866 -0.1034
 3864TIP3    H133007   1.247   2.559  11.692 -0.3541 -0.8220  0.6767
 3864TIP3    H233008   1.159   2.449  11.637 -1.7551  1.0360 -0.8911
 3865TIP3   OH233009   4.284   3.766  12.575 -0.3706 -0.2209  0.2665
 3865TIP3    H133010   4.205   3.738  12.621 -0.7392  0.9644  0.3469
 3865TIP3    H233011   4.356   3.736  12.632 -0.7203 -1.8863 -0.1320
 3866TIP3   OH233012   4.128   4.097  12.310 -0.0814 -0.3094  0.4919
 3866TIP3    H133013   4.087   4.032  12.366 -2.2294 -0.7555 -1.5316
 3866TIP3    H233014   4.129   4.177  12.363 -0.7537 -1.0781  1.6830
 3867TIP3   OH233015   1.989   6.056  14.491  0.8042 -0.8392  0.3483
 3867TIP3    H133016   1.939   6.116  14.547 -1.5812 -3.1878  0.8130
 3867TIP3    H233017   2.063   6.030  14.545  1.1705  0.6887  0.6101
 3868TIP3   OH233018   4.827   3.543   1.413 -0.4259 -0.1033  0.2884
 3868TIP3    H133019   4.896   3.548   1.347  0.6238 -3.6772  1.0159
 3868TIP3    H233020   4.780   3.626   1.405  1.5414  0.7843 -2.8649
 3869TIP3   OH233021   5.553   5.908  13.670  0.5296 -0.7174 -0.3504
 3869TIP3    H133022   5.621   5.851  13.705 -0.4375 -1.7818 -0.1739
 3869TIP3    H233023   5.483   5.903  13.735  0.6570  1.1096 -0.0555
 3870TIP3   OH233024   2.992   3.316  12.578  0.1700  0.4743 -0.3045
 3870TIP3    H133025   2.899   3.300  12.588  0.0809  1.2825  0.2271
 3870TIP3    H233026   3.005   3.406  12.609  1.1846  0.2396 -0.0023
 3871TIP3   OH233027   4.485   0.209   1.078 -0.1613 -0.2436 -1.1200
 3871TIP3    H133028   4.397   0.201   1.114  0.5895  0.3687  0.9682
 3871TIP3    H233029   4.522   0.121   1.084  0.2513  0.0235  0.4588
 3872TIP3   OH233030   5.949   5.520   1.934 -0.6768 -0.1395 -0.2592
 3872TIP3    H133031   5.926   5.522   1.841  0.5484  1.1043 -0.5530
 3872TIP3    H233032   6.041   5.495   1.935 -0.6305  0.0526  0.6147
 3873TIP3   OH233033   1.570   0.744   1.978  0.0003 -0.1659  0.0436
 3873TIP3    H133034   1.624   0.823   1.985  0.0614 -0.0834 -1.1315
 3873TIP3    H233035   1.482   0.776   1.958  0.2188 -0.4106 -1.3898
 3874TIP3   OH233036   3.592   4.764   0.049 -0.1552  0.4976 -0.8731
 3874TIP3    H133037   3.576   4.837  -0.012 -0.3335 -1.2227 -2.9483
 3874TIP3    H233038   3.591   4.686  -0.007  1.5580 -0.9634  1.0820
 3875TIP3   OH233039   3.747   0.452  11.522  0.5007  0.1483  0.0873
 3875TIP3    H133040   3.662   0.482  11.492  0.4431  0.5590  0.6605
 3875TIP3    H233041   3.727   0.384  11.587  0.5897  1.1759  1.2011
 3876TIP3   OH233042   5.810   0.759   2.714 -0.1442  0.0901  0.3979
 3876TIP3    H133043   5.795   0.854   2.709 -1.6997 -0.0954  1.3859
 3876TIP3    H233044   5.782   0.735   2.802 -2.1759 -1.7142 -0.6969
 3877TIP3   OH233045   0.127   6.584   2.190  0.6609 -0.3522 -0.4031
 3877TIP3    H133046   0.118   6.559   2.098  0.8587 -2.4448  0.1301
 3877TIP3    H233047   0.042   6.561   2.229  0.7544  0.0623  0.0535
 3878TIP3   OH233048   6.279   2.984   2.030 -0.0606  0.3281 -0.2803
 3878TIP3    H133049   6.356   2.936   2.058 -1.2269 -0.5745  1.4085
 3878TIP3    H233050   6.310   3.037   1.955  2.2413  0.2190  0.5584
 3879TIP3   OH233051   6.199   2.404  14.777 -0.0335 -0.1929  0.0052
 3879TIP3    H133052   6.234   2.492  14.793  0.7591 -0.4158 -0.5049
 3879TIP3    H233053   6.140   2.416  14.703  0.3876 -0.1680 -0.3264
 3880TIP3   OH233054   4.749   5.106  16.162 -0.2114 -0.5413  0.2298
 3880TIP3    H133055   4.692   5.181  16.180  0.3852  0.0078 -0.1637
 3880TIP3    H233056   4.763   5.066  16.248 -0.0397  0.1549  0.5299
 3881TIP3   OH233057   3.049   1.146   5.814 -0.3086  0.2109  0.1275
 3881TIP3    H133058   3.049   1.175   5.906 -2.0472 -0.6194  0.3983
 3881TIP3    H233059   3.036   1.051   5.819 -1.4201  0.2931 -1.0151
 3882TIP3   OH233060   4.796   5.677  16.236  0.6231 -0.0085 -0.4853
 3882TIP3    H133061   4.727   5.630  16.188 -0.9031  3.3111 -1.6819
 3882TIP3    H233062   4.852   5.712  16.167  0.7223  1.3935  0.2920
 3883TIP3   OH233063   0.180   2.854   0.609  0.0544  0.0968 -0.7333
 3883TIP3    H133064   0.238   2.799   0.556  1.9928 -0.6515  2.0723
 3883TIP3    H233065   0.211   2.944   0.593 -0.3127  0.0140 -1.9625
 3884TIP3   OH233066   1.394   5.124  10.339 -0.3235 -0.7403  0.7132
 3884TIP3    H133067   1.386   5.133  10.434 -0.1618 -1.5680  0.8029
 3884TIP3    H233068   1.447   5.046  10.326  2.5275  1.2088 -0.0041
 3885TIP3   OH233069   1.048   2.613   0.465 -0.0254  0.2072 -0.1432
 3885TIP3    H133070   1.016   2.682   0.523 -0.4400  1.0466 -1.3518
 3885TIP3    H233071   1.102   2.558   0.521  0.1414  1.3933  0.8876
 3886TIP3   OH233072   5.521   4.433  16.895 -0.0630  0.2005 -0.0570
 3886TIP3    H133073   5.570   4.361  16.936 -1.5511 -0.5879  0.3757
 3886TIP3    H233074   5.586   4.501  16.880  0.9835 -0.4601  1.3746
 3887TIP3   OH233075   0.616   1.677   2.257 -0.4398  0.8821  0.0693
 3887TIP3    H133076   0.589   1.759   2.215 -1.3305  1.3560  1.5213
 3887TIP3    H233077   0.587   1.608   2.197 -2.1927  1.5190  0.1627
 3888TIP3   OH233078   5.900   0.048   2.571 -0.2246 -0.1782 -0.1457
 3888TIP3    H133079   5.887  -0.003   2.491 -1.2724  0.0308 -0.1094
 3888TIP3    H233080   5.955  -0.008   2.627  1.5130  0.1523 -1.4621
 3889TIP3   OH233081   5.936   5.952   2.929 -0.1304  0.6319 -0.2915
 3889TIP3    H133082   5.974   5.892   2.865 -0.2983  0.3533 -0.1317
 3889TIP3    H233083   5.841   5.936   2.924 -0.2678  1.6347 -1.0063
 3890TIP3   OH233084   6.173   2.142  11.287  0.2805 -0.3485 -0.3946
 3890TIP3    H133085   6.161   2.049  11.265 -1.1876 -0.3626  0.3510
 3890TIP3    H233086   6.211   2.140  11.375 -0.7911 -0.2490  0.0810
 3891TIP3   OH233087   6.730   0.742   4.164 -0.2286 -0.0035  0.2746
 3891TIP3    H133088   6.636   0.763   4.160  0.0779  1.2286 -0.4640
 3891TIP3    H233089   6.741   0.703   4.251 -1.0261  1.8163  1.2160
 3892TIP3   OH233090   5.898   5.357  16.359  0.4237  0.0001  0.1267
 3892TIP3    H133091   5.876   5.330  16.270  1.1738 -3.9594  1.0478
 3892TIP3    H233092   5.994   5.361  16.360  0.3983  0.4902  0.6204
 3893TIP3   OH233093   6.288   3.757   5.733  0.5764 -0.2286 -0.0341
 3893TIP3    H133094   6.345   3.739   5.808  2.6320 -0.0847 -1.5034
 3893TIP3    H233095   6.239   3.676   5.720 -1.9767  0.6889  3.2261
 3894TIP3   OH233096   3.342   1.243   1.093  0.1448  0.2263 -0.0955
 3894TIP3    H133097   3.280   1.292   1.038 -0.3163 -0.6456 -0.3592
 3894TIP3    H233098   3.295   1.230   1.175  0.7868  1.4191  0.4826
 3895TIP3   OH233099   5.370   2.422  11.849  0.2178 -0.4083  0.2711
 3895TIP3    H133100   5.286   2.385  11.878  1.3319 -2.1648  1.3188
 3895TIP3    H233101   5.350   2.465  11.766 -1.3483 -2.4117 -0.4273
 3896TIP3   OH233102   5.014   1.571   2.712  0.2288  0.3272  0.0898
 3896TIP3    H133103   5.080   1.567   2.780  3.5921 -0.0301 -3.0423
 3896TIP3    H233104   4.990   1.480   2.695  0.3352  0.3285 -0.0701
 3897TIP3   OH233105   2.103   6.027  11.688  0.7025 -0.2495 -0.3089
 3897TIP3    H133106   2.162   6.086  11.734  1.0311 -3.3136  3.4213
 3897TIP3    H233107   2.029   6.082  11.663  1.8845  2.1585  1.2927
 3898TIP3   OH233108   4.678   2.957  16.339 -0.9473 -0.2693  0.1214
 3898TIP3    H133109   4.620   3.028  16.314 -1.0913 -0.5781 -0.4192
 3898TIP3    H233110   4.704   2.916  16.256  0.0135 -0.1496  0.3579
 3899TIP3   OH233111   1.098   6.328  16.807  0.5414  0.7014 -0.1461
 3899TIP3    H133112   1.064   6.313  16.895 -0.0158 -1.4476 -0.6822
 3899TIP3    H233113   1.035   6.387  16.766 -0.7526 -0.5341  0.0030
 3900TIP3   OH233114   0.638   5.407   3.993  0.1606  0.1784 -0.1394
 3900TIP3    H133115   0.658   5.496   4.022 -0.1686  0.6877 -1.4572
 3900TIP3    H233116   0.719   5.358   4.009 -0.0898  0.3674  1.8702
 3901TIP3   OH233117   2.398   3.467  17.114  0.3749 -0.0953  0.8952
 3901TIP3    H133118   2.336   3.409  17.159 -1.1956  1.2363  0.4789
 3901TIP3    H233119   2.355   3.488  17.031  1.8911 -0.0665  0.1142
 3902TIP3   OH233120   6.689   2.995   3.503  0.1556  0.0560 -0.8092
 3902TIP3    H133121   6.625   2.975   3.435 -0.8484 -0.8547  0.3898
 3902TIP3    H233122   6.699   3.090   3.500 -2.0660  0.3205 -0.2819
 3903TIP3   OH233123   5.866   4.444  16.138 -0.0998  0.0792  0.2606
 3903TIP3    H133124   5.917   4.452  16.219  0.0435  1.1886  0.0673
 3903TIP3    H233125   5.931   4.455  16.068 -0.1952 -1.0307 -0.0154
 3904TIP3   OH233126   2.276   2.547  15.207  0.0002 -0.4664  0.3903
 3904TIP3    H133127   2.299   2.583  15.292 -1.1007 -0.3822  0.6684
 3904TIP3    H233128   2.274   2.623  15.148  0.0183 -0.4130  0.4589
 3905TIP3   OH233129   3.672   6.526  13.647  0.3406  0.4925  0.1475
 3905TIP3    H133130   3.636   6.444  13.613 -0.6936  0.6573  0.8330
 3905TIP3    H233131   3.691   6.578  13.568  0.4459 -0.1621 -0.2663
 3906TIP3   OH233132   5.383   4.504  10.873 -0.6175  0.2695  0.2748
 3906TIP3    H133133   5.346   4.459  10.797 -2.4012  3.1416 -0.6428
 3906TIP3    H233134   5.306   4.534  10.922  0.5233  1.1873  1.5336
 3907TIP3   OH233135   6.288   3.463   4.645  0.2992 -0.0389 -0.8193
 3907TIP3    H133136   6.197   3.467   4.616  0.2845 -0.4880 -0.8437
 3907TIP3    H233137   6.292   3.518   4.723  0.7357  2.6660 -2.6851
 3908TIP3   OH233138   6.296   0.918  16.986  0.5770 -0.4878  0.0142
 3908TIP3    H133139   6.316   1.009  16.964 -0.9425 -0.5338 -1.6402
 3908TIP3    H233140   6.237   0.925  17.062  1.1316 -0.1252  0.4153
 3909TIP3   OH233141   2.168   1.678  13.507  0.0055  0.2204  0.5455
 3909TIP3    H133142   2.256   1.696  13.475 -1.5688  0.1058 -4.2907
 3909TIP3    H233143   2.146   1.593  13.469 -2.5092  0.6714  0.9301
 3910TIP3   OH233144   4.328   5.558  14.232 -0.5312  0.1680 -0.0162
 3910TIP3    H133145   4.422   5.577  14.234 -0.5449  0.2166  0.2577
 3910TIP3    H233146   4.321   5.476  14.183 -0.2657 -0.2561  0.6479
 3911TIP3   OH233147   3.931   5.666  13.264 -0.4728 -1.0673  0.1664
 3911TIP3    H133148   3.890   5.735  13.212 -0.1288 -0.1528  1.0732
 3911TIP3    H233149   3.910   5.585  13.219 -1.6170 -0.4331 -0.4473
 3912TIP3   OH233150   5.063   2.487   2.617 -0.0995 -0.4044 -0.8450
 3912TIP3    H133151   4.995   2.463   2.554 -0.0673 -0.5939 -0.8089
 3912TIP3    H233152   5.102   2.404   2.642 -0.6609 -0.4117  0.0476
 3913TIP3   OH233153   4.394   2.950   5.861  0.1672  0.6072 -0.1069
 3913TIP3    H133154   4.478   2.995   5.871 -0.2824  1.0764  1.9440
 3913TIP3    H233155   4.330   3.021   5.856 -0.3964  0.2505  1.5680
 3914TIP3   OH233156   2.230   3.547   5.069 -0.0450  0.1253 -0.7590
 3914TIP3    H133157   2.319   3.526   5.040  0.0955 -0.8290  0.3281
 3914TIP3    H233158   2.242   3.584   5.157 -0.5858  1.6692 -1.3184
 3915TIP3   OH233159   4.664   6.648   3.033  0.1258 -0.0175  0.2163
 3915TIP3    H133160   4.716   6.712   2.984 -0.1486  0.1965  0.2026
 3915TIP3    H233161   4.629   6.698   3.107  0.4968 -0.3256  0.6031
 3916TIP3   OH233162   6.528   5.889  13.172 -0.1215  0.1242  0.2454
 3916TIP3    H133163   6.559   5.820  13.231  0.1016 -0.1413 -0.1855
 3916TIP3    H233164   6.443   5.859  13.142  0.7518 -0.8174 -1.3524
 3917TIP3   OH233165   5.368   2.796  12.669 -0.2290 -0.4387  0.0353
 3917TIP3    H133166   5.442   2.798  12.609 -0.7719  0.5030 -0.6041
 3917TIP3    H233167   5.329   2.710  12.656 -1.5815  0.5244 -2.4736
 3918TIP3   OH233168   1.496   0.251   0.870 -0.2855 -0.2618  0.4543
 3918TIP3    H133169   1.420   0.220   0.821 -0.8613 -0.2001  1.2969
 3918TIP3    H233170   1.467   0.251   0.962  0.8622 -0.6645  0.8283
 3919TIP3   OH233171   5.645   6.646  15.983  0.1458 -0.2112 -0.7436
 3919TIP3    H133172   5.555   6.621  15.963 -0.4343  0.8877  0.4618
 3919TIP3    H233173   5.673   6.696  15.906  0.2524 -1.8060 -1.7748
 3920TIP3   OH233174   2.596   0.178  10.683  0.8116 -0.5077 -0.2402
 3920TIP3    H133175   2.594   0.219  10.597  1.9417 -1.3861 -0.7056
 3920TIP3    H233176   2.521   0.215  10.730  1.0944  1.1302 -1.0644
 3921TIP3   OH233177   5.784   2.394   4.480  0.4469 -0.0791 -0.0111
 3921TIP3    H133178   5.807   2.353   4.563  0.0837  0.2878  0.2733
 3921TIP3    H233179   5.690   2.378   4.472  0.6370 -0.8621 -0.7698
 3922TIP3   OH233180   1.837   3.904  13.600 -0.2581  0.2194  0.3306
 3922TIP3    H133181   1.871   3.823  13.562  0.8503  0.5732  0.5276
 3922TIP3    H233182   1.745   3.907  13.574 -0.1795 -0.8576 -0.0822
 3923TIP3   OH233183   5.907   2.855  13.856 -0.2640 -0.6114  0.0305
 3923TIP3    H133184   5.891   2.892  13.942  1.8832  1.7835 -0.5179
 3923TIP3    H233185   5.844   2.899  13.799 -0.9395 -1.3754  0.1841
 3924TIP3   OH233186   1.537   5.426   1.813  0.3182  0.0556 -0.0526
 3924TIP3    H133187   1.485   5.427   1.894  0.6784  0.8067  0.1748
 3924TIP3    H233188   1.477   5.455   1.745  0.6817  1.8702  0.3704
 3925TIP3   OH233189   5.375   3.467  13.077  0.7701  0.6338  0.3430
 3925TIP3    H133190   5.408   3.434  12.993  0.2113  2.3899 -0.5743
 3925TIP3    H233191   5.374   3.562  13.068 -0.3316  0.8021  1.9492
 3926TIP3   OH233192   5.534   2.093   0.810  0.5945  0.1111  0.5204
 3926TIP3    H133193   5.448   2.063   0.840  1.1563  0.5796  2.7503
 3926TIP3    H233194   5.536   2.072   0.717 -1.5309 -0.8416  0.6527
 3927TIP3   OH233195   0.891   6.739  13.369  0.2169 -0.1958  0.5300
 3927TIP3    H133196   0.873   6.745  13.463  0.0796 -0.4721  0.5229
 3927TIP3    H233197   0.836   6.666  13.339  0.1993 -0.0551  0.2214
 3928TIP3   OH233198   1.524   6.643  15.309  0.0406 -0.1235  0.2669
 3928TIP3    H133199   1.604   6.590  15.316  1.2488  1.5820 -0.1474
 3928TIP3    H233200   1.515   6.659  15.215  0.0772  0.9742  0.4487
 3929TIP3   OH233201   4.795   3.244   2.625 -0.2374  0.5785 -0.2622
 3929TIP3    H133202   4.846   3.182   2.572 -0.3413  0.2187  0.0537
 3929TIP3    H233203   4.767   3.311   2.563 -1.4609 -0.5185 -0.9487
 3930TIP3   OH233204   6.503   1.505  16.768 -0.0744  0.7050 -0.0683
 3930TIP3    H133205   6.538   1.446  16.834  0.7801  0.1090 -1.0452
 3930TIP3    H233206   6.577   1.525  16.711 -1.1715 -0.1206 -1.8255
 3931TIP3   OH233207   5.006   2.313  15.787  0.3189 -0.1084  0.5157
 3931TIP3    H133208   4.958   2.313  15.870  0.3179  2.4362  0.5320
 3931TIP3    H233209   4.949   2.360  15.726  0.3708 -1.8414 -0.9368
 3932TIP3   OH233210   3.691   2.414   0.858 -0.1298 -1.0116  0.1297
 3932TIP3    H133211   3.781   2.383   0.844  0.1306  0.2528 -1.1115
 3932TIP3    H233212   3.661   2.439   0.770 -1.4416 -0.7494  0.6506
 3933TIP3   OH233213   6.669   1.993  15.132  0.6305  0.4326  0.2153
 3933TIP3    H133214   6.743   1.963  15.184  0.6613  1.4354  0.7561
 3933TIP3    H233215   6.596   1.998  15.194  0.3179  0.2817 -0.1317
 3934TIP3   OH233216   0.409   6.331   3.657 -0.0043 -0.2283 -0.1707
 3934TIP3    H133217   0.330   6.342   3.605  1.4087 -0.3157 -2.3817
 3934TIP3    H233218   0.378   6.327   3.747 -2.4164  0.7643 -0.9252
 3935TIP3   OH233219   1.583   2.797   4.343  0.4903  0.2197  0.9590
 3935TIP3    H133220   1.510   2.791   4.404 -0.0118  1.9991  0.5654
 3935TIP3    H233221   1.582   2.714   4.296 -1.1309  0.1198  1.1427
 3936TIP3   OH233222   5.917   5.647  14.192  0.0119 -0.1968 -1.0101
 3936TIP3    H133223   5.842   5.695  14.157  0.0952  0.9238  0.2932
 3936TIP3    H233224   5.879   5.574  14.241 -0.1190 -1.4647 -2.9495
 3937TIP3   OH233225   5.942   5.996  14.963  0.3294 -0.3552 -0.5817
 3937TIP3    H133226   5.917   5.985  14.871  1.7341 -1.3552 -0.8595
 3937TIP3    H233227   5.933   5.908  15.001  0.5638 -0.1178  0.0292
 3938TIP3   OH233228   4.183   1.709  14.810  0.5961 -0.5100 -0.0579
 3938TIP3    H133229   4.260   1.675  14.765  0.5563 -0.0027 -0.5168
 3938TIP3    H233230   4.218   1.767  14.878  0.6021  0.3926 -0.8210
 3939TIP3   OH233231   2.091   2.478  16.152 -0.2599  0.4041 -0.0966
 3939TIP3    H133232   2.061   2.450  16.238 -0.5576  1.4777  0.1660
 3939TIP3    H233233   2.186   2.487  16.162 -0.4857  2.3066  0.6792
 3940TIP3   OH233234   5.353   4.067  14.264  0.3133 -0.2272  0.3534
 3940TIP3    H133235   5.400   3.987  14.239 -0.8408 -1.0984  0.9053
 3940TIP3    H233236   5.263   4.038  14.278 -0.3035  1.3376 -0.2680
 3941TIP3   OH233237   4.320   0.594  11.598  0.0333 -0.3982  0.4572
 3941TIP3    H133238   4.327   0.587  11.693  1.4486 -0.9559  0.3376
 3941TIP3    H233239   4.245   0.539  11.575 -0.7205  0.2646  1.3016
 3942TIP3   OH233240   1.203   0.364   0.495 -0.0667 -0.0236 -0.1361
 3942TIP3    H133241   1.152   0.322   0.565 -2.3849  2.5584 -0.2119
 3942TIP3    H233242   1.137   0.395   0.433  1.7066  1.8635 -1.1116
 3943TIP3   OH233243   4.649   3.744  10.598  0.3526 -0.5491 -0.1778
 3943TIP3    H133244   4.606   3.765  10.681  2.1934  2.9397 -0.0124
 3943TIP3    H233245   4.724   3.690  10.623 -0.9848 -2.3907  0.0179
 3944TIP3   OH233246   0.045   4.559  11.559 -0.1577  0.4325 -0.4790
 3944TIP3    H133247   0.095   4.593  11.633  0.3562 -0.8220 -0.2469
 3944TIP3    H233248  -0.024   4.624  11.546 -2.5737 -1.1390  3.5246
 3945TIP3   OH233249   1.401   4.139  17.183 -0.2332 -0.0476 -0.2380
 3945TIP3    H133250   1.346   4.162  17.258 -0.2445  2.0331 -0.8608
 3945TIP3    H233251   1.338   4.121  17.113 -0.1883 -0.7710 -0.0967
 3946TIP3   OH233252   6.484   0.390   6.709 -0.5947  0.0271 -0.0582
 3946TIP3    H133253   6.562   0.392   6.653 -1.0883 -0.2119 -0.7576
 3946TIP3    H233254   6.435   0.314   6.679 -0.9347 -0.0125  0.6047
 3947TIP3   OH233255   1.392   4.392   3.382  0.4155  0.7581 -0.3000
 3947TIP3    H133256   1.388   4.297   3.394 -3.0467  0.3697 -3.3770
 3947TIP3    H233257   1.373   4.429   3.468 -2.8264 -1.4776  0.0468
 3948TIP3   OH233258   6.742   1.712   0.847  0.3914 -0.0854 -0.3878
 3948TIP3    H133259   6.765   1.737   0.757  0.8104 -0.1808 -0.3076
 3948TIP3    H233260   6.776   1.623   0.856 -1.9046 -1.0822 -0.9813
 3949TIP3   OH233261   0.964   5.605   3.963 -0.0470 -0.1999  0.4003
 3949TIP3    H133262   1.045   5.555   3.964  0.0695 -0.1311 -2.3825
 3949TIP3    H233263   0.951   5.629   3.871 -2.4421  1.0535  1.0125
 3950TIP3   OH233264   5.325   3.322  13.384 -0.5171 -0.4550  0.4450
 3950TIP3    H133265   5.289   3.234  13.372 -2.1071  0.2744 -0.2168
 3950TIP3    H233266   5.342   3.353  13.296 -0.4137  0.0933  0.6582
 3951TIP3   OH233267   4.614   4.032  13.749 -0.0528 -0.4616 -0.1584
 3951TIP3    H133268   4.684   3.969  13.733 -0.0572 -0.7494  0.9278
 3951TIP3    H233269   4.641   4.080  13.827 -0.8293 -0.2564 -0.0051
 3952TIP3   OH233270   1.250   2.608  14.530 -0.1394  0.3335 -0.2750
 3952TIP3    H133271   1.307   2.581  14.459  0.0718  0.8539 -0.3053
 3952TIP3    H233272   1.270   2.701  14.543 -1.3528  0.6613 -0.6459
 3953TIP3   OH233273   2.429   1.654   0.099  0.5226 -0.9941 -0.2150
 3953TIP3    H133274   2.509   1.692   0.063 -1.1559 -0.9434 -4.1271
 3953TIP3    H233275   2.377   1.730   0.126  0.9680 -0.9472  0.5317
 3954TIP3   OH233276   0.512   4.386  15.608  0.9407 -0.0396  0.0093
 3954TIP3    H133277   0.525   4.455  15.674  0.0564 -0.7213  0.9021
 3954TIP3    H233278   0.428   4.346  15.630  1.6133 -1.6615 -0.2824
 3955TIP3   OH233279   4.909   6.016   0.439  0.0718  0.1377 -0.6008
 3955TIP3    H133280   4.865   6.036   0.356 -0.3791  1.3940 -0.0611
 3955TIP3    H233281   4.921   5.921   0.437  1.1092  0.2806 -2.6267
 3956TIP3   OH233282   4.290   4.439   5.688  0.1968 -0.2073 -0.5717
 3956TIP3    H133283   4.245   4.418   5.606 -0.3033  2.0645 -0.9096
 3956TIP3    H233284   4.225   4.420   5.756 -0.5471  0.9731 -0.9244
 3957TIP3   OH233285   3.571   6.216  14.135  0.5204  0.0030  0.1377
 3957TIP3    H133286   3.550   6.248  14.222 -1.0375  2.1468 -1.0018
 3957TIP3    H233287   3.515   6.265  14.076  2.0105 -0.9425 -2.1626
 3958TIP3   OH233288   0.767   4.519   4.938 -0.2463  0.3144  0.2333
 3958TIP3    H133289   0.783   4.426   4.920 -0.1048 -0.4929  4.1083
 3958TIP3    H233290   0.703   4.519   5.009 -4.3620  3.3360 -3.2265
 3959TIP3   OH233291   2.111   4.046  13.713 -0.6429 -0.4767 -0.1042
 3959TIP3    H133292   2.031   4.020  13.668 -1.1280 -0.1312  0.5591
 3959TIP3    H233293   2.127   4.135  13.684 -2.8604  1.0245  3.0202
 3960TIP3   OH233294   6.509   4.571  12.961 -0.0548 -0.8331 -0.0886
 3960TIP3    H133295   6.437   4.613  13.007  1.0261 -0.3407  1.1857
 3960TIP3    H233296   6.588   4.615  12.993  1.0358 -3.1756  0.6318
 3961TIP3   OH233297   0.579   4.226   3.725 -0.5496 -0.2207 -0.4015
 3961TIP3    H133298   0.496   4.180   3.718 -0.9348  0.1643  1.2948
 3961TIP3    H233299   0.630   4.173   3.787  0.1367  0.0163 -0.7587
 3962TIP3   OH233300   1.462   3.685  13.327 -0.1244  0.1489 -0.2136
 3962TIP3    H133301   1.435   3.776  13.318 -0.1331 -0.0121 -1.8860
 3962TIP3    H233302   1.555   3.685  13.303 -0.1825 -0.3257 -0.4432
 3963TIP3   OH233303   6.143   5.340  15.876  0.2717  0.4165 -0.3371
 3963TIP3    H133304   6.073   5.318  15.938  1.4373  2.3148  1.7480
 3963TIP3    H233305   6.198   5.262  15.874  1.2071  0.9319  2.4956
 3964TIP3   OH233306   4.181   6.179  11.858 -0.1788  0.9562 -0.0766
 3964TIP3    H133307   4.199   6.247  11.923 -0.3306  0.8587  0.0666
 3964TIP3    H233308   4.171   6.099  11.908  1.6052  0.5240 -0.3715
 3965TIP3   OH233309   4.118   2.822  14.755  0.1223  0.2362  0.0587
 3965TIP3    H133310   4.177   2.788  14.823  0.9376 -0.0796 -0.8017
 3965TIP3    H233311   4.153   2.908  14.735  0.5870 -0.1438 -0.7934
 3966TIP3   OH233312   6.196   2.596   3.936 -0.1982  0.2132  0.3891
 3966TIP3    H133313   6.148   2.635   4.010  1.1698  1.1931  0.7711
 3966TIP3    H233314   6.175   2.503   3.942 -0.4448  0.3360  1.7774
 3967TIP3   OH233315   1.692   0.102   1.030  0.2796 -0.5370 -0.0618
 3967TIP3    H133316   1.650   0.164   0.971 -0.1853 -0.6556  0.1388
 3967TIP3    H233317   1.629   0.030   1.038  1.2747 -1.5587 -1.1650
 3968TIP3   OH233318   0.845   6.627   4.884 -0.2918 -0.4578  0.4095
 3968TIP3    H133319   0.849   6.644   4.978 -1.4751  1.2593  0.1628
 3968TIP3    H233320   0.751   6.617   4.866 -0.0502 -1.0641 -0.5545
 3969TIP3   OH233321   4.515   1.982   3.352 -0.0394  0.3784 -0.2838
 3969TIP3    H133322   4.607   2.007   3.358  0.0160  0.3317 -0.9214
 3969TIP3    H233323   4.512   1.919   3.279 -0.4067 -0.3837  0.3781
 3970TIP3   OH233324   1.345   2.611  14.925 -0.2852  0.3623 -0.2733
 3970TIP3    H133325   1.326   2.666  15.001  0.2189 -1.0968  0.9296
 3970TIP3    H233326   1.291   2.647  14.855 -0.4900  1.9482  0.6804
 3971TIP3   OH233327   3.129   2.890  13.650  0.4553 -0.2730  0.2908
 3971TIP3    H133328   3.220   2.861  13.649  1.2152  2.0346  0.6614
 3971TIP3    H233329   3.132   2.979  13.616 -1.5433  0.1744  1.2626
 3972TIP3   OH233330   2.208   2.583  11.754  0.0913 -0.5606 -0.5544
 3972TIP3    H133331   2.217   2.585  11.658 -0.4931  1.1859 -0.5962
 3972TIP3    H233332   2.186   2.674  11.777 -1.0233 -1.2400  1.1050
 3973TIP3   OH233333   5.119   5.316  15.387 -0.1177 -0.6713 -0.9001
 3973TIP3    H133334   5.152   5.247  15.330 -0.2073 -0.6460 -0.9812
 3973TIP3    H233335   5.039   5.280  15.425  0.9576 -1.4556  0.7134
 3974TIP3   OH233336   3.467   4.000   0.904 -0.2696 -0.1924 -0.1451
 3974TIP3    H133337   3.553   3.975   0.870 -2.0260 -1.3143 -4.0133
 3974TIP3    H233338   3.462   4.095   0.892  1.2342  0.2406  2.2263
 3975TIP3   OH233339   2.189   3.546  14.634  0.7564  0.2701  0.0919
 3975TIP3    H133340   2.271   3.582  14.600  0.1019  3.0954  1.3439
 3975TIP3    H233341   2.213   3.504  14.716  0.9934  0.8931  0.3434
 3976TIP3   OH233342   0.192   4.285   0.290 -0.3371 -0.1523  0.2304
 3976TIP3    H133343   0.098   4.301   0.295 -0.3727 -0.7917  2.0063
 3976TIP3    H233344   0.221   4.334   0.213 -1.7803  1.7567  0.8816
 3977TIP3   OH233345   0.914   5.658  11.783 -0.4313 -0.3298  0.6284
 3977TIP3    H133346   0.972   5.585  11.808  0.5982  0.8974  1.9305
 3977TIP3    H233347   0.877   5.689  11.866  0.7620  1.9417  0.3554
 3978TIP3   OH233348   3.608   2.835   0.399 -0.0168 -0.2544 -0.4065
 3978TIP3    H133349   3.598   2.754   0.449 -0.8088  0.0544 -0.0557
 3978TIP3    H233350   3.569   2.816   0.314 -2.2613  0.4421  0.4217
 3979TIP3   OH233351   5.357   4.731   5.697 -0.4168 -0.3337 -0.2163
 3979TIP3    H133352   5.374   4.822   5.722 -0.6344 -0.4565  0.3849
 3979TIP3    H233353   5.271   4.735   5.655 -0.1417 -0.1598 -0.7616
 3980TIP3   OH233354   2.334   0.482   3.018  0.6005  0.2995  0.0243
 3980TIP3    H133355   2.272   0.410   3.008 -1.6349  2.2212 -0.3029
 3980TIP3    H233356   2.405   0.444   3.070 -2.2473 -1.1608  3.0463
 3981TIP3   OH233357   6.157   2.849  16.977  0.5433 -0.9588  0.4924
 3981TIP3    H133358   6.163   2.847  16.881 -1.3741  2.2243  0.1916
 3981TIP3    H233359   6.102   2.774  16.999 -1.2066 -0.2507 -1.2125
 3982TIP3   OH233360   5.627   5.684   2.366 -0.3391  0.0026  0.1597
 3982TIP3    H133361   5.640   5.659   2.457  1.9918 -0.7604 -0.3391
 3982TIP3    H233362   5.698   5.746   2.348 -1.2267  0.7267 -0.9330
 3983TIP3   OH233363   2.768   3.840  12.968 -0.6711  0.5167  0.0089
 3983TIP3    H133364   2.737   3.928  12.946  0.6070  0.5776 -1.6578
 3983TIP3    H233365   2.695   3.783  12.946 -1.3414  1.1161  0.6603
 3984TIP3   OH233366   5.853   1.729  16.007  0.6481 -0.0933 -0.0327
 3984TIP3    H133367   5.924   1.784  16.039  0.2002 -0.0058  0.8519
 3984TIP3    H233368   5.886   1.640  16.014  1.2616  0.0382 -1.1725
 3985TIP3   OH233369   2.211   6.322  16.326  0.4782 -0.2778  0.2080
 3985TIP3    H133370   2.215   6.233  16.361 -0.1399  0.0273  1.0728
 3985TIP3    H233371   2.279   6.370  16.373 -0.2397  0.0901  0.8805
 3986TIP3   OH233372   4.796   2.458  17.122  0.2677 -0.0504 -0.3330
 3986TIP3    H133373   4.734   2.478  17.191  1.0984 -2.1605  1.0855
 3986TIP3    H233374   4.744   2.416  17.053 -0.3498  0.8647 -0.4208
 3987TIP3   OH233375   4.412   6.184  15.034 -0.4701  0.1550  0.6967
 3987TIP3    H133376   4.430   6.107  15.087  1.1120 -0.8701 -1.2775
 3987TIP3    H233377   4.352   6.154  14.966  0.1151  0.6587 -0.0597
 3988TIP3   OH233378   0.931   3.580  14.959  0.5300 -0.2926 -0.3086
 3988TIP3    H133379   0.935   3.627  14.875  1.9977  0.6477  0.2621
 3988TIP3    H233380   0.902   3.645  15.022  1.0912 -0.5363  0.2125
 3989TIP3   OH233381   4.397   4.018  12.517  0.7637 -0.4896  0.5382
 3989TIP3    H133382   4.367   4.069  12.592  1.2056 -1.5844  1.4814
 3989TIP3    H233383   4.369   3.928  12.537  1.9277 -0.9878 -0.0342
 3990TIP3   OH233384   0.747   1.996   3.920  0.2440 -0.0842  0.2894
 3990TIP3    H133385   0.761   2.000   4.015  2.9976  2.8793 -0.1110
 3990TIP3    H233386   0.834   1.977   3.885 -0.5833 -0.2616 -1.6765
 3991TIP3   OH233387   3.992   1.665  11.663 -0.4221  0.8761 -0.3654
 3991TIP3    H133388   3.925   1.671  11.732  0.5669 -2.8396  1.0528
 3991TIP3    H233389   3.957   1.601  11.601  0.5539  1.0727 -1.1288
 3992TIP3   OH233390   0.020   0.312   1.105  0.7543  0.1073 -0.7332
 3992TIP3    H133391   0.027   0.352   1.018 -2.6771  2.5098  0.0069
 3992TIP3    H233392  -0.053   0.251   1.097 -1.5240  2.5220  1.2095
 3993TIP3   OH233393   1.580   4.198   1.057  0.2145 -0.1485  0.0732
 3993TIP3    H133394   1.516   4.250   1.010 -0.0784 -0.9225 -0.3864
 3993TIP3    H233395   1.557   4.209   1.149 -0.4455 -0.2546 -0.0793
 3994TIP3   OH233396   0.952   0.460  16.444 -0.5184  0.4925 -0.7138
 3994TIP3    H133397   0.878   0.427  16.495  0.8627 -0.4628  0.7126
 3994TIP3    H233398   0.991   0.381  16.405 -0.5600  1.0457 -1.8832
 3995TIP3   OH233399   1.532   5.364  17.104 -0.2504 -0.3165  0.0730
 3995TIP3    H133400   1.573   5.439  17.146 -1.2978  1.4217 -1.8986
 3995TIP3    H233401   1.459   5.340  17.161  0.9865 -0.8119  1.4725
 3996TIP3   OH233402   0.294   2.179  14.933 -0.1019 -0.0679 -0.0000
 3996TIP3    H133403   0.274   2.088  14.959 -0.8833  0.4368  1.2424
 3996TIP3    H233404   0.372   2.201  14.983  0.0183 -0.0196 -0.2117
 3997TIP3   OH233405   6.679   1.407   0.879  0.0361 -0.2232  0.3828
 3997TIP3    H133406   6.619   1.443   0.813 -1.2239 -0.2846  1.4776
 3997TIP3    H233407   6.635   1.421   0.962  0.9137 -1.5447  1.0955
 3998TIP3   OH233408   5.293   0.117  14.754 -0.4215  0.5733  0.6583
 3998TIP3    H133409   5.285   0.022  14.753 -1.4729  0.6470  1.3572
 3998TIP3    H233410   5.306   0.141  14.662 -0.2010 -0.2356  0.4750
 3999TIP3   OH233411   2.846   1.503   5.035 -0.1931  0.4247  0.1997
 3999TIP3    H133412   2.873   1.444   4.964  0.8325  0.9659  0.1336
 3999TIP3    H233413   2.828   1.444   5.109  1.2722  0.0433  0.2757
 4000TIP3   OH233414   4.302   4.178  12.771 -0.0028  0.2420  0.2965
 4000TIP3    H133415   4.365   4.243  12.740 -0.3827  0.1797 -0.6222
 4000TIP3    H233416   4.245   4.226  12.831 -0.5583  0.8675 -0.7244
 4001TIP3   OH233417   1.211   4.689   0.587  0.4795 -0.1519 -0.3567
 4001TIP3    H133418   1.213   4.724   0.497 -3.8115  0.9049 -0.1372
 4001TIP3    H233419   1.212   4.767   0.642 -0.3367 -0.6917  0.4220
 4002TIP3   OH233420   0.968   0.311  11.998  0.2096  0.2141  0.1328
 4002TIP3    H133421   0.957   0.398  12.036  0.2689 -0.6245  2.1650
 4002TIP3    H233422   0.899   0.259  12.039 -0.6592 -0.4045 -2.0455
 4003TIP3   OH233423   4.400   1.914   5.475  0.6336 -0.9238  1.1118
 4003TIP3    H133424   4.341   1.957   5.414 -0.5355 -1.8177  1.5789
 4003TIP3    H233425   4.429   1.984   5.533  1.3140 -0.1761 -0.1167
 4004TIP3   OH233426   0.149   5.242   0.816 -0.0348  0.1438  0.1981
 4004TIP3    H133427   0.219   5.305   0.797 -0.2526 -0.2520 -2.0820
 4004TIP3    H233428   0.070   5.296   0.823  0.0765  0.3107  0.1683
 4005TIP3   OH233429   5.485   0.729   2.780 -0.2666  0.1023  0.1374
 4005TIP3    H133430   5.494   0.810   2.830 -0.2749  0.8532 -1.0442
 4005TIP3    H233431   5.431   0.753   2.705  0.3637 -0.8237 -0.6273
 4006TIP3   OH233432   5.335   0.352   5.681 -0.4069  0.0520 -0.0349
 4006TIP3    H133433   5.367   0.295   5.751  0.5713  0.4032 -0.1821
 4006TIP3    H233434   5.319   0.436   5.724 -1.6414 -0.2590  0.1391
 4007TIP3   OH233435   3.126   2.657  14.215  0.4373 -0.6467  0.2536
 4007TIP3    H133436   3.216   2.627  14.201  0.6991  0.3583 -0.3308
 4007TIP3    H233437   3.135   2.733  14.273 -0.0453 -0.5973  0.2655
 4008TIP3   OH233438   0.973   2.194   5.550 -0.2311  0.3366  1.0126
 4008TIP3    H133439   1.008   2.282   5.565  0.5985  0.0373  0.8889
 4008TIP3    H233440   0.931   2.170   5.632 -0.0813  0.6763  1.1895
 4009TIP3   OH233441   6.619   3.580  10.864 -0.4887  0.0295 -0.0626
 4009TIP3    H133442   6.711   3.561  10.848  0.6219  2.0388  3.4017
 4009TIP3    H233443   6.613   3.676  10.859 -2.7212 -0.1532 -1.7510
 4010TIP3   OH233444   2.145   2.188  11.947  0.1702  0.1223  0.0222
 4010TIP3    H133445   2.092   2.263  11.972 -1.2468 -0.5896 -0.7923
 4010TIP3    H233446   2.164   2.201  11.854 -0.6611 -0.8571 -0.2969
 4011TIP3   OH233447   0.001   4.263  16.816 -0.2579  0.5366 -0.2341
 4011TIP3    H133448   0.025   4.356  16.813 -0.4772  0.6027  0.0603
 4011TIP3    H233449  -0.023   4.247  16.907  2.9211 -0.6047  0.4735
 4012TIP3   OH233450   3.906   3.156  13.201 -0.1645  0.2200 -0.5933
 4012TIP3    H133451   3.907   3.074  13.153  0.9049 -1.3201  1.9374
 4012TIP3    H233452   3.830   3.149  13.259  1.1603  0.0395  1.1814
 4013TIP3   OH233453   1.441   2.547   1.907  0.1203  0.3717 -0.3730
 4013TIP3    H133454   1.396   2.605   1.845  1.4101 -0.0099 -1.6985
 4013TIP3    H233455   1.371   2.508   1.959 -1.0799 -0.0272 -2.2418
 4014TIP3   OH233456   4.640   4.784  15.940  0.2239 -0.6581  0.3379
 4014TIP3    H133457   4.698   4.854  15.911 -0.4371 -0.0743  0.4162
 4014TIP3    H233458   4.695   4.705  15.937  0.6189 -0.3488 -0.9547
 4015TIP3   OH233459   6.630   2.080   0.382  0.3851 -0.2747  0.0030
 4015TIP3    H133460   6.558   2.031   0.421  0.0665 -0.6330 -1.0177
 4015TIP3    H233461   6.687   2.101   0.456 -1.9634  2.1298  1.2213
 4016TIP3   OH233462   2.080   1.432   2.897 -0.1624 -0.8191  0.1618
 4016TIP3    H133463   2.082   1.522   2.865 -0.8570 -0.1348  1.9828
 4016TIP3    H233464   1.987   1.409   2.897  0.0883 -1.8500 -1.1380
 4017TIP3   OH233465   0.820   4.456   3.767  0.2230 -0.1573  0.3890
 4017TIP3    H133466   0.739   4.406   3.769  0.1044  0.0435  0.8569
 4017TIP3    H233467   0.862   4.432   3.685  0.5773 -1.6571  0.9874
 4018TIP3   OH233468   1.575   1.440   3.500  0.1633 -0.0887 -0.3805
 4018TIP3    H133469   1.593   1.359   3.452  0.4747 -0.3586  0.1758
 4018TIP3    H233470   1.586   1.415   3.592  2.1099  1.0490 -0.2849
 4019TIP3   OH233471   5.288   3.074  14.553  0.0814  0.4723  0.0586
 4019TIP3    H133472   5.203   3.090  14.510 -0.4160 -0.7263  0.5473
 4019TIP3    H233473   5.341   3.032  14.485  0.6470  2.1638 -0.5620
 4020TIP3   OH233474   0.012   3.188   4.086  0.0611 -0.0568  0.0916
 4020TIP3    H133475  -0.080   3.175   4.110 -0.3246  1.9218 -0.2652
 4020TIP3    H233476   0.061   3.145   4.157 -1.1175 -0.0294  0.9440
 4021TIP3   OH233477   5.915   0.074  15.569  0.2821 -0.3516 -0.0491
 4021TIP3    H133478   5.868   0.156  15.553  1.3375  0.5844  1.5486
 4021TIP3    H233479   5.911   0.028  15.486 -0.3936  1.2922 -0.9515
 4022TIP3   OH233480   6.509   2.391  11.474  0.1014  0.5154  0.6617
 4022TIP3    H133481   6.522   2.465  11.532  1.1191  0.4237  0.5637
 4022TIP3    H233482   6.549   2.418  11.391 -2.9414  1.3678 -0.5831
 4023TIP3   OH233483   4.405   6.077  16.793  0.4611 -0.4133  0.3386
 4023TIP3    H133484   4.375   6.089  16.703 -1.1500 -0.5310  0.8469
 4023TIP3    H233485   4.407   5.982  16.805  2.4539 -0.4622 -0.1372
 4024TIP3   OH233486   0.549   4.340   5.886 -0.0831 -0.1204 -0.4453
 4024TIP3    H133487   0.513   4.361   5.972  1.0133  0.0587 -0.0305
 4024TIP3    H233488   0.558   4.245   5.886  1.5984  0.0209  0.3192
 4025TIP3   OH233489   3.711   0.739  10.791  0.0324  0.3598  0.4341
 4025TIP3    H133490   3.650   0.790  10.738  1.2971  0.8178 -0.5941
 4025TIP3    H233491   3.669   0.654  10.802 -0.4723  0.4330 -0.8706
 4026TIP3   OH233492   1.648   0.439   2.402 -0.1265  0.0338  0.2690
 4026TIP3    H133493   1.585   0.451   2.473 -0.6692  1.1384 -0.3776
 4026TIP3    H233494   1.685   0.352   2.417  0.6131  0.7193  2.5743
 4027TIP3   OH233495   2.058   3.495   3.966 -0.2686 -0.3698 -0.1579
 4027TIP3    H133496   1.977   3.445   3.961  1.1841 -2.8923  0.9796
 4027TIP3    H233497   2.045   3.554   4.040 -1.4252 -0.0377 -0.6034
 4028TIP3   OH233498   5.349   1.432  15.507 -0.5762  0.2859  0.1276
 4028TIP3    H133499   5.320   1.486  15.580 -1.6243 -0.4090  0.2373
 4028TIP3    H233500   5.274   1.375  15.488  0.3113 -0.7457 -0.3369
 4029TIP3   OH233501   1.886   2.298  14.347 -0.0258 -0.6477 -0.6545
 4029TIP3    H133502   1.852   2.354  14.277 -0.2718  0.4997  0.3639
 4029TIP3    H233503   1.978   2.322  14.356 -0.6740  1.2881  1.3377
 4030TIP3   OH233504   2.392   1.700   5.058  0.1477 -0.3295 -0.4007
 4030TIP3    H133505   2.403   1.792   5.081  1.0012 -0.6493  0.4785
 4030TIP3    H233506   2.386   1.654   5.142  1.1914 -1.2497 -0.8175
 4031TIP3   OH233507   0.291   2.298   4.268  0.1427 -0.1181  1.0275
 4031TIP3    H133508   0.327   2.324   4.183 -1.2983 -2.8425 -0.4568
 4031TIP3    H233509   0.360   2.244   4.308  0.4047  0.3196  1.1792
 4032TIP3   OH233510   5.203   1.061   0.105 -0.0886  0.1759  0.0275
 4032TIP3    H133511   5.220   1.155   0.098  1.7432 -0.1326 -0.0250
 4032TIP3    H233512   5.159   1.038   0.024 -1.1774  1.1148  0.3428
 4033TIP3   OH233513   6.168   2.807   0.790  0.3219  0.7588 -0.0878
 4033TIP3    H133514   6.090   2.754   0.809  1.3791 -1.3918 -1.5457
 4033TIP3    H233515   6.139   2.868   0.722 -0.5355  1.0923  0.5677
 4034TIP3   OH233516   0.119   3.034   6.090  0.2698  0.1213  0.0307
 4034TIP3    H133517   0.175   3.112   6.088 -2.0413  1.9260  2.3915
 4034TIP3    H233518   0.146   2.987   6.169  0.2942 -0.4545 -0.3132
 4035TIP3   OH233519   2.902   6.561   5.207 -0.3350  0.1819 -0.2575
 4035TIP3    H133520   2.811   6.536   5.223 -0.6276 -0.2748 -2.4571
 4035TIP3    H233521   2.897   6.650   5.171  0.1896  0.6924  0.9246
 4036TIP3   OH233522   3.090   0.163   4.975 -0.3905  0.0270  0.0140
 4036TIP3    H133523   3.024   0.211   4.926 -0.5479 -0.0495  0.1463
 4036TIP3    H233524   3.039   0.096   5.023 -0.2107 -0.0711  0.0677
 4037TIP3   OH233525   0.086   2.306   3.895 -0.0973 -0.2186 -0.6290
 4037TIP3    H133526   0.095   2.239   3.963 -0.4703 -1.9223 -2.2219
 4037TIP3    H233527  -0.005   2.333   3.899  0.1765  0.5838  0.3602
 4038TIP3   OH233528   1.058   2.843  17.133 -0.1016 -0.3589 -0.9334
 4038TIP3    H133529   1.139   2.793  17.121 -0.1379 -0.2362 -1.7062
 4038TIP3    H233530   1.038   2.835  17.227  0.5777 -0.7337 -0.8208
 4039TIP3   OH233531   2.050   2.456   1.747  0.2092  0.8712 -0.4127
 4039TIP3    H133532   1.976   2.484   1.692  0.3495 -0.4405 -1.3068
 4039TIP3    H233533   2.127   2.480   1.697  0.3985  2.2619  0.5350
 4040TIP3   OH233534   5.085   1.211  15.861 -0.1434  0.6371 -0.7817
 4040TIP3    H133535   5.031   1.284  15.830 -2.5322 -0.7749 -0.0695
 4040TIP3    H233536   5.117   1.170  15.780 -2.6924 -0.3498 -1.3337
 4041TIP3   OH233537   5.510   4.489   4.576 -0.6856  0.9302  0.3486
 4041TIP3    H133538   5.547   4.548   4.641  0.1814  0.8764 -0.0930
 4041TIP3    H233539   5.558   4.407   4.588 -0.2536  1.0361 -0.6132
 4042TIP3   OH233540   1.218   1.196  16.974  0.4138  0.4006 -0.0707
 4042TIP3    H133541   1.251   1.241  17.052 -1.3641  0.9292  0.3838
 4042TIP3    H233542   1.181   1.114  17.007 -0.1970  0.5526 -0.3872
 4043TIP3   OH233543   5.009   4.493  16.247 -0.5512 -0.4963  0.1492
 4043TIP3    H133544   5.030   4.416  16.299  3.2755  0.2993 -0.0559
 4043TIP3    H233545   5.058   4.482  16.166 -0.7732  1.6319 -0.3078
 4044TIP3   OH233546   1.280   2.058   4.561  0.6991  0.5392  0.0629
 4044TIP3    H133547   1.306   1.969   4.536 -0.9219 -0.6103  2.3414
 4044TIP3    H233548   1.334   2.078   4.637 -0.2428  0.7914  0.6650
 4045TIP3   OH233549   6.064   6.668   5.751 -0.1021  0.0271 -1.0573
 4045TIP3    H133550   6.033   6.756   5.773  0.7528  1.2512 -4.4362
 4045TIP3    H233551   6.143   6.656   5.804  0.4403  1.7839 -1.4570
 4046TIP3   OH233552   3.266   2.049  14.473  0.0229 -0.7399  0.2668
 4046TIP3    H133553   3.253   2.056  14.378 -0.0503 -0.3717  0.3040
 4046TIP3    H233554   3.349   2.093  14.490 -0.2904 -0.2139  0.4589
 4047TIP3   OH233555   2.738   4.705   2.349 -0.3090 -0.2782  0.5241
 4047TIP3    H133556   2.644   4.691   2.346 -0.1010 -1.8625  0.9403
 4047TIP3    H233557   2.751   4.792   2.312 -1.6686 -1.2881 -2.5036
 4048TIP3   OH233558   4.006   1.587  12.010 -0.3661 -0.6935  0.3200
 4048TIP3    H133559   4.014   1.666  12.064  2.4872 -0.3720 -0.4928
 4048TIP3    H233560   3.937   1.608  11.947  0.5052  1.2601 -0.0270
 4049TIP3   OH233561   2.362   3.305   4.805  0.0399 -0.7571  0.3950
 4049TIP3    H133562   2.416   3.363   4.858 -1.4042  0.9554  0.0195
 4049TIP3    H233563   2.366   3.342   4.717 -1.3662 -0.8823  0.2751
 4050TIP3   OH233564   0.936   2.796  12.668 -0.2128 -0.6819 -0.6381
 4050TIP3    H133565   1.016   2.834  12.632  1.5248 -1.7860  1.8996
 4050TIP3    H233566   0.916   2.723  12.609 -0.9619  1.2435 -2.8623
 4051TIP3   OH233567   4.223   4.911  15.692 -0.5769  0.3382 -0.5578
 4051TIP3    H133568   4.214   4.958  15.609  0.3294  0.6144 -0.5021
 4051TIP3    H233569   4.228   4.980  15.758 -0.5540  0.1375 -0.3508
 4052TIP3   OH233570   3.896   3.494  13.686  0.1631 -0.0100  0.3598
 4052TIP3    H133571   3.872   3.583  13.661  0.3065  0.3135  1.3704
 4052TIP3    H233572   3.906   3.448  13.603  0.0338  0.9003 -0.1660
 4053TIP3   OH233573   5.405   6.457   3.546 -0.6707 -0.3348  0.2188
 4053TIP3    H133574   5.371   6.471   3.458  0.6814  0.7174 -0.1607
 4053TIP3    H233575   5.493   6.422   3.532  0.0030  0.9456  1.1240
 4054TIP3   OH233576   4.575   3.879  14.562 -0.3502 -0.0704 -0.5261
 4054TIP3    H133577   4.511   3.872  14.491 -0.9321 -1.7666  0.1324
 4054TIP3    H233578   4.553   3.961  14.606 -2.8941 -1.1705  0.3962
 4055TIP3   OH233579   0.193   4.874   6.149 -0.1954  0.0046  0.1043
 4055TIP3    H133580   0.142   4.872   6.230 -0.0786  1.7624  0.2249
 4055TIP3    H233581   0.275   4.916   6.173  0.1534 -0.1735 -0.7533
 4056TIP3   OH233582   4.883   3.759   2.672 -0.4885 -0.0705  1.0185
 4056TIP3    H133583   4.908   3.753   2.764  1.6564  0.5112  0.4989
 4056TIP3    H233584   4.930   3.688   2.629 -0.0610  0.7746  0.0749
 4057TIP3   OH233585   4.911   3.035  13.550 -0.1099  0.5775 -0.3875
 4057TIP3    H133586   4.825   3.053  13.588  0.0126  0.9142 -0.2700
 4057TIP3    H233587   4.971   3.093  13.597  0.0206  1.0986 -1.1755
 4058TIP3   OH233588   2.252   3.476   0.251 -0.2361 -0.2509  0.0392
 4058TIP3    H133589   2.292   3.405   0.201 -0.8211  0.5048 -1.5197
 4058TIP3    H233590   2.160   3.451   0.261 -0.1895 -0.2553  0.4592
 4059TIP3   OH233591   6.743   3.964   6.355  0.2496  0.5590  0.8010
 4059TIP3    H133592   6.694   3.982   6.435 -0.9181  1.3824 -0.0752
 4059TIP3    H233593   6.746   3.869   6.349 -3.3005  0.4446 -0.3162
 4060TIP3   OH233594   0.932   0.615   0.882  0.7248  0.2481 -0.2858
 4060TIP3    H133595   0.895   0.669   0.951  0.9480 -0.3707  0.3347
 4060TIP3    H233596   1.010   0.576   0.922  0.1460 -1.1282 -0.4482
 4061TIP3   OH233597   5.228   4.979  12.602  0.0120 -0.5387 -0.4824
 4061TIP3    H133598   5.236   4.947  12.512 -0.4277 -0.2417 -0.6308
 4061TIP3    H233599   5.265   5.067  12.600  1.7832 -1.2476  0.0630
 4062TIP3   OH233600   4.111   6.483   4.796 -0.2089 -0.5323 -0.2669
 4062TIP3    H133601   4.178   6.433   4.750  1.0197  0.8692 -0.0239
 4062TIP3    H233602   4.040   6.420   4.810  1.0901 -2.0689 -0.4266
 4063TIP3   OH233603   5.700   1.500   5.300  0.6650 -0.1162  0.1882
 4063TIP3    H133604   5.759   1.575   5.302  0.4093  0.0764  4.0032
 4063TIP3    H233605   5.757   1.424   5.296  0.9689  0.1996 -1.9345
 4064TIP3   OH233606   1.783   2.046   3.177  0.4967 -0.5686 -0.3353
 4064TIP3    H133607   1.740   2.103   3.113 -2.1015  0.8279  2.4981
 4064TIP3    H233608   1.848   2.103   3.219  0.2147 -0.6665  0.2280
 4065TIP3   OH233609   2.085   1.523   4.563 -0.3188 -0.5290 -0.1752
 4065TIP3    H133610   2.010   1.533   4.622 -0.6099  0.9176 -0.7901
 4065TIP3    H233611   2.150   1.585   4.597  0.1382 -0.8779 -0.4049
 4066TIP3   OH233612   5.689   3.426  13.792 -0.3033 -0.0809  0.2635
 4066TIP3    H133613   5.758   3.384  13.843 -1.3342 -1.4174  0.5864
 4066TIP3    H233614   5.736   3.473  13.723  0.9260 -1.2001  0.3097
 4067TIP3   OH233615   5.313   5.973  12.237 -0.5145  0.0831  0.0172
 4067TIP3    H133616   5.284   5.953  12.326  0.2848 -0.3623  0.1787
 4067TIP3    H233617   5.350   6.061  12.244 -3.0411  1.2432 -0.4735
 4068TIP3   OH233618   4.332   4.467   2.869  0.2555  0.9154  0.1785
 4068TIP3    H133619   4.368   4.397   2.815 -0.7434  0.6134 -0.0873
 4068TIP3    H233620   4.284   4.422   2.938  0.0217  1.3330  0.2878
 4069TIP3   OH233621   6.580   0.927   0.870  0.1940  0.4451  0.2119
 4069TIP3    H133622   6.614   0.891   0.953 -0.0352 -0.6205 -0.1505
 4069TIP3    H233623   6.485   0.920   0.878  0.1365  1.2484  0.2562
 4070TIP3   OH233624   6.180   6.033   4.461 -0.4257  0.1548 -0.5996
 4070TIP3    H133625   6.194   5.938   4.459 -0.6337  0.1513 -2.2598
 4070TIP3    H233626   6.189   6.056   4.553 -1.6279 -1.6768  0.0159
 4071TIP3   OH233627   3.577   4.569  13.799  0.7021  0.2160 -0.1745
 4071TIP3    H133628   3.519   4.509  13.752  1.0358 -0.1306 -0.1539
 4071TIP3    H233629   3.521   4.642  13.825 -0.8012 -2.2590  3.9052
 4072TIP3   OH233630   5.383   6.264  12.720 -0.3828 -0.5480  0.0717
 4072TIP3    H133631   5.296   6.248  12.684 -1.2750  0.0292  1.9060
 4072TIP3    H233632   5.407   6.182  12.764 -1.1373  0.1310  1.8002
 4073TIP3   OH233633   5.984   1.247   1.715 -0.5477  0.4002  0.0250
 4073TIP3    H133634   5.918   1.195   1.760 -1.3296  0.4750 -1.0118
 4073TIP3    H233635   5.981   1.217   1.624 -0.7717  1.9704 -0.5209
 4074TIP3   OH233636   2.076   4.143  13.066  0.1857 -0.7381 -0.6247
 4074TIP3    H133637   2.142   4.190  13.015  1.2198 -0.0004  1.3653
 4074TIP3    H233638   2.125   4.096  13.132 -1.2684 -0.1187  0.9407
 4075TIP3   OH233639   5.637   1.885  15.446  0.1686  0.0608  0.1638
 4075TIP3    H133640   5.644   1.911  15.538  0.6576  0.6830 -0.0457
 4075TIP3    H233641   5.683   1.802  15.440  2.6370  1.3952 -0.0784
 4076TIP3   OH233642   0.124   3.522   3.655 -0.2458 -0.1578  0.2730
 4076TIP3    H133643   0.122   3.427   3.646  0.9074 -0.1101 -0.4755
 4076TIP3    H233644   0.068   3.554   3.584  0.6536 -0.2119 -0.4617
 4077TIP3   OH233645   6.662   6.150  15.801  0.4470 -0.0629  0.4278
 4077TIP3    H133646   6.674   6.109  15.887 -0.2728 -0.6385  0.2551
 4077TIP3    H233647   6.729   6.219  15.798  2.0223 -1.5718  0.5073
 4078TIP3   OH233648   3.424   2.210   5.811 -0.0857  0.5807  0.0842
 4078TIP3    H133649   3.486   2.215   5.738  0.9490 -0.4221  0.8695
 4078TIP3    H233650   3.362   2.142   5.784  0.4860 -0.0211  0.2781
 4079TIP3   OH233651   3.650   3.453   3.174 -0.1264  0.5491 -0.3627
 4079TIP3    H133652   3.621   3.515   3.107 -2.1891  0.3621  0.3005
 4079TIP3    H233653   3.705   3.504   3.233  1.0121  0.9151 -1.7152
 4080TIP3   OH233654   4.122   4.466  14.403  0.3434  0.5220  0.2084
 4080TIP3    H133655   4.121   4.371  14.414  1.1841  0.6740  1.7512
 4080TIP3    H233656   4.204   4.494  14.444 -0.8711  2.1226  1.6041
 4081TIP3   OH233657   4.206   3.149   4.007  0.2298  0.2897  0.1096
 4081TIP3    H133658   4.151   3.071   4.010  0.2764  0.1776 -1.2829
 4081TIP3    H233659   4.229   3.167   4.098 -0.3062 -0.9473  0.4920
 4082TIP3   OH233660   6.009   4.938  15.643 -0.0664 -0.0359 -0.0411
 4082TIP3    H133661   6.051   4.966  15.724 -1.6563  0.0299  0.7976
 4082TIP3    H233662   5.942   5.005  15.627 -0.9615 -1.0042 -0.4136
 4083TIP3   OH233663   0.108   0.316   0.085 -0.4224  0.5256 -0.1629
 4083TIP3    H133664   0.026   0.361   0.060 -0.3661  0.4915 -0.4152
 4083TIP3    H233665   0.137   0.274   0.004 -0.3555  0.2212  0.0210
 4084TIP3   OH233666   6.011   1.117   6.613 -0.1571 -0.4943  0.6810
 4084TIP3    H133667   5.988   1.176   6.541  1.6932 -1.3028 -0.6276
 4084TIP3    H233668   6.049   1.174   6.680  1.0363 -0.0925 -0.3156
 4085TIP3   OH233669   6.557   5.602   2.520  0.2743  0.0913  0.3367
 4085TIP3    H133670   6.513   5.588   2.436 -0.3705  0.4529  0.6167
 4085TIP3    H233671   6.632   5.542   2.517 -1.4023 -2.0721  0.7254
 4086TIP3   OH233672   3.431   5.810  16.011 -0.6468  0.0283  0.1236
 4086TIP3    H133673   3.437   5.895  16.056 -0.6602 -0.1868  0.5271
 4086TIP3    H233674   3.486   5.821  15.933 -0.3172  0.2740  0.3867
 4087TIP3   OH233675   0.597   4.528   0.155  1.5994  0.0973 -0.4491
 4087TIP3    H133676   0.568   4.584   0.227  1.0581 -1.3145  0.4549
 4087TIP3    H233677   0.611   4.443   0.195  1.8606 -0.5651 -1.9100
 4088TIP3   OH233678   1.085   0.835   3.912 -0.0718 -0.3368 -0.0777
 4088TIP3    H133679   1.113   0.775   3.982  0.9538 -1.5441 -1.4987
 4088TIP3    H233680   1.017   0.786   3.865  0.2948 -0.1169 -0.8352
 4089TIP3   OH233681   5.001   4.594  11.893 -0.1523 -0.4574  0.6970
 4089TIP3    H133682   5.093   4.591  11.919 -0.6136 -2.6873  2.2187
 4089TIP3    H233683   4.991   4.523  11.830 -0.7564  0.0240  0.2460
 4090TIP3   OH233684   0.284   4.141   5.030 -1.0238 -0.6558  0.1993
 4090TIP3    H133685   0.311   4.213   4.973 -0.7572 -0.0145  1.1192
 4090TIP3    H233686   0.286   4.064   4.974  1.3971 -0.4151 -0.1193
 4091TIP3   OH233687   3.933   4.316   3.700 -0.0015  0.4277  0.3063
 4091TIP3    H133688   3.995   4.381   3.733 -0.1382  0.3573  0.7097
 4091TIP3    H233689   3.923   4.254   3.773  0.1508 -0.0579 -0.0884
 4092TIP3   OH233690   5.919   0.237   2.859  0.1165  0.3201 -0.7140
 4092TIP3    H133691   5.969   0.192   2.791  1.3485 -0.2638  0.5760
 4092TIP3    H233692   5.884   0.315   2.815  1.6297  0.4080 -1.7882
 4093TIP3   OH233693   3.360   1.606  15.303 -0.3385 -0.4372 -0.2253
 4093TIP3    H133694   3.288   1.660  15.335  0.7132  0.4323  0.6866
 4093TIP3    H233695   3.342   1.595  15.209 -0.4884  1.6144 -0.4509
 4094TIP3   OH233696   2.910   5.433   1.500  0.0542  0.0358  0.2492
 4094TIP3    H133697   2.902   5.360   1.438  0.0363 -1.2249  1.7320
 4094TIP3    H233698   3.005   5.445   1.510  0.0574  0.0430  0.2133
 4095TIP3   OH233699   0.045   1.571  13.289 -0.4381 -0.0106 -0.0798
 4095TIP3    H133700   0.110   1.512  13.249  0.2135 -0.3811  1.5031
 4095TIP3    H233701   0.097   1.644  13.323 -0.9361  0.0559  0.5397
 4096TIP3   OH233702   4.265   5.425  12.423 -0.2858 -0.5386 -0.3238
 4096TIP3    H133703   4.214   5.476  12.360 -0.8037  1.4791  1.6642
 4096TIP3    H233704   4.219   5.438  12.506  3.6434  1.6696  1.6282
 4097TIP3   OH233705   2.412   2.462   0.609  0.1578  0.1710  0.0354
 4097TIP3    H133706   2.397   2.382   0.559 -1.5053  0.4848 -0.0054
 4097TIP3    H233707   2.506   2.464   0.624 -0.0351 -3.0398  2.1121
 4098TIP3   OH233708   1.498   1.799  14.881 -0.3396 -0.5089  0.1079
 4098TIP3    H133709   1.581   1.756  14.859  1.1804  1.3580  1.9708
 4098TIP3    H233710   1.478   1.768  14.969 -0.9806  0.0161  0.1469
 4099TIP3   OH233711   2.371   6.737   1.649 -0.4317 -0.1661 -0.6399
 4099TIP3    H133712   2.407   6.734   1.560 -0.3495 -1.7767 -0.5671
 4099TIP3    H233713   2.446   6.720   1.705 -0.3808  1.3759 -0.2140
 4100TIP3   OH233714   0.010   3.240   0.971  0.6657  0.2103  0.8101
 4100TIP3    H133715   0.045   3.291   0.899  0.5902 -1.0745 -0.1595
 4100TIP3    H233716   0.083   3.185   1.000  0.2222 -0.5043  0.5844
 4101TIP3   OH233717   5.867   3.835  10.743 -0.5316  0.3221  0.2384
 4101TIP3    H133718   5.935   3.773  10.716 -0.3786  0.4086  0.4165
 4101TIP3    H233719   5.805   3.837  10.670  0.7344  1.8223 -0.8473
 4102TIP3   OH233720   6.483   5.921  14.239 -0.2619  0.1240 -0.1606
 4102TIP3    H133721   6.443   5.954  14.320 -0.4164 -0.3895 -0.0297
 4102TIP3    H233722   6.414   5.929  14.173  0.1267  1.3458 -0.4439
 4103TIP3   OH233723   2.881   5.583  14.045 -0.2045  0.4013 -0.3126
 4103TIP3    H133724   2.917   5.496  14.025 -0.6217  0.3154 -0.6829
 4103TIP3    H233725   2.843   5.613  13.963 -1.8977  0.0716  0.3399
 4104TIP3   OH233726   1.787   5.724   0.767 -1.1885 -0.0421 -0.8725
 4104TIP3    H133727   1.799   5.668   0.690 -0.8782 -0.8889 -0.2183
 4104TIP3    H233728   1.751   5.806   0.732 -1.0414 -0.4145 -1.9155
 4105TIP3   OH233729   1.626   4.661   2.377 -1.0494 -0.2295  0.2435
 4105TIP3    H133730   1.627   4.593   2.309 -3.6929 -1.4379  1.3441
 4105TIP3    H233731   1.653   4.616   2.456 -0.6942  0.5209  0.5502
 4106TIP3   OH233732   4.309   3.940  14.143  0.0153 -0.0521  0.0255
 4106TIP3    H133733   4.310   3.975  14.054 -0.1838  0.1744  0.1125
 4106TIP3    H233734   4.219   3.953  14.172 -0.1156 -0.8440 -0.0232
 4107TIP3   OH233735   0.084   0.349  11.582 -0.2538  0.0448 -0.0553
 4107TIP3    H133736   0.091   0.353  11.487 -1.5371 -0.8987 -0.2034
 4107TIP3    H233737   0.170   0.378  11.614  0.3684 -0.1597 -1.5033
 4108TIP3   OH233738   4.369   3.368   0.806  0.1363  0.0846 -0.1431
 4108TIP3    H133739   4.295   3.309   0.794 -1.3233  1.2645  2.5705
 4108TIP3    H233740   4.350   3.443   0.750 -1.0413  0.6499  1.0033
 4109TIP3   OH233741   2.657   0.947   0.071  0.0977 -0.4912  0.1738
 4109TIP3    H133742   2.674   0.986  -0.014 -1.3027 -0.0032  0.0985
 4109TIP3    H233743   2.603   1.011   0.117  1.2823 -0.5155  1.6358
 4110TIP3   OH233744   4.891   1.431   4.801  0.1392 -0.2555 -1.1219
 4110TIP3    H133745   4.811   1.450   4.851  0.4674  0.4619 -0.8636
 4110TIP3    H233746   4.861   1.424   4.710 -0.2736 -0.3435 -0.9816
 4111TIP3   OH233747   6.480   4.908  11.279 -0.3839 -0.2288  0.2651
 4111TIP3    H133748   6.441   4.972  11.219  1.1508  0.6142  0.1549
 4111TIP3    H233749   6.442   4.824  11.253 -0.7752  0.3353 -0.9902
 4112TIP3   OH233750   4.243   3.214   0.075 -0.6233 -0.1978  0.5918
 4112TIP3    H133751   4.273   3.124   0.087  1.1431  0.4350  1.0550
 4112TIP3    H233752   4.148   3.206   0.062 -0.0698 -2.3639 -2.5773
 4113TIP3   OH233753   5.714   0.280  15.362  0.0202 -0.3252 -0.3924
 4113TIP3    H133754   5.691   0.234  15.282 -2.8492  0.6209 -0.1566
 4113TIP3    H233755   5.658   0.241  15.429 -2.1986  3.1056 -0.0974
 4114TIP3   OH233756   1.276   1.046  14.352 -0.2915  0.7430 -0.4349
 4114TIP3    H133757   1.259   1.140  14.346 -0.4640  0.6829 -0.8823
 4114TIP3    H233758   1.370   1.037  14.338  0.2343  1.1229  2.4810
 4115TIP3   OH233759   1.069   2.128   5.302 -0.0069 -0.1551 -0.3774
 4115TIP3    H133760   1.019   2.052   5.271  0.1365  0.1071 -1.2741
 4115TIP3    H233761   1.064   2.123   5.397 -1.6809 -0.1702 -0.4611
 4116TIP3   OH233762   1.407   0.329  15.307  0.0497 -0.5663 -0.0713
 4116TIP3    H133763   1.314   0.348  15.318  0.0331  0.7918 -2.2522
 4116TIP3    H233764   1.427   0.265  15.375 -2.1841  0.0834  1.2369
 4117TIP3   OH233765   1.909   4.290  16.277  0.0857 -0.3581 -0.1359
 4117TIP3    H133766   1.959   4.236  16.215 -0.6164 -1.9697  0.6552
 4117TIP3    H233767   1.976   4.336  16.328  0.7671 -1.7224  0.2441
 4118TIP3   OH233768   4.467   6.507   4.236  0.6984  0.2042  0.3574
 4118TIP3    H133769   4.484   6.425   4.189  1.3583  1.1159 -1.0437
 4118TIP3    H233770   4.461   6.481   4.328 -0.4680 -1.6152 -0.1797
 4119TIP3   OH233771   5.442   6.569   3.810  0.3966  0.2442 -0.4887
 4119TIP3    H133772   5.439   6.533   3.721 -0.7622  2.5905 -1.4426
 4119TIP3    H233773   5.390   6.508   3.862 -1.2357  0.2952 -2.0003
 4120TIP3   OH233774   5.177   3.672   3.074  0.1829  0.2230 -0.5155
 4120TIP3    H133775   5.147   3.635   3.157 -0.8546  0.3436 -0.8320
 4120TIP3    H233776   5.212   3.596   3.026 -1.0063 -0.1938 -0.7491
 4121TIP3   OH233777   4.772   5.191   5.144 -0.1288 -0.3406 -0.4595
 4121TIP3    H133778   4.758   5.266   5.202 -0.1108 -0.1469 -0.7011
 4121TIP3    H233779   4.859   5.206   5.106  0.5268 -1.2710  0.6427
 4122TIP3   OH233780   4.220   4.509   1.946  0.0134  0.2995  0.0695
 4122TIP3    H133781   4.302   4.463   1.933  0.8923  2.2914 -1.7570
 4122TIP3    H233782   4.169   4.491   1.867 -0.0471  1.5787 -0.1941
 4123TIP3   OH233783   3.618   2.573  14.446  0.1385 -0.0000 -0.5947
 4123TIP3    H133784   3.651   2.616  14.367  0.7005  0.1690 -0.2724
 4123TIP3    H233785   3.593   2.486  14.416 -0.9459  0.5208 -1.2355
 4124TIP3   OH233786   3.311   3.689   4.736  0.0457  0.0693 -0.1080
 4124TIP3    H133787   3.252   3.726   4.670 -1.0036  0.1710  0.8794
 4124TIP3    H233788   3.298   3.594   4.728 -0.5715  0.1093  0.3977
 4125TIP3   OH233789   4.904   4.913   0.149  0.3608 -0.1616  0.4010
 4125TIP3    H133790   4.904   4.854   0.225 -0.1316  1.0612  1.3727
 4125TIP3    H233791   4.815   4.949   0.147  0.0621 -0.9462 -1.3811
 4126TIP3   OH233792   6.202   0.907   0.268  0.2748  0.3308 -0.0758
 4126TIP3    H133793   6.171   0.817   0.258  2.1232 -0.4433  0.7178
 4126TIP3    H233794   6.223   0.914   0.361 -0.0653  1.6616 -0.0949
 4127TIP3   OH233795   0.184   3.736  12.276 -0.3013 -0.1216  0.1222
 4127TIP3    H133796   0.261   3.701  12.232  0.0514 -0.1807  0.7733
 4127TIP3    H233797   0.115   3.735  12.210  0.0140 -0.9596 -0.1938
 4128TIP3   OH233798   2.605   4.954  13.757  0.1847 -0.2473  0.2047
 4128TIP3    H133799   2.656   4.902  13.820  0.2203 -0.5624 -0.0803
 4128TIP3    H233800   2.525   4.978  13.804  0.3434 -0.2367  0.4665
 4129TIP3   OH233801   4.031   3.767   4.054 -0.2051 -0.0960  0.0146
 4129TIP3    H133802   4.028   3.672   4.068 -1.4348  0.2161  1.9647
 4129TIP3    H233803   4.034   3.776   3.958 -3.3662 -2.0526 -0.3506
 4130TIP3   OH233804   4.816   0.431  17.217  0.4965  0.8337  0.4906
 4130TIP3    H133805   4.819   0.343  17.254  0.1097 -0.1464 -1.7418
 4130TIP3    H233806   4.903   0.444  17.178 -0.1807  0.5343 -1.1625
 4131TIP3   OH233807   2.310   2.744   0.423 -0.1175 -0.0756 -0.2189
 4131TIP3    H133808   2.391   2.692   0.422 -0.7283 -1.0360 -0.8423
 4131TIP3    H233809   2.313   2.790   0.507  1.1763  0.0612 -0.3235
 4132TIP3   OH233810   6.236   2.596  13.244  0.2693 -0.0620 -0.4028
 4132TIP3    H133811   6.142   2.613  13.257  0.0914 -1.7633  0.8204
 4132TIP3    H233812   6.252   2.516  13.295  2.2616 -0.1147 -1.0913
 4133TIP3   OH233813   6.419   6.422  11.384  0.2580  0.3041 -0.2886
 4133TIP3    H133814   6.353   6.375  11.333  1.0042 -0.8992 -0.1427
 4133TIP3    H233815   6.433   6.368  11.461  1.7257  0.3387 -0.5233
 4134TIP3   OH233816   0.633   5.706   6.225 -0.4715  0.1165  0.3410
 4134TIP3    H133817   0.585   5.629   6.196  0.8982  0.0202 -1.8595
 4134TIP3    H233818   0.713   5.706   6.171  0.4578  2.0006  1.6423
 4135TIP3   OH233819   2.687   0.444  11.209 -0.2535  0.3573 -0.1585
 4135TIP3    H133820   2.753   0.436  11.139  0.1800  2.5018 -0.0357
 4135TIP3    H233821   2.657   0.355  11.224  1.1545 -0.3972 -1.6551
 4136TIP3   OH233822   4.008   4.493  15.736  0.2526  0.2837  0.0999
 4136TIP3    H133823   3.946   4.447  15.792  1.3441 -0.0151  1.0892
 4136TIP3    H233824   4.024   4.433  15.663 -0.8091  0.4744 -0.2905
 4137TIP3   OH233825   2.366   0.263   4.891  0.1145  0.1087  0.2943
 4137TIP3    H133826   2.418   0.303   4.822  0.3365  1.6119  1.2931
 4137TIP3    H233827   2.398   0.304   4.972  0.8796 -2.6530  1.4688
 4138TIP3   OH233828   6.039   2.463  15.838  0.7266  0.1542 -0.3593
 4138TIP3    H133829   6.079   2.474  15.924  1.3575  0.9255 -0.7450
 4138TIP3    H233830   5.992   2.545  15.823 -0.4219 -0.4742 -0.2087
 4139TIP3   OH233831   2.759   0.664  14.105 -0.5966 -0.2845  0.2931
 4139TIP3    H133832   2.687   0.602  14.113 -0.1497 -0.7851  0.4385
 4139TIP3    H233833   2.726   0.744  14.146 -0.8606 -0.6911  0.8791
 4140TIP3   OH233834   5.318   0.271   2.164 -0.5217 -0.3135 -0.1640
 4140TIP3    H133835   5.244   0.288   2.107  0.0959 -0.8413 -1.1272
 4140TIP3    H233836   5.348   0.358   2.190 -0.4883 -0.0567 -1.0549
 4141TIP3   OH233837   1.236   6.386  17.206  0.2286  0.1238  0.1313
 4141TIP3    H133838   1.217   6.454  17.271 -0.7677 -0.5214  0.5282
 4141TIP3    H233839   1.326   6.361  17.224  0.4027  0.9082  0.3841
 4142TIP3   OH233840   3.424   1.137   0.534 -0.2540 -0.1167 -0.5309
 4142TIP3    H133841   3.337   1.168   0.559 -0.3795 -0.3512 -0.6771
 4142TIP3    H233842   3.437   1.057   0.584  0.2892  0.4509  0.2525
 4143TIP3   OH233843   0.090   2.365   2.636  0.0445 -0.6986  0.2917
 4143TIP3    H133844   0.153   2.436   2.621  0.2821 -0.6899  1.3039
 4143TIP3    H233845   0.010   2.410   2.663 -0.4474 -0.7027 -1.0887
 4144TIP3   OH233846   2.960   6.058   3.321  0.5506  0.0174 -0.5531
 4144TIP3    H133847   2.918   6.004   3.254  0.4818 -2.4808  1.4478
 4144TIP3    H233848   3.054   6.044   3.308  0.5151 -1.1289  0.3909
 4145TIP3   OH233849   2.673   3.326   5.208  0.2592  0.2061 -0.1643
 4145TIP3    H133850   2.706   3.264   5.143 -0.5096 -1.0506  0.6502
 4145TIP3    H233851   2.746   3.388   5.220  1.2726 -0.9112 -0.4693
 4146TIP3   OH233852   0.406   6.513   1.302  0.6909 -0.4400  0.0242
 4146TIP3    H133853   0.354   6.554   1.371  1.0659  0.4248 -0.1971
 4146TIP3    H233854   0.451   6.586   1.259  0.4361 -0.9601 -1.1526
 4147TIP3   OH233855   0.232   4.534  13.920 -1.3254  0.6829  0.4911
 4147TIP3    H133856   0.179   4.563  13.994 -1.6713 -1.1293  0.9973
 4147TIP3    H233857   0.240   4.611  13.864 -0.3686  2.3187  2.7933
 4148TIP3   OH233858   2.784   0.058  16.361  0.5628 -0.2661  0.0761
 4148TIP3    H133859   2.701   0.079  16.404  0.5725 -1.0539  0.4984
 4148TIP3    H233860   2.780   0.104  16.278  0.2723  0.7760  0.6519
 4149TIP3   OH233861   0.274   4.076   2.512 -0.4581  0.5238  0.5007
 4149TIP3    H133862   0.229   4.139   2.569 -0.6239  0.7531  0.1235
 4149TIP3    H233863   0.261   4.111   2.423  0.9972  0.9250  0.4296
 4150TIP3   OH233864   3.869   5.094  12.170 -0.0040 -0.2885  0.0573
 4150TIP3    H133865   3.864   5.186  12.145 -0.9176 -0.2869  0.2059
 4150TIP3    H233866   3.912   5.051  12.096 -0.2700  0.1423 -0.3557
 4151TIP3   OH233867   4.666   2.219   3.737  0.2758  0.4027 -0.0921
 4151TIP3    H133868   4.750   2.264   3.725  0.8982 -0.4280  1.0607
 4151TIP3    H233869   4.654   2.215   3.832 -1.6316  1.5279 -0.2643
 4152TIP3   OH233870   0.665   2.867  11.324 -0.3901  0.1772  0.0474
 4152TIP3    H133871   0.712   2.944  11.290 -0.8542  0.1245 -0.7156
 4152TIP3    H233872   0.578   2.873  11.285 -0.2254 -1.0858 -0.5187
 4153TIP3   OH233873   0.225   4.815  15.276 -0.0774 -0.4691 -0.5236
 4153TIP3    H133874   0.292   4.877  15.307 -0.6908  0.0982 -0.3176
 4153TIP3    H233875   0.175   4.793  15.355 -1.2566  0.4996 -0.9890
 4154TIP3   OH233876   6.654   1.696  13.743  0.1076  0.2756  0.1454
 4154TIP3    H133877   6.640   1.623  13.683 -2.3242  0.6285  0.2414
 4154TIP3    H233878   6.679   1.655  13.826  0.9661 -0.3231 -0.3993
 4155TIP3   OH233879   6.223   0.651   4.014  0.4200 -0.7842 -0.6347
 4155TIP3    H133880   6.256   0.580   3.959  0.6343 -1.1418 -0.0395
 4155TIP3    H233881   6.139   0.676   3.973  0.8804 -0.6224 -1.4923
 4156TIP3   OH233882   4.361   3.479   3.794 -0.0374  0.2754  1.1103
 4156TIP3    H133883   4.393   3.407   3.849  0.7404  0.8511  1.4109
 4156TIP3    H233884   4.414   3.473   3.714  0.5813  1.0018  1.4603
 4157TIP3   OH233885   0.826   0.065  10.730 -0.4908 -0.4703  0.7694
 4157TIP3    H133886   0.888   0.064  10.657 -0.0403  1.6648  1.0959
 4157TIP3    H233887   0.741   0.085  10.689  0.1645  3.1761  1.0701
 4158TIP3   OH233888   2.985   4.088  12.050 -0.3951  0.5526  0.5074
 4158TIP3    H133889   2.972   4.175  12.012 -0.4130  0.8539  1.1994
 4158TIP3    H233890   2.963   4.027  11.979  0.7668  1.1167 -0.3337
 4159TIP3   OH233891   3.925   2.830  11.114  0.0003  0.0903 -0.1362
 4159TIP3    H133892   3.839   2.861  11.088 -0.4493 -2.0692 -1.3912
 4159TIP3    H233893   3.929   2.844  11.209 -2.6947 -1.9655  0.3313
 4160TIP3   OH233894   2.884   5.665  17.083  0.0356 -0.7218  0.4993
 4160TIP3    H133895   2.832   5.744  17.091 -0.1331 -0.7843  0.0538
 4160TIP3    H233896   2.873   5.619  17.166 -0.4229 -0.6120  0.4975
 4161TIP3   OH233897   2.513   0.655   2.241  0.1685  0.1268 -0.5998
 4161TIP3    H133898   2.545   0.659   2.331 -1.4633 -1.4957  0.0913
 4161TIP3    H233899   2.545   0.570   2.208  0.4417  0.5474 -1.4328
 4162TIP3   OH233900   3.729   0.080   1.256  0.2148  0.2596  0.4171
 4162TIP3    H133901   3.690   0.006   1.303  1.2415 -0.6470 -0.1514
 4162TIP3    H233902   3.663   0.149   1.263 -1.2615 -1.0665 -0.0188
 4163TIP3   OH233903   0.437   4.787   1.626  0.0886  0.0681  0.5095
 4163TIP3    H133904   0.442   4.776   1.531 -2.3450  1.3133  0.2004
 4163TIP3    H233905   0.407   4.702   1.659  0.9231 -0.3608  0.1900
 4164TIP3   OH233906   4.407   3.919   1.266  0.1611 -0.1105  0.2267
 4164TIP3    H133907   4.327   3.867   1.258  1.8179 -2.6766 -0.3948
 4164TIP3    H233908   4.418   3.958   1.179  0.1289 -0.5527  0.0250
 4165TIP3   OH233909   0.854   2.885   4.380 -0.2683  0.5714 -0.4199
 4165TIP3    H133910   0.821   2.975   4.379 -0.4172  0.5491  1.1328
 4165TIP3    H233911   0.779   2.833   4.411  0.4658  0.1998  0.7587
 4166TIP3   OH233912   4.814   4.739   2.773 -0.4013  0.3547  0.4491
 4166TIP3    H133913   4.781   4.823   2.742 -0.1780 -0.7365 -2.9134
 4166TIP3    H233914   4.735   4.685   2.785 -0.4257  0.5105  1.0084
 4167TIP3   OH233915   3.005   5.903  16.062  0.5111  0.4889  0.0697
 4167TIP3    H133916   3.022   5.989  16.022  0.9729  1.0905  1.4988
 4167TIP3    H233917   3.070   5.845  16.023  0.0387  0.7200 -1.0953
 4168TIP3   OH233918   4.175   1.115   3.376  0.0149  0.0589  0.1114
 4168TIP3    H133919   4.260   1.118   3.332  0.2548 -0.5038  0.5349
 4168TIP3    H233920   4.184   1.172   3.452  0.2910 -0.6694  0.6338
 4169TIP3   OH233921   2.160   2.405  12.789 -0.0921 -0.3175 -0.5118
 4169TIP3    H133922   2.131   2.477  12.733  2.9458  0.6706 -0.9486
 4169TIP3    H233923   2.254   2.396  12.769  0.6172 -1.3022  2.9420
 4170TIP3   OH233924   0.084   5.264   1.482  0.0935 -0.1283 -0.4711
 4170TIP3    H133925   0.174   5.247   1.454  0.4250 -0.5571  0.7987
 4170TIP3    H233926   0.043   5.306   1.407  1.2283 -0.3368 -1.2250
 4171TIP3   OH233927   6.716   4.367  10.957  0.0465  0.3752 -0.1097
 4171TIP3    H133928   6.795   4.335  11.001  0.0572  0.4576 -0.0694
 4171TIP3    H233929   6.658   4.393  11.028  0.7576  2.1864 -0.1587
 4172TIP3   OH233930   2.140   5.584   2.370 -0.2231  0.1812  0.2706
 4172TIP3    H133931   2.163   5.577   2.463  0.7489 -1.2777 -0.0617
 4172TIP3    H233932   2.204   5.529   2.326 -1.3081  0.0592 -1.1776
 4173TIP3   OH233933   3.350   3.208   3.126  0.1997 -0.0507 -0.2628
 4173TIP3    H133934   3.426   3.244   3.081 -0.5825  0.3885 -1.2506
 4173TIP3    H233935   3.292   3.177   3.056 -0.8451  0.2699  0.4417
 4174TIP3   OH233936   4.136   3.231  11.570  0.1026 -0.2041 -0.3238
 4174TIP3    H133937   4.192   3.222  11.647  1.2114  0.2286 -1.0650
 4174TIP3    H233938   4.196   3.223  11.496 -0.7110  0.9986 -1.1259
 4175TIP3   OH233939   5.950   5.165   2.327 -0.0051  0.2656 -0.0292
 4175TIP3    H133940   5.945   5.260   2.315  0.4706  0.1173 -1.5584
 4175TIP3    H233941   6.044   5.146   2.325  0.0076 -0.0035  2.3365
 4176TIP3   OH233942   2.764   1.577   0.329  0.3200 -0.0195 -0.5073
 4176TIP3    H133943   2.733   1.633   0.400 -0.4990 -0.4122 -0.5464
 4176TIP3    H233944   2.689   1.521   0.308  1.0834 -1.0532 -0.5429
 4177TIP3   OH233945   1.759   3.254   2.331 -0.2766 -0.1123  0.7177
 4177TIP3    H133946   1.726   3.289   2.248  0.0819 -0.7212  0.3165
 4177TIP3    H233947   1.813   3.180   2.306 -0.9030 -0.8602  1.5573
 4178TIP3   OH233948   4.857   0.925  16.319  0.1635  0.0402 -0.2874
 4178TIP3    H133949   4.913   0.873  16.262  0.9610  0.3018  0.2619
 4178TIP3    H233950   4.867   1.015  16.287 -2.4783 -0.2898 -2.3104
 4179TIP3   OH233951   6.648   4.765  16.197  0.2958 -0.7113 -0.1736
 4179TIP3    H133952   6.670   4.841  16.252  0.3184 -0.0978 -1.0256
 4179TIP3    H233953   6.724   4.753  16.140  1.0093 -2.4250  1.0779
 4180TIP3   OH233954   2.901   1.545   3.237  0.6973  0.5305 -0.1230
 4180TIP3    H133955   2.955   1.467   3.252  1.2444  0.4987 -2.1058
 4180TIP3    H233956   2.954   1.617   3.271  1.3791  0.3421 -0.7699
 4181TIP3   OH233957   5.574   4.150   3.260 -0.1938  0.2389  0.0581
 4181TIP3    H133958   5.502   4.108   3.212  0.0263  0.9731 -0.9398
 4181TIP3    H233959   5.537   4.171   3.346 -0.8524 -0.3511 -0.0775
 4182TIP3   OH233960   3.861   4.929   0.554 -0.1747  0.0408  0.3649
 4182TIP3    H133961   3.829   4.869   0.621 -0.4228 -1.0887 -0.7596
 4182TIP3    H233962   3.811   5.010   0.568  0.1565 -0.0139  1.8725
 4183TIP3   OH233963   4.361   2.198   3.102  0.7004  0.3254 -0.0671
 4183TIP3    H133964   4.328   2.168   3.187 -0.2904 -0.0881 -0.5935
 4183TIP3    H233965   4.324   2.285   3.091  0.2930  0.1144 -0.3715
 4184TIP3   OH233966   4.190   2.946   6.153  0.5446 -0.5955 -0.1987
 4184TIP3    H133967   4.266   3.003   6.156 -1.6933  2.4905  0.0665
 4184TIP3    H233968   4.184   2.908   6.241  0.7414  0.5556  0.3154
 4185TIP3   OH233969   3.745   1.964  12.187 -0.1673 -0.1992 -0.5724
 4185TIP3    H133970   3.823   2.017  12.172 -1.1676  2.8874  4.0052
 4185TIP3    H233971   3.778   1.879  12.214  1.5931  0.3822 -0.8645
 4186TIP3   OH233972   1.904   3.687   2.654 -0.3649 -0.6147  0.1417
 4186TIP3    H133973   1.992   3.703   2.689 -1.0704 -0.2042  1.7724
 4186TIP3    H233974   1.917   3.623   2.584  1.4522  0.7854 -0.8334
 4187TIP3   OH233975   1.787   4.922  15.162 -0.1030  0.6719  0.2352
 4187TIP3    H133976   1.735   4.867  15.221 -1.9400  1.1562 -0.8672
 4187TIP3    H233977   1.726   4.945  15.092  2.0744 -0.0600 -1.9754
 4188TIP3   OH233978   5.619   2.357   4.773  0.3032 -0.5672  0.0945
 4188TIP3    H133979   5.691   2.377   4.833  1.3863 -1.7629 -0.7530
 4188TIP3    H233980   5.606   2.438   4.724  1.4545 -0.4856 -0.1029
 4189TIP3   OH233981   0.530   3.790   0.187 -0.0173 -0.2936 -0.5490
 4189TIP3    H133982   0.620   3.820   0.178 -0.5208  1.5652  0.2313
 4189TIP3    H233983   0.513   3.739   0.108  2.2665 -2.1976  0.1417
 4190TIP3   OH233984   3.650   0.531  12.859 -0.6530 -0.0374  0.8033
 4190TIP3    H133985   3.556   0.531  12.881 -1.0389 -1.0004 -0.7523
 4190TIP3    H233986   3.686   0.456  12.906 -0.9212 -0.4555  0.3370
 4191TIP3   OH233987   3.646   4.725   1.631 -0.0922  0.1362  0.1700
 4191TIP3    H133988   3.567   4.702   1.581  0.8511 -1.8630 -0.4713
 4191TIP3    H233989   3.655   4.819   1.620 -0.9283  0.0015 -1.9354
 4192TIP3   OH233990   0.345   2.046   5.857 -0.5104  0.4977  0.4954
 4192TIP3    H133991   0.261   2.076   5.891  0.0113  1.2668  1.1157
 4192TIP3    H233992   0.407   2.058   5.929  0.5570  1.9450 -0.6206
 4193TIP3   OH233993   4.265   2.543  14.200  0.1398  0.6357  0.3615
 4193TIP3    H133994   4.184   2.594  14.196 -1.8661 -2.4851  0.2815
 4193TIP3    H233995   4.270   2.500  14.115  1.4318  0.0917  0.7055
 4194TIP3   OH233996   0.026   3.727  14.457  0.0232 -0.0804  0.8430
 4194TIP3    H133997  -0.047   3.749  14.515 -1.1847 -0.0152 -0.6625
 4194TIP3    H233998   0.097   3.786  14.484 -0.5324 -0.0234  2.2057
 4195TIP3   OH233999   0.064   6.168  11.138 -0.2841  0.2333  0.6531
 4195TIP3    H134000   0.023   6.086  11.110 -1.1107  0.9098 -0.1408
 4195TIP3    H234001  -0.004   6.212  11.188 -0.1269  0.8212  0.3486
 4196TIP3   OH234002   6.225   6.118   4.205  0.4587 -0.0540 -0.3071
 4196TIP3    H134003   6.159   6.070   4.155  1.0398 -0.7945 -0.3732
 4196TIP3    H234004   6.199   6.108   4.296  2.0182 -2.7805 -0.0908
 4197TIP3   OH234005   5.055   4.057   0.493 -0.7191 -0.4506  0.3285
 4197TIP3    H134006   4.989   4.039   0.560 -3.4490  0.6211 -1.9547
 4197TIP3    H234007   5.107   4.128   0.530 -0.9899 -1.1010  2.0436
 4198TIP3   OH234008   6.070   5.605  13.575  0.3139  0.2782  0.0015
 4198TIP3    H134009   6.041   5.569  13.491  1.3577 -0.6649  0.0422
 4198TIP3    H234010   6.024   5.553  13.641 -1.4853  1.8409  0.0262
 4199TIP3   OH234011   2.756   1.196   1.921 -0.2936 -0.4326 -0.4362
 4199TIP3    H134012   2.719   1.283   1.912 -0.2083 -0.3472  0.0282
 4199TIP3    H234013   2.681   1.138   1.934 -0.4334 -0.5801 -1.7936
 4200TIP3   OH234014   1.848   1.682  12.141 -0.3973 -0.1839  0.4163
 4200TIP3    H134015   1.779   1.617  12.143  0.2628 -0.9060  0.1183
 4200TIP3    H234016   1.890   1.670  12.055  0.0440  0.2906  0.5584
 4201TIP3   OH234017   0.856   5.762  14.631  0.7397  0.4698 -0.4157
 4201TIP3    H134018   0.796   5.735  14.561 -0.7474  0.8271  0.6877
 4201TIP3    H234019   0.942   5.766  14.589  0.1077 -0.6962 -1.8841
 4202TIP3   OH234020   1.733   4.284  16.027 -0.3498  0.4896 -0.7536
 4202TIP3    H134021   1.763   4.288  16.118 -0.2767  0.1612 -0.7626
 4202TIP3    H234022   1.703   4.194  16.015  1.3078  0.0226 -1.5879
 4203TIP3   OH234023   6.526   0.699   2.872 -0.4036 -0.3377 -0.3596
 4203TIP3    H134024   6.501   0.755   2.946  0.4246 -0.9756  0.4059
 4203TIP3    H234025   6.585   0.634   2.909  1.3398  0.3367 -1.8982
 4204TIP3   OH234026   1.184   1.249   1.890  0.1478 -0.0304  0.3544
 4204TIP3    H134027   1.149   1.193   1.958 -0.4483  0.4391  0.4418
 4204TIP3    H234028   1.111   1.307   1.866 -0.4502 -1.8704 -2.4795
 4205TIP3   OH234029   1.341   1.057  12.239 -0.0844  0.0520 -0.2905
 4205TIP3    H134030   1.342   1.141  12.193 -2.5017 -0.7364 -1.8088
 4205TIP3    H234031   1.434   1.040  12.258  0.4462  3.0577  0.0808
 4206TIP3   OH234032   0.291   0.907   5.962  0.1814 -0.0015  0.3243
 4206TIP3    H134033   0.362   0.971   5.961 -0.3652  0.6234  1.3757
 4206TIP3    H234034   0.229   0.940   6.027  0.0853 -1.8022  1.1911
 4207TIP3   OH234035   4.767   3.358  12.044 -0.5858  0.2679  0.1280
 4207TIP3    H134036   4.776   3.311  12.127 -4.1503 -0.5318  0.1395
 4207TIP3    H234037   4.769   3.450  12.067  0.4475  0.0716  0.8393
 4208TIP3   OH234038   5.964   3.635   2.690  0.1643 -0.1627 -0.6384
 4208TIP3    H134039   6.011   3.627   2.608 -0.1245  1.8187 -1.0212
 4208TIP3    H234040   5.933   3.726   2.692  0.1235 -0.1806  1.6291
 4209TIP3   OH234041   6.673   6.314   4.633  0.3629 -0.2014  0.4741
 4209TIP3    H134042   6.644   6.223   4.626 -0.1754 -0.0945  1.2438
 4209TIP3    H234043   6.644   6.354   4.551  1.3973 -0.9345 -0.2602
 4210TIP3   OH234044   3.347   0.872  11.194 -0.0688  0.4759  0.2306
 4210TIP3    H134045   3.255   0.897  11.194 -0.1911  0.0166 -0.5600
 4210TIP3    H234046   3.364   0.839  11.106  0.7697  0.2564  0.4679
 4211TIP3   OH234047   3.879   3.233   1.757 -0.2314 -0.7167  0.3717
 4211TIP3    H134048   3.806   3.183   1.723 -0.2838 -0.3916  0.0059
 4211TIP3    H234049   3.877   3.218   1.852 -1.0143 -0.3736  0.4073
 4212TIP3   OH234050   4.383   0.782   3.113 -0.4555  0.0000  0.1779
 4212TIP3    H134051   4.350   0.751   3.028 -0.8652 -1.0792  0.7116
 4212TIP3    H234052   4.418   0.869   3.096 -2.4274  0.6415 -0.6725
 4213TIP3   OH234053   1.400   0.473   1.980  0.8202 -0.2495 -0.1131
 4213TIP3    H134054   1.371   0.494   1.891 -0.2936 -1.7588 -0.1210
 4213TIP3    H234055   1.335   0.515   2.037  0.4480 -0.8991 -0.0576
 4214TIP3   OH234056   3.496   0.885   0.411 -0.1665  0.2507  0.3226
 4214TIP3    H134057   3.587   0.899   0.385 -0.4861  0.1022 -0.9132
 4214TIP3    H234058   3.477   0.959   0.469  0.8678  0.0404  0.9532
 4215TIP3   OH234059   4.102   5.538  14.886  0.3704  1.0320 -0.1906
 4215TIP3    H134060   4.014   5.575  14.881 -0.5319 -0.9486  0.4839
 4215TIP3    H234061   4.107   5.479  14.810  0.6407  0.1646  0.4901
 4216TIP3   OH234062   0.732   6.038   0.653 -0.2545  0.1461  0.0177
 4216TIP3    H134063   0.719   5.967   0.716 -3.2306 -0.1233 -0.8130
 4216TIP3    H234064   0.789   6.100   0.699 -0.7652 -0.9400  2.2260
 4217TIP3   OH234065   6.420   2.281   5.183  0.0680  0.4265 -1.1147
 4217TIP3    H134066   6.356   2.222   5.222  1.7381  0.0803  1.1787
 4217TIP3    H234067   6.404   2.274   5.089 -1.3990 -1.7860 -0.7420
 4218TIP3   OH234068   5.529   0.540  16.413  0.0707  0.2723  0.5437
 4218TIP3    H134069   5.574   0.601  16.472  0.2188 -1.3010  2.1018
 4218TIP3    H234070   5.437   0.562  16.422  0.0701 -0.1241  1.5770
 4219TIP3   OH234071   4.279   5.064  13.332  0.2102  0.6040 -0.4603
 4219TIP3    H134072   4.247   5.053  13.421 -0.9797  0.1432 -0.9231
 4219TIP3    H234073   4.237   4.992  13.283 -1.0185  2.2149 -1.8391
 4220TIP3   OH234074   5.251   2.456   1.088  0.3140  0.3941  0.0602
 4220TIP3    H134075   5.344   2.469   1.068  0.9621 -1.6505  1.5609
 4220TIP3    H234076   5.227   2.532   1.141  1.2333  0.7548 -0.0347
 4221TIP3   OH234077   0.584   1.024  14.971  0.2491  0.2324 -0.1965
 4221TIP3    H134078   0.656   1.024  15.033  0.7498 -0.3391 -0.7762
 4221TIP3    H234079   0.570   1.117  14.950  0.8490  0.3356 -0.1245
 4222TIP3   OH234080   0.807   0.248  11.499  0.1861 -0.0675  0.1557
 4222TIP3    H134081   0.848   0.188  11.561 -1.4837 -2.0954 -0.6334
 4222TIP3    H234082   0.761   0.191  11.437 -1.4724  2.0166 -0.6130
 4223TIP3   OH234083   2.305   0.659   5.821  0.2694  0.1104  0.5107
 4223TIP3    H134084   2.336   0.741   5.782  2.2395 -0.3968  0.9601
 4223TIP3    H234085   2.277   0.606   5.746 -0.8588  1.1117  0.2077
 4224TIP3   OH234086   1.167   4.606  12.087 -0.5371 -0.2457 -0.4856
 4224TIP3    H134087   1.179   4.550  12.163 -2.8282  1.3243  1.1067
 4224TIP3    H234088   1.220   4.684  12.105 -1.6060  0.4157 -0.1902
 4225TIP3   OH234089   4.935   4.758   0.371  0.0462 -0.1218  0.2653
 4225TIP3    H134090   4.960   4.805   0.451  0.5782 -0.6651  0.4273
 4225TIP3    H234091   5.012   4.704   0.351 -0.2460 -0.2940 -0.3813
 4226TIP3   OH234092   6.451   4.765  14.790  0.8843  0.2318 -0.8429
 4226TIP3    H134093   6.359   4.756  14.815  1.1999 -1.9280 -0.3343
 4226TIP3    H234094   6.466   4.860  14.789 -1.6047  0.6717 -1.9773
 4227TIP3   OH234095   1.957   4.124   3.731  0.1217  0.3305 -0.5801
 4227TIP3    H134096   1.975   4.172   3.651 -1.0989  1.0236 -0.4457
 4227TIP3    H234097   1.919   4.189   3.790  2.4568  0.2217  1.1405
 4228TIP3   OH234098   2.544   2.115   0.214 -0.2745 -0.3223 -0.3002
 4228TIP3    H134099   2.607   2.144   0.149  2.0107 -1.0667  1.5440
 4228TIP3    H234100   2.550   2.019   0.213  0.3467 -0.3228  1.5223
 4229TIP3   OH234101   3.314   5.787   1.332 -0.0508 -0.4105 -0.3757
 4229TIP3    H134102   3.293   5.880   1.333 -1.6809 -0.7549  0.3050
 4229TIP3    H234103   3.373   5.776   1.258  1.1837  1.3645  0.3133
 4230TIP3   OH234104   6.471   6.621  16.089 -0.2207  0.1608 -0.0394
 4230TIP3    H134105   6.409   6.571  16.143 -1.4077 -1.0293 -2.4316
 4230TIP3    H234106   6.418   6.690  16.049  0.5263  0.6673 -0.1638
 4231TIP3   OH234107   5.295   1.406  13.487  0.8027  0.1848 -0.2535
 4231TIP3    H134108   5.340   1.376  13.566 -0.7535 -1.7327 -0.0726
 4231TIP3    H234109   5.217   1.450  13.520 -0.4770 -1.6888 -0.7505
 4232TIP3   OH234110   0.033   2.761   4.761  0.3305  0.1336 -0.7836
 4232TIP3    H134111  -0.043   2.813   4.735  0.0638  1.1430  1.8237
 4232TIP3    H234112   0.008   2.671   4.743 -2.0601  0.3323  1.2284
 4233TIP3   OH234113   6.702   6.689  14.038  0.2957  0.3376  0.5430
 4233TIP3    H134114   6.784   6.693  13.990 -0.2428 -0.7404 -0.5048
 4233TIP3    H234115   6.701   6.602  14.078 -0.4705  0.2245  0.2960
 4234TIP3   OH234116   1.792   6.170   3.081 -0.4914 -0.0972 -0.6346
 4234TIP3    H134117   1.803   6.265   3.092 -1.2214  0.4042 -3.5878
 4234TIP3    H234118   1.769   6.138   3.168 -1.1109  2.5795  0.2523
 4235TIP3   OH234119   4.969   5.966   4.157 -0.0510 -0.5190 -0.3211
 4235TIP3    H134120   4.980   6.031   4.087  0.7361 -0.0973  0.1846
 4235TIP3    H234121   4.876   5.944   4.156 -0.3992  0.9327 -0.2239
 4236TIP3   OH234122   5.367   4.613  12.446  0.0708  0.0770 -0.1009
 4236TIP3    H134123   5.317   4.599  12.526  0.8244  1.7715  0.7203
 4236TIP3    H234124   5.301   4.624  12.377 -0.5549 -2.8974 -0.0105
 4237TIP3   OH234125   2.530   5.713  14.148 -0.2748  0.0439 -0.0009
 4237TIP3    H134126   2.558   5.791  14.101 -0.3752 -0.4437 -0.8796
 4237TIP3    H234127   2.526   5.645  14.081 -2.7828 -0.0941  0.2567
 4238TIP3   OH234128   5.007   3.148  12.111  0.0704 -0.4318 -0.1799
 4238TIP3    H134129   5.102   3.132  12.114 -0.1298 -1.7905 -0.8033
 4238TIP3    H234130   4.989   3.169  12.020 -0.1967  0.0545 -0.0140
 4239TIP3   OH234131   0.667   6.684   0.369 -0.5129 -0.1648 -0.4401
 4239TIP3    H134132   0.583   6.638   0.376  0.0448 -1.2203 -0.5679
 4239TIP3    H234133   0.700   6.659   0.283 -1.3849  2.5415 -1.6257
 4240TIP3   OH234134   6.461   5.129   0.026 -0.1814  0.3436 -0.2289
 4240TIP3    H134135   6.406   5.068  -0.023  0.7404 -0.0204 -0.8300
 4240TIP3    H234136   6.537   5.144  -0.031  2.5850 -2.7516  2.4387
 4241TIP3   OH234137   3.167   3.045  15.449 -0.4838 -0.0389 -0.6912
 4241TIP3    H134138   3.195   3.021  15.360  1.4761 -1.0950  0.1967
 4241TIP3    H234139   3.181   3.140  15.452  1.5254 -0.2985 -0.8233
 4242TIP3   OH234140   3.963   6.242   4.321  0.3021  0.2888  0.0497
 4242TIP3    H134141   3.908   6.295   4.380  0.4643  0.7016 -0.1674
 4242TIP3    H234142   4.024   6.197   4.380 -1.6289 -1.8445  0.5026
 4243TIP3   OH234143   3.423   3.703   0.366  0.1873 -0.6974 -0.1557
 4243TIP3    H134144   3.414   3.693   0.271  0.4519 -1.2110 -0.1276
 4243TIP3    H234145   3.463   3.789   0.378  2.4023 -1.6293 -0.6199
 4244TIP3   OH234146   0.581   1.554  16.157 -0.2146  0.1588 -0.4770
 4244TIP3    H134147   0.620   1.592  16.236  0.7858 -1.6872 -0.0441
 4244TIP3    H234148   0.507   1.612  16.137 -1.4769 -0.1972  2.7367
 4245TIP3   OH234149   2.962   4.423   1.120 -0.1426 -0.1475  0.2122
 4245TIP3    H134150   2.914   4.471   1.188  0.3978  0.6731  0.0222
 4245TIP3    H234151   2.978   4.337   1.159 -2.3524 -0.6777  0.0175
 4246TIP3   OH234152   3.816   5.838  12.504 -0.0356 -0.8332 -0.8388
 4246TIP3    H134153   3.824   5.910  12.441 -1.6933 -1.0607 -1.3410
 4246TIP3    H234154   3.733   5.795  12.481 -0.7159 -0.8811  1.5123
 4247TIP3   OH234155   0.973   6.732   5.680 -0.2168 -0.1318 -0.2427
 4247TIP3    H134156   1.006   6.777   5.602 -1.0002  2.5235  0.9190
 4247TIP3    H234157   0.878   6.733   5.670 -0.2578 -1.4887 -0.1429
 4248TIP3   OH234158   1.685   0.376  12.329 -0.3108  0.8898  0.0236
 4248TIP3    H134159   1.690   0.442  12.260  0.5635  0.8053 -0.0072
 4248TIP3    H234160   1.597   0.384  12.364 -1.1909  0.1027 -1.9293
 4249TIP3   OH234161   3.468   2.061   2.003  0.0873  0.3559  0.0276
 4249TIP3    H134162   3.541   2.062   2.065  0.4646  0.0253 -0.4098
 4249TIP3    H234163   3.451   1.968   1.987  1.4710  0.4377 -2.0974
 4250TIP3   OH234164   5.896   2.560   0.104 -0.7723 -0.1037 -0.2625
 4250TIP3    H134165   5.862   2.472   0.123 -1.4594  0.4644  1.2439
 4250TIP3    H234166   5.990   2.553   0.117 -1.0843 -0.0623  2.1757
 4251TIP3   OH234167   2.656   3.306  12.879  0.2083  0.3019  0.0363
 4251TIP3    H134168   2.656   3.218  12.918  2.8869 -0.1668 -0.8945
 4251TIP3    H234169   2.681   3.364  12.951  1.0702 -0.0447  0.0203
 4252TIP3   OH234170   1.518   3.057  13.708 -0.3762  0.6911  0.0242
 4252TIP3    H134171   1.428   3.082  13.685 -0.0858  0.4971 -1.4149
 4252TIP3    H234172   1.557   3.138  13.741 -0.9038  0.9366  0.0573
 4253TIP3   OH234173   4.156   5.256  15.647  0.0872 -0.0239  0.2500
 4253TIP3    H134174   4.088   5.189  15.646  1.5125 -1.4931  0.2166
 4253TIP3    H234175   4.124   5.321  15.710 -1.0289 -1.0186  0.7471
 4254TIP3   OH234176   5.450   5.384  13.464  0.2144  0.0628  0.4023
 4254TIP3    H134177   5.481   5.332  13.390  0.6911  0.9610 -0.0350
 4254TIP3    H234178   5.452   5.323  13.538  0.1051 -0.7336 -0.2358
 4255TIP3   OH234179   1.495   0.425   5.454 -0.1079  0.3197  0.5864
 4255TIP3    H134180   1.440   0.372   5.511  0.4769  0.3284  1.1591
 4255TIP3    H234181   1.482   0.515   5.484  0.0440  0.3441  0.5806
 4256TIP3   OH234182   3.652   1.093  11.961 -0.0640 -0.1765  0.5010
 4256TIP3    H134183   3.581   1.032  11.941 -0.7014  1.1397 -1.4522
 4256TIP3    H234184   3.609   1.163  12.010  0.1302  0.0051  0.4122
 4257TIP3   OH234185   6.049   1.279  12.713 -0.5842 -0.0150 -0.7125
 4257TIP3    H134186   6.082   1.365  12.689 -1.3956  0.3490 -0.5330
 4257TIP3    H234187   5.956   1.281  12.690 -0.5119 -1.0028 -1.1410
 4258TIP3   OH234188   0.039   0.383  11.308 -0.5389  0.0428 -0.4390
 4258TIP3    H134189   0.062   0.309  11.251 -0.5314 -0.2634 -0.0370
 4258TIP3    H234190  -0.049   0.408  11.279 -1.0905 -0.9914  0.3175
 4259TIP3   OH234191   4.809   0.652  14.471  0.3041  0.4458  0.0861
 4259TIP3    H134192   4.786   0.723  14.531  0.4841  0.1126  0.5461
 4259TIP3    H234193   4.904   0.656  14.465  0.5804 -1.7158  2.5166
 4260TIP3   OH234194   3.278   4.626  14.401  0.3168  0.7614  0.7580
 4260TIP3    H134195   3.295   4.654  14.491 -0.0955  0.4210  0.9436
 4260TIP3    H234196   3.342   4.557  14.384 -1.0519 -0.7522  1.5726
 4261TIP3   OH234197   2.687   0.393   2.726 -0.0803  0.1134 -0.4572
 4261TIP3    H134198   2.735   0.341   2.661  0.2632  0.4232 -0.4544
 4261TIP3    H234199   2.611   0.340   2.747 -0.0464 -0.1210 -0.9035
 4262TIP3   OH234200   0.376   3.439   2.443 -0.3032  0.3047 -0.2279
 4262TIP3    H134201   0.386   3.475   2.531 -0.6182 -0.5917  0.1858
 4262TIP3    H234202   0.454   3.468   2.396  0.5723 -0.3908  0.7650
 4263TIP3   OH234203   4.176   1.947  16.123 -0.0610 -0.5337  0.3297
 4263TIP3    H134204   4.195   1.865  16.169 -1.4436  0.1080  2.1070
 4263TIP3    H234205   4.231   1.943  16.044  1.4095 -2.2437  1.3814
 4264TIP3   OH234206   4.485   6.122  16.278 -0.6989  0.0252  0.4478
 4264TIP3    H134207   4.521   6.037  16.253  1.3243  0.3150  2.2407
 4264TIP3    H234208   4.466   6.166  16.195  0.9178 -1.0722 -0.5226
 4265TIP3   OH234209   6.672   5.624  14.611 -0.0207  0.3583  0.6326
 4265TIP3    H134210   6.637   5.704  14.572  0.3033 -0.7584 -2.0519
 4265TIP3    H234211   6.637   5.553  14.556  2.8940 -1.0668  0.5173
 4266TIP3   OH234212   3.959   5.343   3.587 -0.4276 -0.2897 -0.4579
 4266TIP3    H134213   3.960   5.248   3.603  2.4220 -0.0216  1.3817
 4266TIP3    H234214   3.931   5.381   3.670  0.4191  0.5664 -0.5629
 4267TIP3   OH234215   2.784   1.991   4.076 -0.4389  0.1264 -0.3233
 4267TIP3    H134216   2.746   2.030   3.997  2.4145  0.4545 -1.6119
 4267TIP3    H234217   2.757   2.048   4.147 -0.3027  1.7207 -1.5269
 4268TIP3   OH234218   6.004   6.348   0.212 -0.0802  0.1629  0.2216
 4268TIP3    H134219   5.977   6.282   0.149  0.0053  0.8287 -0.5187
 4268TIP3    H234220   6.018   6.300   0.294  1.5343 -0.9634 -0.7048
 4269TIP3   OH234221   5.570   0.206  13.218  0.1514  0.5438  0.4653
 4269TIP3    H134222   5.502   0.190  13.153 -0.2990  0.7061  0.8883
 4269TIP3    H234223   5.607   0.120  13.235 -0.2535  0.3829  0.5564
 4270TIP3   OH234224   2.858   0.035   3.109 -0.8968  0.5119 -0.4455
 4270TIP3    H134225   2.828   0.042   3.018  0.8915 -1.0599 -1.1912
 4270TIP3    H234226   2.877  -0.058   3.121 -0.3714  0.8282  1.2996
 4271TIP3   OH234227   5.462   4.349   1.149 -0.3609 -0.3486  0.1095
 4271TIP3    H134228   5.447   4.302   1.231 -0.1966 -1.5259 -0.5190
 4271TIP3    H234229   5.517   4.423   1.173 -0.9638 -0.2410  1.1873
 4272TIP3   OH234230   4.358   4.042  11.182 -0.1559  0.2032 -0.3553
 4272TIP3    H134231   4.352   3.953  11.218  0.2518  0.7370  1.0612
 4272TIP3    H234232   4.268   4.065  11.160 -0.3276 -0.3802 -0.2731
 4273TIP3   OH234233   1.018   1.808  11.192  0.4251  0.0992 -0.1942
 4273TIP3    H134234   0.954   1.753  11.235  0.0406  0.1907 -0.6474
 4273TIP3    H234235   1.012   1.785  11.099 -0.3242  1.4885 -0.5046
 4274TIP3   OH234236   0.326   4.395   2.365 -0.0828 -0.4334  0.1789
 4274TIP3    H134237   0.368   4.410   2.450  0.3809 -0.9278  0.0399
 4274TIP3    H234238   0.392   4.349   2.314 -0.9883 -1.7035  0.1291
 4275TIP3   OH234239   5.264   2.056  11.336  0.5104  0.0006 -0.4462
 4275TIP3    H134240   5.356   2.077  11.351  0.4395  0.5335 -0.7103
 4275TIP3    H234241   5.228   2.136  11.296 -0.0176 -0.2717 -0.5212
 4276TIP3   OH234242   4.181   4.624   0.136 -0.3183 -0.8887 -0.6017
 4276TIP3    H134243   4.177   4.657   0.226  0.8764  0.1182 -0.9103
 4276TIP3    H234244   4.091   4.599   0.116 -1.0498  1.1655  0.0170
 4277TIP3   OH234245   4.780   6.124  17.152 -0.1850  0.1870 -0.2969
 4277TIP3    H134246   4.702   6.157  17.196  0.4090 -0.8196  1.5565
 4277TIP3    H234247   4.768   6.148  17.060 -1.3621  2.4899  0.4348
 4278TIP3   OH234248   2.884   0.145   2.155 -0.0769  0.0295 -0.1493
 4278TIP3    H134249   2.843   0.173   2.073  1.5040 -0.6341 -1.1732
 4278TIP3    H234250   2.921   0.059   2.136 -0.0009 -0.2948  1.3657
 4279TIP3   OH234251   3.935   3.792  16.042 -0.0308  0.2288  0.3411
 4279TIP3    H134252   4.008   3.806  16.102  0.2512  1.0120 -0.1790
 4279TIP3    H234253   3.880   3.869  16.054 -0.6396 -0.2339  0.5343
 4280TIP3   OH234254   1.717   5.046   5.142 -0.0351  0.4828 -0.0992
 4280TIP3    H134255   1.723   5.136   5.110  1.2929  0.2524 -0.5276
 4280TIP3    H234256   1.806   5.025   5.172 -0.8328  0.0672  2.0494
 4281TIP3   OH234257   5.813   3.416  16.024  0.0770 -0.0492 -0.2828
 4281TIP3    H134258   5.772   3.493  16.063 -0.4059 -0.6715  0.4495
 4281TIP3    H234259   5.895   3.406  16.072  0.5946  0.5447 -1.0091
 4282TIP3   OH234260   3.916   2.237   1.558  0.6693 -0.6026 -0.2759
 4282TIP3    H134261   3.883   2.321   1.528  1.3971  0.3037  1.3720
 4282TIP3    H234262   3.905   2.178   1.484 -1.5002  0.4996 -0.8498
 4283TIP3   OH234263   5.110   4.755  11.405 -0.0641  0.0904 -0.2131
 4283TIP3    H134264   5.039   4.740  11.343 -0.2699  1.4382 -0.3347
 4283TIP3    H234265   5.189   4.728  11.359 -0.1405  1.7126 -1.3300
 4284TIP3   OH234266   1.714   6.157   3.432  0.6272  0.9686 -0.3452
 4284TIP3    H134267   1.779   6.090   3.453 -0.2035 -0.0201 -0.8712
 4284TIP3    H234268   1.683   6.188   3.518  0.8206  0.4767 -0.0942
 4285TIP3   OH234269   0.847   4.372   6.310  0.1146  0.3334 -0.1388
 4285TIP3    H134270   0.868   4.444   6.369 -0.5002 -0.8832  1.6033
 4285TIP3    H234271   0.757   4.348   6.332  0.5500 -1.4083 -0.1855
 4286TIP3   OH234272   2.840   0.643  14.388  0.1044 -0.3129 -0.7228
 4286TIP3    H134273   2.835   0.735  14.412  1.2386 -0.5519  0.4709
 4286TIP3    H234274   2.840   0.644  14.292 -0.9615  0.8544 -0.7255
 4287TIP3   OH234275   4.770   1.224  13.911 -0.0552 -0.6183 -0.8688
 4287TIP3    H134276   4.836   1.157  13.891  0.6493 -0.2377  0.1187
 4287TIP3    H234277   4.701   1.176  13.957  0.4746 -0.6727 -0.1119
 4288TIP3   OH234278   1.962   2.434   6.197 -0.5100  0.4797  0.0418
 4288TIP3    H134279   2.002   2.348   6.193 -0.2146  0.7002 -2.3002
 4288TIP3    H234280   2.032   2.491   6.230 -0.4165  0.0030  0.6772
 4289TIP3   OH234281   6.312   0.213  16.491  0.3579 -0.3386 -0.3247
 4289TIP3    H134282   6.350   0.204  16.404  1.2670  0.6396 -0.0356
 4289TIP3    H234283   6.361   0.283  16.532 -0.7327 -0.1075  0.6285
 4290TIP3   OH234284   5.796   2.913   1.089  0.0693  0.6290 -0.0803
 4290TIP3    H134285   5.736   2.957   1.149  0.3579  3.0213 -1.5036
 4290TIP3    H234286   5.878   2.906   1.138 -0.3318  0.5685  0.5868
 4291TIP3   OH234287   6.052   2.650   4.739 -0.6541  0.4757 -0.0611
 4291TIP3    H134288   6.138   2.636   4.778 -0.8883  0.5556  0.4898
 4291TIP3    H234289   6.051   2.743   4.715 -0.5108  0.4262 -0.2667
 4292TIP3   OH234290   4.555   3.845  10.358 -0.3105  0.1862 -0.2220
 4292TIP3    H134291   4.581   3.797  10.437 -0.3146 -1.6943 -1.3236
 4292TIP3    H234292   4.460   3.854  10.366 -0.3513 -0.2803 -0.1369
 4293TIP3   OH234293   3.320   3.986   5.315 -0.2355 -0.2653 -0.3939
 4293TIP3    H134294   3.381   3.918   5.287  0.6296  0.9893 -1.5974
 4293TIP3    H234295   3.301   4.036   5.236 -1.6680  0.2776  0.2698
 4294TIP3   OH234296   4.981   4.579  12.913 -0.0695  0.3496 -0.2950
 4294TIP3    H134297   4.886   4.577  12.898  0.1309  0.0051 -1.5476
 4294TIP3    H234298   5.008   4.487  12.910  0.2525  0.4162  0.4295
 4295TIP3   OH234299   3.185   2.492   1.178  0.1765 -0.3033  0.3245
 4295TIP3    H134300   3.189   2.413   1.232 -0.6949 -0.6600 -0.1144
 4295TIP3    H234301   3.274   2.526   1.178  0.9390 -2.2287 -0.8734
 4296TIP3   OH234302   1.998   6.262   3.583  0.0918 -0.0462 -0.4452
 4296TIP3    H134303   2.037   6.337   3.538 -0.0420  0.0691 -0.3717
 4296TIP3    H234304   1.967   6.205   3.512 -1.4478  0.8385 -0.5100
 4297TIP3   OH234305   4.194   5.612   3.749  0.0078  0.2634  0.2969
 4297TIP3    H134306   4.157   5.635   3.664  0.4638 -0.1373 -0.0133
 4297TIP3    H234307   4.274   5.564   3.728 -0.6876 -1.2166  0.9446
 4298TIP3   OH234308   3.361   2.967  12.780  0.9011 -0.5434 -0.3143
 4298TIP3    H134309   3.288   2.958  12.719  1.0204 -1.3356 -0.3337
 4298TIP3    H234310   3.396   2.879  12.791  1.4989 -0.2593  0.1417
 4299TIP3   OH234311   5.130   1.320   4.281  0.2562 -0.3256  0.0043
 4299TIP3    H134312   5.096   1.377   4.212 -0.5693 -0.1013  0.5826
 4299TIP3    H234313   5.205   1.368   4.317 -0.5329  0.5025  0.5996
 4300TIP3   OH234314   0.494   4.976   3.505  0.0384 -0.3271 -0.2915
 4300TIP3    H134315   0.489   5.002   3.597  0.2626 -1.1792 -0.0315
 4300TIP3    H234316   0.510   4.882   3.508 -2.5377 -0.8422 -1.2024
 4301TIP3   OH234317   2.391   3.991  11.072  0.1463  0.3168  0.1085
 4301TIP3    H134318   2.421   3.914  11.024 -0.6543  0.1845 -0.1919
 4301TIP3    H234319   2.302   4.005  11.040 -0.1011  0.7130  0.9705
 4302TIP3   OH234320   3.395   0.051  11.355  0.1390 -0.2700  0.6211
 4302TIP3    H134321   3.385   0.096  11.271  0.2791 -2.0895 -0.3765
 4302TIP3    H234322   3.474   0.090  11.393 -0.4764  1.2632  0.3792
 4303TIP3   OH234323   1.164   6.766   2.104  0.2279  0.5788 -0.3060
 4303TIP3    H134324   1.088   6.739   2.156 -0.6989  1.1024 -1.3739
 4303TIP3    H234325   1.217   6.686   2.096 -0.6182  0.0092 -0.2496
 4304TIP3   OH234326   5.727   5.109  12.280  0.1453  0.1509 -0.2936
 4304TIP3    H134327   5.813   5.066  12.277 -0.2699 -0.7244  0.0620
 4304TIP3    H234328   5.746   5.201  12.294  1.0903  0.1851 -1.7012
 4305TIP3   OH234329   0.523   0.933   5.690  0.3510 -0.3436 -0.1115
 4305TIP3    H134330   0.554   1.021   5.669 -0.0123 -0.7975 -2.7226
 4305TIP3    H234331   0.457   0.914   5.624 -1.5235 -1.5659  2.0186
 4306TIP3   OH234332   4.337   3.984  12.034  0.0517 -0.3918  0.0115
 4306TIP3    H134333   4.298   4.070  12.053  0.4070 -0.1441 -0.3712
 4306TIP3    H234334   4.403   3.972  12.102  3.1940  1.6810 -2.5111
 4307TIP3   OH234335   1.418   0.342  12.391  0.2772 -0.4568 -0.2845
 4307TIP3    H134336   1.357   0.342  12.317 -0.6898  1.2674  0.4760
 4307TIP3    H234337   1.368   0.380  12.464  2.1137  0.6034  0.4705
 4308TIP3   OH234338   0.887   6.316   5.322 -0.1914 -1.0387 -0.3677
 4308TIP3    H134339   0.828   6.244   5.301  0.6600 -1.7259 -0.4044
 4308TIP3    H234340   0.932   6.335   5.239 -0.2577 -0.6123 -0.3074
 4309TIP3   OH234341   1.339   1.431  15.248  0.2774 -0.1269  0.2250
 4309TIP3    H134342   1.269   1.373  15.220  0.4335  0.1136 -0.6641
 4309TIP3    H234343   1.295   1.495  15.304 -0.0031 -0.7081  0.6746
 4310TIP3   OH234344   4.521   0.518  12.583 -0.1379  0.0811  0.2253
 4310TIP3    H134345   4.451   0.515  12.518 -0.1147  2.0775  0.0922
 4310TIP3    H234346   4.489   0.463  12.655 -1.4092  0.1883 -0.2464
 4311TIP3   OH234347   5.706   2.358   2.527 -0.3255 -0.2588  0.0609
 4311TIP3    H134348   5.657   2.317   2.456 -1.7392  0.4778  0.5962
 4311TIP3    H234349   5.698   2.297   2.601 -2.2789  0.8318  0.8022
 4312TIP3   OH234350   4.272   6.063   3.997  0.3285 -0.4674 -0.4722
 4312TIP3    H134351   4.210   6.131   3.970  0.7521  0.5305  0.9738
 4312TIP3    H234352   4.226   5.981   3.979 -1.0606  0.2372 -0.2583
 4313TIP3   OH234353   4.745   6.722   6.543 -0.1754 -0.0945  0.4417
 4313TIP3    H134354   4.704   6.746   6.627 -1.7400  1.9438 -0.8691
 4313TIP3    H234355   4.672   6.698   6.486  0.6942  0.6969 -1.0308
 4314TIP3   OH234356   1.720   2.156   0.705  0.3254 -0.8055  0.6900
 4314TIP3    H134357   1.755   2.235   0.747 -0.4252 -1.1760  2.0318
 4314TIP3    H234358   1.791   2.126   0.648  1.1036  0.1074  1.1603
 4315TIP3   OH234359   4.120   1.886   3.618 -0.4798 -0.2192  0.2322
 4315TIP3    H134360   4.082   1.857   3.701 -1.8833 -0.9000 -0.6257
 4315TIP3    H234361   4.214   1.872   3.628 -0.6914 -0.7328  1.5386
 4316TIP3   OH234362   6.084   1.437   0.887  0.4804  0.6083  0.4626
 4316TIP3    H134363   6.081   1.507   0.821 -0.5367  1.0298  0.9402
 4316TIP3    H234364   6.171   1.445   0.926  0.9558  0.5957 -0.5702
 4317TIP3   OH234365   5.570   2.319  15.202  0.1289  0.0733  0.2144
 4317TIP3    H134366   5.548   2.404  15.163 -1.2812 -2.6217 -5.2861
 4317TIP3    H234367   5.488   2.289  15.242 -0.0075  0.2733  0.0854
 4318TIP3   OH234368   3.427   2.661   0.921  0.7950 -0.0208  0.1657
 4318TIP3    H134369   3.412   2.584   0.975  0.2475  0.6978  1.0480
 4318TIP3    H234370   3.481   2.718   0.976 -0.2860  0.9831  0.2069
 4319TIP3   OH234371   4.004   0.566   0.739  0.2761  0.0396  0.2378
 4319TIP3    H134372   3.984   0.656   0.714 -0.4825 -0.0841  0.3759
 4319TIP3    H234373   4.059   0.532   0.669  0.0334  0.4112 -0.1320
 4320TIP3   OH234374   6.289   4.911   0.272 -0.0925 -0.0419  0.1739
 4320TIP3    H134375   6.211   4.883   0.224 -0.4265  0.0595  0.6646
 4320TIP3    H234376   6.329   4.829   0.301 -1.1980 -0.0247  1.8125
 4321TIP3   OH234377   1.805   6.339  13.388  0.1919 -0.8632 -0.1281
 4321TIP3    H134378   1.782   6.246  13.390  0.0670 -0.8429 -0.6113
 4321TIP3    H234379   1.898   6.341  13.367  0.5512 -0.9296  1.3967
 4322TIP3   OH234380   2.354   4.706  17.014 -0.1181  0.2363 -0.1400
 4322TIP3    H134381   2.341   4.620  17.055 -3.6049  0.1842 -1.1698
 4322TIP3    H234382   2.323   4.694  16.925  0.6380  2.2315 -0.6831
 4323TIP3   OH234383   0.279   5.688   2.896 -0.4319 -0.5885  0.1352
 4323TIP3    H134384   0.311   5.608   2.937 -0.7795 -1.5546 -1.4238
 4323TIP3    H234385   0.315   5.685   2.807 -0.8192  0.7654 -0.0788
 4324TIP3   OH234386   6.145   1.651   3.034 -0.7235 -0.1056 -0.0109
 4324TIP3    H134387   6.139   1.691   2.948 -2.1342  2.1306  1.0770
 4324TIP3    H234388   6.086   1.702   3.089  1.4479 -0.3780  2.7132
 4325TIP3   OH234389   2.214   5.986  11.999 -0.3308 -0.2545 -0.3905
 4325TIP3    H134390   2.139   5.927  11.995 -2.8729  2.7998  0.1314
 4325TIP3    H234391   2.176   6.073  12.010  3.3729  1.1916  2.0501
 4326TIP3   OH234392   1.990   3.619  12.321 -0.8037  0.1916  0.7441
 4326TIP3    H134393   2.069   3.670  12.341  0.3695 -1.3677  0.1605
 4326TIP3    H234394   1.947   3.608  12.406 -0.1877  0.7222  1.1342
 4327TIP3   OH234395   1.494   4.284  11.231  0.0714  0.8739  0.6627
 4327TIP3    H134396   1.518   4.276  11.323 -0.9012  1.4889  0.9774
 4327TIP3    H234397   1.562   4.235  11.184 -1.0497 -2.0270  1.9109
 4328TIP3   OH234398   4.855   5.294  13.329 -0.0047  0.2227 -0.0784
 4328TIP3    H134399   4.866   5.230  13.399  0.3646  0.0389 -0.3026
 4328TIP3    H234400   4.789   5.355  13.362  0.2505  0.1999  0.4725
 4329TIP3   OH234401   1.533   1.903  10.799  0.2572 -0.2846 -0.1304
 4329TIP3    H134402   1.451   1.933  10.760  0.0351 -0.2585  0.3633
 4329TIP3    H234403   1.601   1.934  10.739 -0.1564 -1.1913 -1.0978
 4330TIP3   OH234404   3.392   6.489   3.105 -0.4249 -0.5149  0.4295
 4330TIP3    H134405   3.460   6.551   3.077 -1.7943  0.0925 -1.6880
 4330TIP3    H234406   3.380   6.507   3.199  3.2723 -1.5944  1.1842
 4331TIP3   OH234407   0.503   1.905  12.148 -0.1338  0.6188  0.8009
 4331TIP3    H134408   0.445   1.961  12.097  0.5305  1.4063  0.9085
 4331TIP3    H234409   0.561   1.864  12.084  0.7038  1.6117  0.9184
 4332TIP3   OH234410   1.857   6.525  12.360 -0.0744 -0.0187 -0.0321
 4332TIP3    H134411   1.936   6.576  12.342  0.5861 -0.1996  2.1858
 4332TIP3    H234412   1.841   6.475  12.280  0.0694  2.5770 -1.7578
 4333TIP3   OH234413   3.379   0.416  16.789  0.2128  0.2712 -0.6291
 4333TIP3    H134414   3.337   0.488  16.742  0.1702  0.2117 -0.6804
 4333TIP3    H234415   3.431   0.459  16.857 -0.6181  0.3094 -0.0048
 4334TIP3   OH234416   5.087   1.708   1.612  0.4863  0.4375  0.2501
 4334TIP3    H134417   5.099   1.648   1.539 -1.1701 -1.0468  1.1683
 4334TIP3    H234418   5.089   1.795   1.571 -0.5298 -0.3615 -1.5979
 4335TIP3   OH234419   3.297   3.279  12.736  0.0591  0.2322  0.6107
 4335TIP3    H134420   3.343   3.354  12.775  0.4349  0.5968 -0.5188
 4335TIP3    H234421   3.287   3.303  12.644  0.1886 -1.1145  0.2396
 4336TIP3   OH234422   6.473   2.968   1.423  0.2493 -0.4466 -0.1266
 4336TIP3    H134423   6.526   2.961   1.343  0.5624  0.0236  0.0386
 4336TIP3    H234424   6.473   3.061   1.443 -0.2829 -0.4998  0.1223
 4337TIP3   OH234425   4.379   5.409   5.440 -0.4098  0.1423 -0.3973
 4337TIP3    H134426   4.350   5.396   5.350 -0.3942  0.6647 -0.4825
 4337TIP3    H234427   4.305   5.450   5.484  0.0057  1.0312 -0.4938
 4338TIP3   OH234428   3.145   3.920  16.031 -0.2809 -0.1371  0.1429
 4338TIP3    H134429   3.080   3.925  15.961  1.3290 -1.9296 -1.5336
 4338TIP3    H234430   3.190   4.004  16.027 -0.1251 -0.2630 -1.0568
 4339TIP3   OH234431   4.966   1.150   6.400 -0.4830  0.0478  0.5767
 4339TIP3    H134432   4.929   1.070   6.437  2.1288 -1.9403 -0.9120
 4339TIP3    H234433   4.952   1.217   6.467 -3.1146 -1.5187  1.6672
 4340TIP3   OH234434   2.936   3.186   3.400  0.1575 -0.3317 -0.2413
 4340TIP3    H134435   2.985   3.201   3.481 -1.9988  1.1363  0.8691
 4340TIP3    H234436   2.877   3.114   3.422  0.8408 -1.1670 -1.1211
 4341TIP3   OH234437   4.875   3.754   1.773 -0.2314 -0.4761  0.1884
 4341TIP3    H134438   4.892   3.664   1.745  0.1718 -0.5677  0.7289
 4341TIP3    H234439   4.784   3.771   1.745 -0.5643 -1.3077  0.7597
 4342TIP3   OH234440   6.176   2.218   3.310  0.4072  0.7641  0.4220
 4342TIP3    H134441   6.083   2.226   3.327  0.2264 -1.1216  0.3650
 4342TIP3    H234442   6.198   2.296   3.260 -1.2883  0.8366 -0.2243
 4343TIP3   OH234443   5.588   6.624  16.257  0.2369 -0.4171  0.3278
 4343TIP3    H134444   5.539   6.542  16.249 -0.5607  0.1262 -0.3134
 4343TIP3    H234445   5.605   6.651  16.166  0.4442  0.1634  0.5386
 4344TIP3   OH234446   6.440   0.744  16.232 -0.7089 -0.2065 -0.3979
 4344TIP3    H134447   6.518   0.793  16.259 -1.5736  1.9439 -1.7177
 4344TIP3    H234448   6.461   0.711  16.145 -1.0323 -0.1467 -0.4980
 4345TIP3   OH234449   6.528   1.075  12.375  0.4236 -0.2141 -0.0160
 4345TIP3    H134450   6.484   1.126  12.306  2.6705  0.3799 -1.0356
 4345TIP3    H234451   6.526   1.132  12.451 -1.2344 -0.4976  0.1838
 4346TIP3   OH234452   4.757   1.245   5.549  0.1446 -0.3995  0.2712
 4346TIP3    H134453   4.682   1.187   5.563 -0.2409 -0.1286 -0.6122
 4346TIP3    H234454   4.720   1.321   5.504  0.9177 -0.1780  0.0015
 4347TIP3   OH234455   4.549   6.240   4.134  0.3765  0.6348  0.1283
 4347TIP3    H134456   4.499   6.229   4.053 -0.0558 -0.0085  0.4815
 4347TIP3    H234457   4.582   6.153   4.154  2.3003  1.1763 -0.5136
 4348TIP3   OH234458   0.507   1.510  15.782  0.1120 -0.2178  0.0990
 4348TIP3    H134459   0.476   1.515  15.691 -1.3384 -0.4948  0.5651
 4348TIP3    H234460   0.524   1.601  15.806 -1.3478  0.0513  0.1641
 4349TIP3   OH234461   5.034   4.373   0.533 -0.1988 -0.4671 -0.0557
 4349TIP3    H134462   4.986   4.451   0.561  0.4362  0.0703 -0.4359
 4349TIP3    H234463   5.098   4.359   0.603  2.1929  1.5814 -1.7152
 4350TIP3   OH234464   2.636   0.280   4.079  0.0434  0.5463  0.2674
 4350TIP3    H134465   2.692   0.337   4.027  0.4866  1.6087  1.8884
 4350TIP3    H234466   2.685   0.264   4.159 -1.0485 -0.2637  0.7949
 4351TIP3   OH234467   6.468   4.405   6.144 -0.1647  0.3422 -0.1667
 4351TIP3    H134468   6.525   4.468   6.188 -0.1306  1.3105 -1.5382
 4351TIP3    H234469   6.525   4.361   6.081 -0.2034 -1.0266  0.7480
 4352TIP3   OH234470   3.067   4.726  15.682 -0.6462 -0.1181 -0.1527
 4352TIP3    H134471   3.064   4.665  15.756 -1.8862 -1.9169 -1.6304
 4352TIP3    H234472   3.000   4.792  15.702  0.1238  0.2909  1.0679
 4353TIP3   OH234473   3.738   2.325  14.681  0.0134 -0.1992  0.0938
 4353TIP3    H134474   3.804   2.271  14.724 -0.9512 -0.3758  1.3835
 4353TIP3    H234475   3.675   2.262  14.645 -0.9398  0.0396  1.3158
 4354TIP3   OH234476   0.289   1.219  11.795  0.1979 -0.5164 -0.0360
 4354TIP3    H134477   0.241   1.141  11.766  0.8667 -0.7225 -0.6050
 4354TIP3    H234478   0.246   1.244  11.877 -0.4147 -1.1225 -0.1626
 4355TIP3   OH234479   4.989   3.985   1.500 -0.5039 -0.3971  0.6106
 4355TIP3    H134480   4.970   3.996   1.593 -1.4225 -0.6069  0.4534
 4355TIP3    H234481   5.010   3.892   1.490 -0.8643 -0.4724  0.5335
 4356TIP3   OH234482   5.180   3.922   5.291 -0.5420  0.0782  0.3899
 4356TIP3    H134483   5.096   3.934   5.335 -2.1674 -2.8183 -1.7142
 4356TIP3    H234484   5.238   3.886   5.358 -1.1098  1.5399  1.7031
 4357TIP3   OH234485   5.478   2.896  14.783  0.0060  0.2242  0.2084
 4357TIP3    H134486   5.400   2.849  14.814 -0.1171  0.8682  0.8836
 4357TIP3    H234487   5.546   2.874  14.847 -0.2030  1.4167  0.8593
 4358TIP3   OH234488   2.287   0.955  14.865  0.1178  0.0881  0.1991
 4358TIP3    H134489   2.341   0.884  14.833 -0.1307  0.5341 -1.2532
 4358TIP3    H234490   2.338   0.995  14.936  0.0839 -1.7602  1.2835
 4359TIP3   OH234491   1.539   4.961  14.543 -0.1490 -1.0126  0.2129
 4359TIP3    H134492   1.451   4.999  14.540  1.2364  2.5432  2.1243
 4359TIP3    H234493   1.558   4.937  14.452 -2.6550 -0.8704 -0.3859
 4360TIP3   OH234494   1.935   1.579  17.206 -0.1065 -0.1389  0.1952
 4360TIP3    H134495   1.875   1.634  17.256 -0.6819 -1.7011  1.2853
 4360TIP3    H234496   2.011   1.634  17.190 -0.5260  0.8594  1.5665
 4361TIP3   OH234497   3.447   0.531  16.056 -0.0018 -0.5453 -0.3739
 4361TIP3    H134498   3.530   0.536  16.104 -0.2264 -1.8487  0.1490
 4361TIP3    H234499   3.473   0.513  15.965  0.2524 -2.0172 -0.0180
 4362TIP3   OH234500   4.199   5.808  13.994  0.2842  0.0536 -0.0741
 4362TIP3    H134501   4.179   5.716  13.980  1.2186 -0.4638  1.9031
 4362TIP3    H234502   4.122   5.843  14.040  0.7999 -0.2437  1.0357
 4363TIP3   OH234503   5.010   6.536   4.655  0.1481  0.2811 -0.1938
 4363TIP3    H134504   5.082   6.591   4.685  0.4218  0.1536 -0.6211
 4363TIP3    H234505   5.028   6.520   4.563 -1.6267  2.1643 -0.9127
 4364TIP3   OH234506   4.006   1.512  14.884 -0.6231 -0.1485 -0.5440
 4364TIP3    H134507   3.965   1.541  14.966 -1.0334 -1.5397 -0.2307
 4364TIP3    H234508   4.045   1.591  14.847 -0.9386  0.6102  0.7044
 4365TIP3   OH234509   1.495   4.505  10.560  0.3013 -0.2230 -0.4462
 4365TIP3    H134510   1.566   4.541  10.614 -1.4128 -0.0360  1.7634
 4365TIP3    H234511   1.480   4.571  10.493  0.5015  0.9319  0.6208
 4366TIP3   OH234512   3.370   6.772  13.107  0.3890 -0.2876  0.4097
 4366TIP3    H134513   3.297   6.814  13.153 -1.4254  0.5020 -2.9894
 4366TIP3    H234514   3.342   6.681  13.097  0.8464 -0.4933  1.0416
 4367TIP3   OH234515   0.641   6.062  13.224 -0.2398  0.1399 -0.0279
 4367TIP3    H134516   0.551   6.049  13.197 -0.7142  0.6429  1.2591
 4367TIP3    H234517   0.689   5.988  13.187 -1.3057 -0.4904 -0.1471
 4368TIP3   OH234518   2.907   4.415  13.384 -0.3921 -0.2882  0.3845
 4368TIP3    H134519   2.926   4.443  13.473  0.1964 -0.7286  0.3952
 4368TIP3    H234520   2.955   4.477  13.329 -0.1467 -0.4796  0.3852
 4369TIP3   OH234521   4.582   1.204   1.355  0.6230  0.0640 -0.3457
 4369TIP3    H134522   4.553   1.247   1.435 -1.2634 -2.3111  0.3022
 4369TIP3    H234523   4.657   1.151   1.381 -0.0596 -0.7960 -0.0954
 4370TIP3   OH234524   2.880   0.607  13.041  0.2580 -0.3139  0.3513
 4370TIP3    H134525   2.913   0.619  13.130  0.9138 -0.5543  0.1387
 4370TIP3    H234526   2.838   0.521  13.043  2.8092 -1.6399 -0.3243
 4371TIP3   OH234527   0.093   5.285  17.037  0.2302 -0.6489 -0.4974
 4371TIP3    H134528   0.149   5.264  17.112 -0.9404  0.0368  0.5848
 4371TIP3    H234529   0.057   5.371  17.057 -0.2370 -0.5334 -1.7753
 4372TIP3   OH234530   3.110   4.365  11.675 -0.3270  0.5029 -0.1660
 4372TIP3    H134531   3.043   4.431  11.695  0.6774  1.3183  0.5999
 4372TIP3    H234532   3.061   4.286  11.655 -1.5200  1.1301  0.2256
 4373TIP3   OH234533   1.621   2.304  16.257  0.3731 -0.8702  0.1991
 4373TIP3    H134534   1.626   2.252  16.338 -1.2902 -1.5232 -0.0987
 4373TIP3    H234535   1.654   2.245  16.189  2.3962 -0.0978  0.4686
 4374TIP3   OH234536   2.021   5.978   5.167  0.4779 -0.0762  0.1410
 4374TIP3    H134537   1.958   6.017   5.227  0.1933  0.7742 -0.6953
 4374TIP3    H234538   1.996   5.885   5.163 -0.1311  0.0698  0.5421
 4375TIP3   OH234539   6.195   6.777   2.061 -0.2593 -0.2199  0.4762
 4375TIP3    H134540   6.136   6.826   2.119  0.6006  0.4700  0.7921
 4375TIP3    H234541   6.251   6.844   2.022  0.0487 -0.8228 -0.1263
 4376TIP3   OH234542   0.028   4.329  13.811 -0.0829  0.8095  0.3725
 4376TIP3    H134543   0.093   4.396  13.832  1.4775  0.2652 -2.5032
 4376TIP3    H234544  -0.038   4.376  13.759 -0.4753  0.7093  0.7727
 4377TIP3   OH234545   3.950   6.035  15.117  0.4529  0.3523  0.1076
 4377TIP3    H134546   3.921   6.078  15.198  2.5731  2.3644 -0.1355
 4377TIP3    H234547   4.044   6.019  15.131  0.2546 -1.8185 -0.8797
 4378TIP3   OH234548   2.077   4.426   0.604  0.4605 -0.0943 -0.3588
 4378TIP3    H134549   2.004   4.484   0.582 -0.2648 -0.9504 -0.2405
 4378TIP3    H234550   2.152   4.464   0.558 -0.4203 -0.1757 -1.8956
 4379TIP3   OH234551   4.616   6.326  12.252  0.7154 -0.0027  0.2440
 4379TIP3    H134552   4.574   6.259  12.306  0.0327  0.2813  0.0651
 4379TIP3    H234553   4.569   6.407  12.273  2.0055  0.5573  0.9943
 4380TIP3   OH234554   0.807   0.750  12.122 -0.7490  0.4351  0.2045
 4380TIP3    H134555   0.715   0.774  12.133 -1.0303  0.4098 -1.9414
 4380TIP3    H234556   0.832   0.790  12.039  0.8927 -0.4170  0.2829
 4381TIP3   OH234557   0.441   2.551   4.523 -0.4386  0.3609 -0.1834
 4381TIP3    H134558   0.408   2.500   4.597 -1.1717 -2.7180 -2.5368
 4381TIP3    H234559   0.365   2.598   4.490 -0.5290  0.2740 -0.0998
 4382TIP3   OH234560   0.595   1.639   4.790  0.7017 -0.4820  0.1823
 4382TIP3    H134561   0.576   1.546   4.777  0.1254 -0.2625 -0.5873
 4382TIP3    H234562   0.522   1.684   4.749  0.5683  0.3083  1.2621
 4383TIP3   OH234563   5.578   0.126  11.737 -0.3620 -0.1244 -0.4017
 4383TIP3    H134564   5.545   0.038  11.753 -2.8471  0.5197 -1.7522
 4383TIP3    H234565   5.595   0.128  11.643  1.0649  0.4037 -0.1478
 4384TIP3   OH234566   0.783   3.998  11.611 -0.4922 -0.2743  0.1489
 4384TIP3    H134567   0.839   4.021  11.537  1.0077 -0.6032  1.1478
 4384TIP3    H234568   0.694   4.006  11.578  0.1446  0.4191 -1.4345
 4385TIP3   OH234569   6.550   4.121   3.099 -0.6144 -0.5536 -0.4121
 4385TIP3    H134570   6.523   4.039   3.059 -0.6508 -0.3862 -0.7294
 4385TIP3    H234571   6.570   4.098   3.190 -0.8438 -0.8691 -0.4416
 4386TIP3   OH234572   1.636   0.098  11.538 -0.1708  0.6535 -0.0903
 4386TIP3    H134573   1.593   0.035  11.596 -1.1050  0.3272 -1.1225
 4386TIP3    H234574   1.703   0.047  11.493 -1.3540  0.2211 -1.4027
 4387TIP3   OH234575   0.222   1.232   4.343  0.4922 -0.3837 -0.6731
 4387TIP3    H134576   0.240   1.140   4.361  0.1025 -0.4210 -0.4845
 4387TIP3    H234577   0.292   1.279   4.388  0.5996 -0.5771 -0.6359
 4388TIP3   OH234578   0.660   2.493  10.842  0.3947 -0.0857  0.2041
 4388TIP3    H134579   0.682   2.408  10.805  0.6112  0.0110  0.1133
 4388TIP3    H234580   0.701   2.557  10.784  1.6359  0.0464  1.2100
 4389TIP3   OH234581   0.848   0.964   2.943  0.2085  0.5218  0.0110
 4389TIP3    H134582   0.830   0.889   2.886  0.3869 -0.7475  1.6070
 4389TIP3    H234583   0.813   0.939   3.028  2.9459  1.0228  1.3316
 4390TIP3   OH234584   2.500   3.814   0.672  0.0772  0.1076  0.4691
 4390TIP3    H134585   2.460   3.865   0.743  2.7899 -0.5269  2.5258
 4390TIP3    H234586   2.584   3.858   0.656  1.1691 -1.9854  0.3031
 4391TIP3   OH234587   1.085   1.005  14.158  0.9150 -0.4847  0.4160
 4391TIP3    H134588   1.145   1.046  14.097 -0.3759  1.1847  0.2401
 4391TIP3    H234589   1.142   0.961  14.222  2.2947  0.3289 -0.2366
 4392TIP3   OH234590   4.249   3.526  14.394 -0.2310 -0.0317 -0.3996
 4392TIP3    H134591   4.321   3.588  14.395 -0.6927  0.5240  1.1210
 4392TIP3    H234592   4.239   3.501  14.303  1.9026 -0.1512 -0.6095
 4393TIP3   OH234593   6.099   3.051  15.260 -0.4166  0.5184  0.5711
 4393TIP3    H134594   6.137   3.095  15.336 -1.8687  1.7457  0.6327
 4393TIP3    H234595   6.026   3.001  15.295  0.7482 -1.3629  0.3791
 4394TIP3   OH234596   6.107   1.203   2.042  0.1890  0.4436 -0.5366
 4394TIP3    H134597   6.169   1.173   1.975 -0.2656  0.7325 -1.0909
 4394TIP3    H234598   6.147   1.282   2.078  0.3496  0.3921 -0.6004
 4395TIP3   OH234599   5.039   3.829   4.893 -0.5366  0.6085  0.3256
 4395TIP3    H134600   4.974   3.824   4.964 -1.5333  3.8831 -0.2782
 4395TIP3    H234601   5.122   3.807   4.935 -1.6509 -1.3046  1.6332
 4396TIP3   OH234602   3.036   3.260  11.862 -0.4827 -0.4889  0.1393
 4396TIP3    H134603   2.966   3.324  11.868  0.5736  0.9160 -2.2240
 4396TIP3    H234604   3.018   3.212  11.781  0.8006 -0.6828 -0.0366
 4397TIP3   OH234605   3.410   1.792  16.341 -0.0562 -0.3123  0.0308
 4397TIP3    H134606   3.495   1.823  16.371  0.4690 -0.7278 -1.0178
 4397TIP3    H234607   3.416   1.794  16.245 -0.4750 -2.4313 -0.0487
 4398TIP3   OH234608   6.652   3.082  11.489 -0.2180  0.4923  0.0076
 4398TIP3    H134609   6.594   3.051  11.559 -0.4525  0.1463 -0.3369
 4398TIP3    H234610   6.614   3.046  11.409 -0.1714  1.2152 -0.3417
 4399TIP3   OH234611   6.674   6.281  11.418 -0.1622 -0.2033  0.2740
 4399TIP3    H134612   6.614   6.316  11.352  0.1763  0.9548  0.5631
 4399TIP3    H234613   6.661   6.337  11.494  1.5946  0.3529  0.1892
 4400TIP3   OH234614   2.201   4.678   4.492  0.0547 -0.0344  0.8853
 4400TIP3    H134615   2.199   4.582   4.487 -0.4314 -0.1842  3.4190
 4400TIP3    H234616   2.205   4.697   4.585  2.2329  2.4074  0.3496
 4401TIP3   OH234617   6.124   4.813  14.800  0.6352  0.4148  0.4977
 4401TIP3    H134618   6.136   4.888  14.858  0.8845 -0.7086  1.9132
 4401TIP3    H234619   6.078   4.748  14.853 -2.0798  0.5834 -1.5483
 4402TIP3   OH234620   0.159   1.839   4.679 -0.2107 -0.2453 -0.4984
 4402TIP3    H134621   0.083   1.895   4.695 -0.5929 -1.3667  1.6942
 4402TIP3    H234622   0.125   1.768   4.625 -0.4913 -0.2140 -0.3649
 4403TIP3   OH234623   4.013   4.153  13.730 -0.3007 -0.8818  0.1722
 4403TIP3    H134624   3.982   4.111  13.650 -0.7516 -0.9732  0.3940
 4403TIP3    H234625   3.989   4.092  13.800  0.7922 -1.1697  0.3002
 4404TIP3   OH234626   3.969   5.172   5.184 -0.3914  0.5292  0.1973
 4404TIP3    H134627   3.990   5.255   5.228  1.0553  0.2935 -0.0156
 4404TIP3    H234628   3.953   5.197   5.093  0.1624  0.5688  0.1066
 4405TIP3   OH234629   5.095   2.436   2.129 -0.0733  0.1357 -0.3826
 4405TIP3    H134630   5.003   2.412   2.133 -0.0512 -0.0253 -0.9136
 4405TIP3    H234631   5.129   2.414   2.216 -0.4909  0.0306 -0.2462
 4406TIP3   OH234632   2.577   2.458  13.741  0.1074  0.0613 -0.1788
 4406TIP3    H134633   2.599   2.366  13.730  0.8975  0.1653  0.4909
 4406TIP3    H234634   2.614   2.482  13.826 -0.9062  0.7504  0.0761
 4407TIP3   OH234635   3.120   0.503  14.809 -0.2069 -0.1619  0.6169
 4407TIP3    H134636   3.135   0.416  14.845 -0.7701 -0.8941 -0.8558
 4407TIP3    H234637   3.201   0.551  14.827  0.6618 -1.4364  0.1987
 4408TIP3   OH234638   6.694   3.041   4.672 -0.2901  0.0477  0.0076
 4408TIP3    H134639   6.607   3.044   4.712  0.0115 -0.5386  0.7249
 4408TIP3    H234640   6.753   3.067   4.743  0.2368 -0.8737 -0.0911
 4409TIP3   OH234641   5.210   1.818   0.685 -0.2621 -0.1590 -0.1909
 4409TIP3    H134642   5.171   1.786   0.604 -1.9212 -0.7513  0.8147
 4409TIP3    H234643   5.297   1.778   0.688 -0.0680  0.1112 -1.8004
 4410TIP3   OH234644   3.880   3.057   4.099  0.4658  0.6486  1.0241
 4410TIP3    H134645   3.950   2.994   4.119  0.4830  0.3366  0.0365
 4410TIP3    H234646   3.839   3.075   4.183  0.6928 -0.4225  1.3730
 4411TIP3   OH234647   0.556   6.214   3.084  0.0105  0.0030 -0.2362
 4411TIP3    H134648   0.526   6.161   3.158 -2.4264  0.1331 -1.0978
 4411TIP3    H234649   0.603   6.152   3.028 -0.1973 -0.6139  0.2597
 4412TIP3   OH234650   4.273   3.861  14.515 -0.1549  0.3861 -0.3403
 4412TIP3    H134651   4.289   3.828  14.603  0.9926  3.6647  0.7558
 4412TIP3    H234652   4.191   3.820  14.488 -0.0743 -1.3306  1.8695
 4413TIP3   OH234653   0.830   4.407   5.354  0.3313  0.6242 -0.0793
 4413TIP3    H134654   0.783   4.465   5.294  0.3517 -0.5551 -1.2613
 4413TIP3    H234655   0.917   4.397   5.315 -0.6854 -2.8193 -1.7420
 4414TIP3   OH234656   1.123   2.668  12.856  0.1752 -0.1642 -0.1798
 4414TIP3    H134657   1.188   2.611  12.815  1.6710  0.4934  1.2164
 4414TIP3    H234658   1.050   2.669  12.795  1.5628 -0.7627 -1.8933
 4415TIP3   OH234659   1.060   6.717  15.830  0.6096 -0.3123 -0.3508
 4415TIP3    H134660   1.096   6.742  15.745  0.8679 -0.3737 -0.2612
 4415TIP3    H234661   1.102   6.776  15.893  0.8711 -0.6641 -0.1942
 4416TIP3   OH234662   3.386   2.691   4.652  0.0461 -0.2673  0.4880
 4416TIP3    H134663   3.390   2.608   4.700 -0.1372 -0.7518 -0.3381
 4416TIP3    H234664   3.469   2.735   4.673 -0.7188  0.2639  2.5756
 4417TIP3   OH234665   5.080   5.491   0.433 -0.3333  0.3621  0.4332
 4417TIP3    H134666   5.173   5.469   0.443  0.8430  4.2470 -0.7094
 4417TIP3    H234667   5.037   5.408   0.414  3.0461 -1.4375  0.2808
 4418TIP3   OH234668   2.985   5.150   6.465  0.8215  1.1199  0.3133
 4418TIP3    H134669   2.927   5.217   6.501 -0.2514 -0.2071  1.1162
 4418TIP3    H234670   2.927   5.075   6.448  2.2040 -0.0672  0.6924
 4419TIP3   OH234671   0.026   4.791  10.650  0.1296  0.1013  0.2000
 4419TIP3    H134672  -0.001   4.755  10.734 -0.1794  0.4697  0.2584
 4419TIP3    H234673   0.013   4.886  10.658 -2.0998 -0.0551 -1.0302
 4420TIP3   OH234674   0.321   0.711   2.345 -0.4008 -0.2620 -0.4601
 4420TIP3    H134675   0.229   0.733   2.331 -0.1846  1.1464  0.2156
 4420TIP3    H234676   0.367   0.795   2.341  0.7368 -0.8351  0.1097
 4421TIP3   OH234677   5.028   0.958   0.822  0.3156  0.4346 -0.2036
 4421TIP3    H134678   4.937   0.944   0.797  0.4119  0.3962 -0.5427
 4421TIP3    H234679   5.032   0.937   0.915 -0.3100  1.7357  0.1224
 4422TIP3   OH234680   4.523   0.085  11.603 -0.3011 -0.3740  0.3976
 4422TIP3    H134681   4.598   0.128  11.562  0.9573 -1.4118  1.5685
 4422TIP3    H234682   4.555   0.057  11.689 -2.1870 -0.3852  1.1199
 4423TIP3   OH234683   3.265   4.508   4.624  0.3605 -0.0175 -0.4700
 4423TIP3    H134684   3.321   4.453   4.569  0.1092  0.4018 -1.1583
 4423TIP3    H234685   3.301   4.499   4.712  0.2679 -1.3461 -0.5653
 4424TIP3   OH234686   6.578   6.355   3.262 -0.4548 -0.0013 -0.5679
 4424TIP3    H134687   6.525   6.412   3.206  0.4776 -0.6347 -2.1127
 4424TIP3    H234688   6.603   6.282   3.206 -1.8514 -2.1244  1.4579
 4425TIP3   OH234689   5.114   4.462  15.085 -0.2108 -0.1153 -0.3760
 4425TIP3    H134690   5.194   4.485  15.038  0.7655 -1.0051  0.8198
 4425TIP3    H234691   5.085   4.545  15.125 -1.1655  0.6851 -2.6870
 4426TIP3   OH234692   1.558   1.735  15.786  0.4008  0.2246 -0.0755
 4426TIP3    H134693   1.586   1.770  15.701 -0.2065  0.2835 -0.2511
 4426TIP3    H234694   1.571   1.807  15.847  2.1704 -0.2481  0.1547
 4427TIP3   OH234695   3.683   0.912   1.764 -0.0963  0.1254  0.5723
 4427TIP3    H134696   3.764   0.862   1.753  0.5374  1.2095  0.2058
 4427TIP3    H234697   3.614   0.850   1.743  0.7342 -0.2825 -1.0616
 4428TIP3   OH234698   6.554   6.003   2.239 -0.0763 -0.1055  0.2409
 4428TIP3    H134699   6.487   6.040   2.297  1.7040  1.6681  1.2292
 4428TIP3    H234700   6.608   5.949   2.296 -0.5115 -1.3134 -0.4930
 4429TIP3   OH234701   2.400   5.673   4.480 -0.5454  0.2387 -0.0773
 4429TIP3    H134702   2.408   5.618   4.402 -1.3378  0.3773 -0.2597
 4429TIP3    H234703   2.312   5.654   4.514 -0.4041  0.5705  0.4824
 4430TIP3   OH234704   0.892   1.647  13.479  0.1185  0.4275 -0.7229
 4430TIP3    H134705   0.863   1.610  13.562  0.0801 -2.2958 -1.8657
 4430TIP3    H234706   0.985   1.666  13.492  0.4880 -1.4238 -0.4865
 4431TIP3   OH234707   6.735   0.341   4.471 -0.5470 -0.0674 -0.4709
 4431TIP3    H134708   6.720   0.318   4.379  1.5374 -0.3179 -0.7871
 4431TIP3    H234709   6.830   0.347   4.478 -0.6197 -1.2779  1.9806
 4432TIP3   OH234710   1.131   4.316  12.683  0.3058  0.4484  0.2980
 4432TIP3    H134711   1.078   4.266  12.745  2.4915  0.0332  1.8921
 4432TIP3    H234712   1.199   4.254  12.655  0.3941  1.1757 -1.1375
 4433TIP3   OH234713   2.596   5.499  14.823  0.4209 -0.1564 -0.1352
 4433TIP3    H134714   2.683   5.480  14.786  0.9849  2.9108 -0.5317
 4433TIP3    H234715   2.540   5.510  14.746 -0.3053 -1.8316  0.1219
 4434TIP3   OH234716   3.403   6.139  11.146  0.0184 -0.3311 -0.4207
 4434TIP3    H134717   3.445   6.218  11.182 -0.7503 -0.6853  1.3034
 4434TIP3    H234718   3.474   6.075  11.140 -0.0067 -0.5520  1.3455
 4435TIP3   OH234719   5.750   0.528   0.668 -0.2451  0.4651 -0.1676
 4435TIP3    H134720   5.708   0.601   0.713  0.6223  0.9308 -0.1133
 4435TIP3    H234721   5.830   0.565   0.630 -0.9986  0.1096 -2.1807
 4436TIP3   OH234722   3.723   3.489  14.009 -0.1999 -0.5719  0.0312
 4436TIP3    H134723   3.754   3.399  14.025 -0.0252 -0.3384  1.0778
 4436TIP3    H234724   3.748   3.536  14.089  0.2475  0.5462 -0.7701
 4437TIP3   OH234725   0.981   3.247  13.084 -0.1392  0.3089  0.1864
 4437TIP3    H134726   0.914   3.193  13.042 -0.2457  0.4670  0.1549
 4437TIP3    H234727   0.936   3.285  13.160 -0.2965  1.0232 -0.2657
 4438TIP3   OH234728   1.249   3.945   3.487  0.1572 -0.5580 -0.1372
 4438TIP3    H134729   1.178   4.009   3.485  0.1736 -0.5792 -1.3062
 4438TIP3    H234730   1.327   3.994   3.462  0.4893 -0.6329  0.7278
 4439TIP3   OH234731   4.881   4.263   0.282  0.4698  0.3821 -0.0759
 4439TIP3    H134732   4.901   4.171   0.268  2.3545  0.9065 -1.0251
 4439TIP3    H234733   4.953   4.296   0.334 -0.9949  0.9936  1.6256
 4440TIP3   OH234734   6.389   2.069  17.127  0.4237 -0.4866 -0.6054
 4440TIP3    H134735   6.362   2.074  17.219  0.1526  1.7482 -0.7688
 4440TIP3    H234736   6.457   2.002  17.125 -1.5855 -2.6508  0.7089
 4441TIP3   OH234737   4.447   6.124   1.610  0.6388  0.3489 -0.2841
 4441TIP3    H134738   4.504   6.199   1.627  0.6620  0.4835 -0.9377
 4441TIP3    H234739   4.379   6.129   1.677  1.4415  0.1411  0.5471
 4442TIP3   OH234740   4.208   0.248   4.404 -0.5135 -0.0503 -0.2904
 4442TIP3    H134741   4.180   0.255   4.495 -2.8809 -0.1939 -0.9617
 4442TIP3    H234742   4.223   0.339   4.377 -1.1299  0.1013 -0.1362
 4443TIP3   OH234743   4.724   1.404   6.227 -0.3602  0.4620  0.1195
 4443TIP3    H134744   4.794   1.451   6.271  0.3051 -0.7711  0.3745
 4443TIP3    H234745   4.722   1.441   6.139  0.6762  0.4341  0.0794
 4444TIP3   OH234746   1.272   2.985  13.418 -0.2054 -0.0350 -0.0877
 4444TIP3    H134747   1.229   3.025  13.494  0.8881  1.2425 -0.1223
 4444TIP3    H234748   1.217   3.009  13.343 -0.6467 -0.3099  0.1462
 4445TIP3   OH234749   3.418   5.799   3.615  0.1273  0.0740  0.0906
 4445TIP3    H134750   3.457   5.753   3.690  0.1973  0.6917  0.4374
 4445TIP3    H234751   3.468   5.767   3.539  1.4217  0.9616  0.5487
 4446TIP3   OH234752   6.101   4.403  10.977 -0.1404  0.0017 -0.1408
 4446TIP3    H134753   6.184   4.356  10.988 -0.5008 -0.3743  1.0614
 4446TIP3    H234754   6.040   4.357  11.035 -0.9792  0.7751 -0.4064
 4447TIP3   OH234755   1.581   4.426  12.674  0.2090 -0.3719 -0.2704
 4447TIP3    H134756   1.630   4.422  12.591  0.7009  0.3909 -0.0223
 4447TIP3    H234757   1.510   4.488  12.657 -0.1689 -0.8261 -0.3635
 4448TIP3   OH234758   0.960   4.712   2.827 -0.5076 -0.9767  0.7411
 4448TIP3    H134759   1.004   4.657   2.891 -2.3069 -0.1566  2.7481
 4448TIP3    H234760   0.869   4.686   2.831 -0.5888 -1.2160 -1.8567
 4449TIP3   OH234761   3.045   1.470  14.951 -0.6022 -0.0088  0.3293
 4449TIP3    H134762   3.031   1.561  14.927  0.8700 -0.0807 -0.8608
 4449TIP3    H234763   3.012   1.420  14.876 -0.0240 -0.3942  0.3261
 4450TIP3   OH234764   1.989   0.008   2.809 -0.7490 -0.0625 -0.1571
 4450TIP3    H134765   2.028  -0.079   2.799  0.3999  0.2894  1.0882
 4450TIP3    H234766   1.993   0.046   2.722  0.2039 -0.6658 -0.3872
 4451TIP3   OH234767   3.855   1.703  13.629  0.1611  0.4758  0.2367
 4451TIP3    H134768   3.814   1.655  13.557  1.8405  1.4768 -1.4159
 4451TIP3    H234769   3.919   1.761  13.587  2.6312 -0.3786  2.6577
 4452TIP3   OH234770   5.382   6.523   4.556 -0.3917  0.5832  0.0793
 4452TIP3    H134771   5.396   6.429   4.547 -1.1674  0.5728 -1.2591
 4452TIP3    H234772   5.469   6.559   4.572 -0.3385 -0.5525  2.6194
 4453TIP3   OH234773   4.401   6.526  12.947  0.2011 -0.6908 -0.3509
 4453TIP3    H134774   4.440   6.480  13.021  1.3742 -1.1545 -1.2305
 4453TIP3    H234775   4.462   6.509  12.874 -0.9429 -0.2750 -1.4156
 4454TIP3   OH234776   6.611   1.407  10.787  0.0302 -0.7148 -0.2115
 4454TIP3    H134777   6.538   1.380  10.732 -0.3592  0.0956 -0.1090
 4454TIP3    H234778   6.687   1.402  10.730 -0.1070 -1.5218 -0.3346
 4455TIP3   OH234779   3.512   3.561   2.278 -0.2512  0.1335  0.2921
 4455TIP3    H134780   3.432   3.546   2.227  0.6713 -0.6683 -0.9603
 4455TIP3    H234781   3.565   3.620   2.224  1.5239 -2.1664 -0.6036
 4456TIP3   OH234782   2.831   6.310  13.413  0.0289  0.1749  0.4098
 4456TIP3    H134783   2.746   6.278  13.384  0.6142 -1.8785  0.8855
 4456TIP3    H234784   2.892   6.238  13.393  1.3577  0.9407  1.6172
 4457TIP3   OH234785   2.072   1.190  12.641 -0.2106 -0.3001 -0.3808
 4457TIP3    H134786   2.063   1.099  12.667 -1.6471  0.0511  0.4079
 4457TIP3    H234787   2.167   1.205  12.637  0.0501 -0.9010  2.8061
 4458TIP3   OH234788   3.998   6.083  11.464  0.2807 -0.1267 -0.3300
 4458TIP3    H134789   4.057   6.142  11.510  0.6450  0.6981 -1.8244
 4458TIP3    H234790   3.922   6.137  11.442 -0.5211 -0.8819  0.5445
 4459TIP3   OH234791   2.975   2.095   4.879 -0.3670 -0.0496  0.4306
 4459TIP3    H134792   2.920   2.162   4.920 -1.3981 -2.2671  2.7559
 4459TIP3    H234793   2.914   2.025   4.855  0.8532 -0.6459 -1.0129
 4460TIP3   OH234794   2.513   6.354  14.872  0.3301 -0.4247  0.4429
 4460TIP3    H134795   2.462   6.359  14.953  0.1888 -1.1856  0.4094
 4460TIP3    H234796   2.574   6.428  14.877  0.2107 -0.3696  1.1692
 4461TIP3   OH234797   1.143   3.610  16.319 -0.2575 -0.0848  0.0798
 4461TIP3    H134798   1.082   3.655  16.261 -2.5556 -2.2586  0.6815
 4461TIP3    H234799   1.088   3.573  16.388  1.9971 -0.4856  1.7444
 4462TIP3   OH234800   1.795   3.297   3.558  0.3155 -0.1857 -0.4099
 4462TIP3    H134801   1.872   3.268   3.608 -0.9215 -1.4149  0.8124
 4462TIP3    H234802   1.749   3.356   3.617  0.5200  0.8643 -1.2912
 4463TIP3   OH234803   0.661   0.444  11.939  0.6887  0.1269 -0.0413
 4463TIP3    H134804   0.571   0.476  11.948  0.5418 -0.7110  1.6808
 4463TIP3    H234805   0.653   0.362  11.891  0.4508 -0.3233  0.7626
 4464TIP3   OH234806   2.077   2.053   0.945  0.3746 -0.1676 -0.6605
 4464TIP3    H134807   2.045   2.135   0.907 -0.3699 -0.7118 -1.2364
 4464TIP3    H234808   2.034   2.048   1.031  0.4610  0.0731 -0.6032
 4465TIP3   OH234809   2.759   3.676   2.538 -0.1815  0.1277  0.5482
 4465TIP3    H134810   2.669   3.697   2.565 -0.6461 -0.5540 -0.4532
 4465TIP3    H234811   2.784   3.747   2.480  0.0315  0.4558  1.0340
 4466TIP3   OH234812   2.769   2.521  16.571  0.0718 -0.1431  0.0816
 4466TIP3    H134813   2.853   2.487  16.542 -0.2168 -0.3858 -0.4855
 4466TIP3    H234814   2.758   2.603  16.523 -0.0275 -0.1284  0.1271
 4467TIP3   OH234815   3.606   6.443  10.621 -0.5650  0.1596  0.2888
 4467TIP3    H134816   3.614   6.537  10.636  0.3753 -0.0169  0.9342
 4467TIP3    H234817   3.661   6.425  10.545  1.9580 -0.3754  2.1656
 4468TIP3   OH234818   6.576   6.241  11.825  0.7656 -0.0227  0.3248
 4468TIP3    H134819   6.633   6.316  11.842 -1.8140  1.4200  3.2617
 4468TIP3    H234820   6.523   6.267  11.750 -0.1080  1.1317  1.3249
 4469TIP3   OH234821   5.727   0.876  16.560  0.1734 -0.0179  0.3382
 4469TIP3    H134822   5.799   0.881  16.622  0.6435 -0.2087 -0.1875
 4469TIP3    H234823   5.657   0.927  16.600  0.5595  0.0676  0.9073
 4470TIP3   OH234824   2.226   4.093   6.660 -0.1104  0.4413  0.1687
 4470TIP3    H134825   2.315   4.060   6.667 -0.8045 -1.6492 -0.6593
 4470TIP3    H234826   2.172   4.028   6.706 -1.4215  0.7838 -0.8490
 4471TIP3   OH234827   4.731   0.342   4.804 -0.8262  0.0836  0.2065
 4471TIP3    H134828   4.803   0.405   4.813  0.3429 -1.2153 -0.0264
 4471TIP3    H234829   4.681   0.374   4.729  0.2032  0.3011 -0.3934
 4472TIP3   OH234830   6.039   4.689  13.665  0.3641 -0.1804 -0.4086
 4472TIP3    H134831   6.035   4.593  13.663  0.6296 -0.2111  0.3803
 4472TIP3    H234832   5.994   4.712  13.746  0.5727  0.3493 -0.4477
 4473TIP3   OH234833   4.561   3.504  11.336 -0.1893 -0.5020 -1.0601
 4473TIP3    H134834   4.471   3.531  11.350  0.1737  0.5203 -0.6801
 4473TIP3    H234835   4.560   3.462  11.250 -0.4453  2.2746 -2.4721
 4474TIP3   OH234836   1.901   3.373  13.681 -0.6150  0.0477 -0.1048
 4474TIP3    H134837   1.850   3.453  13.694 -0.5143  0.0571  0.2456
 4474TIP3    H234838   1.979   3.402  13.633 -0.3359  0.2469  0.4639
 4475TIP3   OH234839   6.508   3.631  14.050 -0.2530  0.0121  0.0932
 4475TIP3    H134840   6.542   3.687  14.119  2.5997 -1.5059 -0.0024
 4475TIP3    H234841   6.547   3.545  14.067 -3.1409 -1.5245 -0.7737
 4476TIP3   OH234842   5.241   1.837   4.030  0.1264 -0.3625  0.3745
 4476TIP3    H134843   5.240   1.918   3.980 -0.5163  1.1805  2.8116
 4476TIP3    H234844   5.171   1.784   3.992  0.1563  0.4682 -0.8443
 4477TIP3   OH234845   3.096   0.611   5.342  0.3990  0.2484 -0.1945
 4477TIP3    H134846   3.033   0.572   5.282  0.3947 -0.7336  0.4531
 4477TIP3    H234847   3.181   0.579   5.312  0.4882  0.5921 -0.3119
 4478TIP3   OH234848   2.981   1.519  16.683  0.5893  0.2040 -0.4424
 4478TIP3    H134849   3.000   1.609  16.657  0.3072 -0.3487 -2.6634
 4478TIP3    H234850   3.065   1.473  16.677  0.6776  0.2443  0.4141
 4479TIP3   OH234851   1.783   0.364   1.091  0.2775 -0.5817 -0.0731
 4479TIP3    H134852   1.780   0.274   1.060  0.0646 -0.6792  0.2376
 4479TIP3    H234853   1.764   0.416   1.013 -1.4512 -0.8800  0.1459
 4480TIP3   OH234854   3.259   3.158  14.316 -0.3985 -0.1528  0.1478
 4480TIP3    H134855   3.322   3.159  14.243 -0.5016  0.8336  0.0620
 4480TIP3    H234856   3.288   3.086  14.372 -0.7279 -1.3828 -1.2307
 4481TIP3   OH234857   1.702   2.618   2.333 -0.6125  0.1957  0.0547
 4481TIP3    H134858   1.677   2.531   2.366  0.2933  0.3264  1.1246
 4481TIP3    H234859   1.622   2.652   2.293 -0.7361 -1.5176 -1.2333
 4482TIP3   OH234860   4.085   5.052   4.779  0.1990  0.5124  0.3183
 4482TIP3    H134861   4.079   4.994   4.703 -2.1605  0.0516  0.8184
 4482TIP3    H234862   4.116   5.135   4.743 -2.7571  0.9053 -1.5374
 4483TIP3   OH234863   4.374   5.791  16.292 -0.2954  0.8014 -0.7274
 4483TIP3    H134864   4.313   5.824  16.226 -1.9567 -1.0385 -0.1492
 4483TIP3    H234865   4.324   5.790  16.374 -0.0907 -2.2846 -0.5616
 4484TIP3   OH234866   6.376   5.616   5.969  0.3839  0.1551 -0.4663
 4484TIP3    H134867   6.443   5.576   6.024 -1.0244 -1.6791 -0.0158
 4484TIP3    H234868   6.337   5.542   5.923 -0.1346  1.3974 -2.0806
 4485TIP3   OH234869   2.343   4.919  16.748 -0.0861  0.4286  0.2675
 4485TIP3    H134870   2.325   4.833  16.710 -0.9700  0.6285  0.2167
 4485TIP3    H234871   2.270   4.935  16.808  0.6359  0.6765  1.1008
 4486TIP3   OH234872   5.897   3.338   2.397 -0.0662  0.4846  0.0447
 4486TIP3    H134873   5.953   3.360   2.472  1.7794  0.7482 -1.3698
 4486TIP3    H234874   5.818   3.391   2.410  0.9235  1.7929  0.9392
 4487TIP3   OH234875   4.874   4.211   2.192  0.2319  0.2762 -0.1307
 4487TIP3    H134876   4.904   4.300   2.176 -3.0112  1.2590 -1.1055
 4487TIP3    H234877   4.816   4.218   2.268  0.0490 -1.0367 -0.1302
 4488TIP3   OH234878   5.391   0.685  15.675  0.3373  0.1467  0.3095
 4488TIP3    H134879   5.414   0.739  15.751  0.3841  0.5866 -0.0153
 4488TIP3    H234880   5.404   0.743  15.600 -0.5743 -0.0129  0.0239
 4489TIP3   OH234881   6.611   0.126   4.683 -0.1406  0.4833 -0.5726
 4489TIP3    H134882   6.523   0.158   4.665 -0.5405 -0.7836 -0.9162
 4489TIP3    H234883   6.668   0.199   4.658 -1.0228  0.8497 -1.5816
 4490TIP3   OH234884   5.476   4.441   3.865 -0.0427  0.6056 -0.1387
 4490TIP3    H134885   5.430   4.360   3.841 -0.6915  0.6146  1.0394
 4490TIP3    H234886   5.421   4.481   3.933  0.4259  1.8852 -0.4839
 4491TIP3   OH234887   1.077   1.684  13.093 -0.1046 -0.0471 -0.4644
 4491TIP3    H134888   1.060   1.598  13.052  1.4923 -0.4060 -0.3944
 4491TIP3    H234889   0.990   1.724  13.101 -0.6964 -0.9592 -2.0493
 4492TIP3   OH234890   6.699   5.612   4.451  0.0451  0.2015 -0.4174
 4492TIP3    H134891   6.694   5.572   4.364  0.7095 -0.5318 -0.1307
 4492TIP3    H234892   6.616   5.589   4.493 -0.2993  0.6054 -0.8796
 4493TIP3   OH234893   5.011   4.606   0.689 -0.4465 -0.0756 -0.4187
 4493TIP3    H134894   4.986   4.684   0.639  0.5602  0.7711  0.3844
 4493TIP3    H234895   5.073   4.638   0.754 -1.3601 -1.2438  1.0676
 4494TIP3   OH234896   5.946   3.211   2.816  0.0578  0.1178 -0.3297
 4494TIP3    H134897   5.949   3.117   2.794  1.2896  0.0180  0.2573
 4494TIP3    H234898   5.858   3.238   2.789 -0.7085 -1.4614  0.5140
 4495TIP3   OH234899   4.393   1.626   1.774 -0.1051  0.0037  0.0042
 4495TIP3    H134900   4.469   1.574   1.747 -1.2169 -1.2806 -0.7493
 4495TIP3    H234901   4.371   1.593   1.861 -1.6730 -1.8476 -1.0452
 4496TIP3   OH234902   1.343   1.418  13.011  0.4183 -0.2073 -0.0350
 4496TIP3    H134903   1.271   1.425  13.074  0.2487 -2.1424  0.0170
 4496TIP3    H234904   1.313   1.467  12.935 -0.4981 -0.1080  0.3852
 4497TIP3   OH234905   4.903   2.592   3.891  0.0408 -0.0482 -0.1322
 4497TIP3    H134906   4.922   2.621   3.801 -1.7938 -2.1897 -1.2567
 4497TIP3    H234907   4.940   2.504   3.896 -0.1865 -0.0739  1.1186
 4498TIP3   OH234908   2.021   3.243  17.027  0.3863  0.3979 -0.0187
 4498TIP3    H134909   1.984   3.169  16.978  0.0876  2.6025 -3.3404
 4498TIP3    H234910   1.970   3.318  16.997  1.3716  2.1074  2.4995
 4499TIP3   OH234911   4.235   3.132   2.847 -0.1029  0.3124 -0.4118
 4499TIP3    H134912   4.277   3.206   2.891  0.8618  0.3456 -1.3582
 4499TIP3    H234913   4.141   3.153   2.849 -0.1123  0.1550  1.8700
 4500TIP3   OH234914   0.677   4.469  14.952 -0.1982 -0.0451 -0.3433
 4500TIP3    H134915   0.661   4.412  15.026 -1.7262  1.4314  0.5166
 4500TIP3    H234916   0.754   4.433  14.909  1.1024 -0.5405  2.3362
 4501TIP3   OH234917   0.018   6.073  13.741  0.1133 -0.1818  0.7812
 4501TIP3    H134918  -0.024   6.077  13.655 -0.5330 -0.6777  1.0677
 4501TIP3    H234919   0.000   5.984  13.772  3.0717 -1.0680  0.0718
 4502TIP3   OH234920   0.417   3.731  12.922  0.4466 -0.1083  0.7750
 4502TIP3    H134921   0.451   3.813  12.887  1.5637 -2.1583 -3.2378
 4502TIP3    H234922   0.486   3.700  12.982  2.8111 -0.9366 -2.2333
 4503TIP3   OH234923   5.731   3.311  11.885 -0.3120 -0.9317  0.0422
 4503TIP3    H134924   5.678   3.268  11.818 -1.9727  0.4596  0.4284
 4503TIP3    H234925   5.784   3.375  11.837  0.1913 -1.5341 -0.2082
 4504TIP3   OH234926   5.614   5.562  17.088 -0.0373  0.5793 -0.4760
 4504TIP3    H134927   5.535   5.616  17.084 -0.6287 -0.1361  0.9809
 4504TIP3    H234928   5.650   5.565  17.000 -1.1145  1.7759 -0.8937
 4505TIP3   OH234929   5.494   5.852   1.631 -0.1953  0.0693  0.0911
 4505TIP3    H134930   5.586   5.844   1.654 -0.4182 -0.2341  0.8975
 4505TIP3    H234931   5.481   5.945   1.613  0.7153 -0.1645 -2.0029
 4506TIP3   OH234932   1.890   5.545  16.557 -0.0768 -0.4067 -0.3402
 4506TIP3    H134933   1.809   5.514  16.597 -0.5990 -0.0637 -1.1173
 4506TIP3    H234934   1.941   5.465  16.542  0.1599 -0.5301  1.0687
 4507TIP3   OH234935   1.025   6.741   0.543  0.3135 -0.9637  0.3425
 4507TIP3    H134936   1.102   6.705   0.587 -0.0964  0.0317  1.8906
 4507TIP3    H234937   0.954   6.681   0.567 -0.0847  0.0596  1.7692
 4508TIP3   OH234938   3.427   1.652  16.644  0.6266 -0.1927 -0.6326
 4508TIP3    H134939   3.469   1.658  16.730  1.0256  0.8609 -0.8814
 4508TIP3    H234940   3.494   1.685  16.583 -0.5949  1.6341 -1.0289
 4509TIP3   OH234941   2.408   3.227   0.683 -0.1020 -0.1859  0.0976
 4509TIP3    H134942   2.422   3.308   0.634  1.3129 -0.7679 -0.4965
 4509TIP3    H234943   2.495   3.189   0.692 -0.3928 -0.3629  2.6236
 4510TIP3   OH234944   5.256   5.162   3.042  0.2885 -0.2843  0.5442
 4510TIP3    H134945   5.183   5.167   2.981  0.0071  1.1075  1.0029
 4510TIP3    H234946   5.216   5.140   3.126  0.5878 -1.3011  0.4309
 4511TIP3   OH234947   0.322   3.709   2.381 -0.2163 -0.0550  0.3120
 4511TIP3    H134948   0.296   3.669   2.465 -1.7795 -0.0148 -0.1225
 4511TIP3    H234949   0.391   3.771   2.404  0.1357 -0.8339  1.4169
 4512TIP3   OH234950   4.251   4.586  14.911  0.2419  0.4566 -0.2984
 4512TIP3    H134951   4.184   4.649  14.883 -0.6369 -0.3558 -0.0356
 4512TIP3    H234952   4.287   4.624  14.992  0.2483  1.0002 -0.5547
 4513TIP3   OH234953   3.277   0.445   5.745 -0.3034 -0.0974 -0.0584
 4513TIP3    H134954   3.289   0.391   5.667 -0.1709  0.1753 -0.2265
 4513TIP3    H234955   3.352   0.422   5.801  0.8601  1.3724 -0.9779
 4514TIP3   OH234956   5.018   0.476   4.279 -0.2450  0.0832  0.1254
 4514TIP3    H134957   4.962   0.404   4.250  0.9933 -0.8596  0.0451
 4514TIP3    H234958   5.107   0.444   4.265  0.3187  1.6444  0.0557
 4515TIP3   OH234959   1.377   5.257   3.829 -0.1908  0.5064 -0.2491
 4515TIP3    H134960   1.373   5.314   3.752  0.2060  0.4759 -0.2922
 4515TIP3    H234961   1.459   5.281   3.872  0.7619 -1.1383 -1.1221
 4516TIP3   OH234962   1.687   1.419   6.140  0.3183  0.4639 -0.4605
 4516TIP3    H134963   1.773   1.459   6.155  0.6114 -0.2402 -0.2589
 4516TIP3    H234964   1.698   1.371   6.057  0.4046 -0.4157  0.0576
 4517TIP3   OH234965   0.921   0.185   5.523  0.3398  0.4290 -0.4636
 4517TIP3    H134966   0.832   0.209   5.500  0.3344  0.2037 -0.6827
 4517TIP3    H234967   0.932   0.214   5.613 -0.2184 -0.2814 -0.1692
 4518TIP3   OH234968   6.328   2.073  12.230 -0.1650 -0.1447 -0.0559
 4518TIP3    H134969   6.414   2.098  12.198 -1.1702  1.8434 -1.2543
 4518TIP3    H234970   6.281   2.045  12.152 -1.1143  0.2761  0.3592
 4519TIP3   OH234971   0.332   4.823   2.155 -0.1682 -0.0346  0.7175
 4519TIP3    H134972   0.305   4.759   2.089 -2.1635 -0.6387  2.0624
 4519TIP3    H234973   0.384   4.774   2.217  0.2786  0.1631  0.5003
 4520TIP3   OH234974   5.208   0.512  14.669  0.5640  0.1156  0.0912
 4520TIP3    H134975   5.117   0.520  14.700  0.8933  0.5769  0.9724
 4520TIP3    H234976   5.233   0.601  14.645  1.0214  0.1091  0.5397
 4521TIP3   OH234977   4.995   6.611   5.966 -0.4867  0.7363  0.0590
 4521TIP3    H134978   5.015   6.634   6.056  1.6759  0.7931 -0.4023
 4521TIP3    H234979   4.962   6.692   5.927  0.8339  1.3423  0.1780
 4522TIP3   OH234980   5.953   0.267   1.745 -0.4246  0.5380  0.1806
 4522TIP3    H134981   6.005   0.255   1.665  0.6331  0.1009  0.9276
 4522TIP3    H234982   5.862   0.255   1.716 -0.1187  1.3801 -1.1450
 4523TIP3   OH234983   2.673   1.701   5.808  0.3897  0.1063  0.0097
 4523TIP3    H134984   2.768   1.695   5.802  0.4411 -1.3059  1.9628
 4523TIP3    H234985   2.656   1.791   5.838  1.2987 -0.6687  2.9813
 4524TIP3   OH234986   6.612   2.132   0.112 -0.4931  0.0137 -0.1736
 4524TIP3    H134987   6.632   2.107   0.202  1.1017  0.4173 -0.3943
 4524TIP3    H234988   6.623   2.227   0.111 -1.6722  0.1497 -0.5167
 4525TIP3   OH234989   2.544   2.965   0.436  0.2945  0.0401  0.2860
 4525TIP3    H134990   2.450   2.981   0.443  0.6703  2.5693 -0.0375
 4525TIP3    H234991   2.577   2.973   0.526  0.2435 -0.7580  0.3858
 4526TIP3   OH234992   2.835   5.261   2.884  0.2791  0.1072 -0.1827
 4526TIP3    H134993   2.832   5.343   2.835 -0.3469  0.0763 -0.1944
 4526TIP3    H234994   2.769   5.270   2.952  0.1949 -0.3929 -0.1934
 4527TIP3   OH234995   3.111   1.509  12.138 -0.8078 -0.0135 -0.1032
 4527TIP3    H134996   3.175   1.580  12.142 -1.9924  1.0693  0.0773
 4527TIP3    H234997   3.026   1.553  12.143 -1.6122 -1.3110 -1.7074
 4528TIP3   OH234998   6.326   6.632   1.450  0.3131 -0.3137  0.2046
 4528TIP3    H134999   6.365   6.693   1.387 -2.7492  1.1933 -0.3126
 4528TIP3    H235000   6.346   6.671   1.535  2.4874 -1.1494  0.1029
 4529TIP3   OH235001   6.370   6.347   1.505 -0.1343 -0.1184  0.7165
 4529TIP3    H135002   6.344   6.438   1.490 -1.2300 -0.3594  1.0712
 4529TIP3    H235003   6.420   6.350   1.587  0.3642  0.2567  0.3986
 4530TIP3   OH235004   1.921   5.332  10.622 -0.2436 -0.1403  0.3407
 4530TIP3    H135005   1.858   5.398  10.595 -0.5913 -0.5770  0.0882
 4530TIP3    H235006   1.981   5.324  10.548 -1.0227 -1.1209 -0.1962
 4531TIP3   OH235007   2.465   0.161   0.332  0.1259  0.0052  0.2655
 4531TIP3    H135008   2.421   0.234   0.375 -0.2222  0.3892 -0.7362
 4531TIP3    H235009   2.425   0.083   0.371 -2.3681  0.3313 -1.5102
 4532TIP3   OH235010   0.646   2.710   2.037  0.6685 -0.2769  0.1298
 4532TIP3    H135011   0.582   2.651   2.078  1.2107 -0.9416  0.0315
 4532TIP3    H235012   0.688   2.754   2.111  0.6824 -0.4577  0.2307
 4533TIP3   OH235013   3.674   1.708   2.509 -0.5342  0.5341 -0.3032
 4533TIP3    H135014   3.766   1.732   2.491 -0.2463  0.6960  1.3386
 4533TIP3    H235015   3.675   1.613   2.517 -0.7510  0.4171 -1.6074
 4534TIP3   OH235016   3.584   5.389  17.090  0.3858  0.3015 -0.0149
 4534TIP3    H135017   3.603   5.350  17.005  1.3249  2.4752 -0.8618
 4534TIP3    H235018   3.507   5.444  17.075 -0.8641 -1.1166  1.1187
 4535TIP3   OH235019   2.278   5.808  13.341 -0.1250 -0.0658  0.0536
 4535TIP3    H135020   2.192   5.770  13.322 -0.5981 -0.1163  2.1625
 4535TIP3    H235021   2.338   5.764  13.281 -1.3013 -1.3208 -0.2146
 4536TIP3   OH235022   6.502   2.478   5.903 -0.4580 -0.0153 -0.1407
 4536TIP3    H135023   6.424   2.531   5.891 -0.9967 -0.6937  0.2954
 4536TIP3    H235024   6.543   2.513   5.982 -1.3794 -0.9081  0.7552
 4537TIP3   OH235025   1.588   3.275  13.815 -0.3228 -0.2754 -0.5099
 4537TIP3    H135026   1.517   3.337  13.797 -1.3773 -1.2870  0.1364
 4537TIP3    H235027   1.654   3.327  13.861 -0.0460  0.9929 -2.2734
 4538TIP3   OH235028   3.126   6.397  15.575  0.3233  0.0051 -0.1954
 4538TIP3    H135029   3.123   6.491  15.559  0.0916 -0.1014 -0.7872
 4538TIP3    H235030   3.043   6.364  15.540 -0.1678 -0.2387  1.1915
 4539TIP3   OH235031   5.141   0.827  15.829 -0.1620 -0.1971  0.2483
 4539TIP3    H135032   5.209   0.771  15.792 -0.5454 -0.6876  0.2701
 4539TIP3    H235033   5.093   0.859  15.753 -0.6919 -0.8722  0.2903
 4540TIP3   OH235034   3.564   3.129   5.254  0.5683  0.3009 -0.1371
 4540TIP3    H135035   3.620   3.057   5.281  0.8474  0.5245 -0.1241
 4540TIP3    H235036   3.487   3.122   5.311  0.5446 -0.0576 -0.2168
 4541TIP3   OH235037   6.195   5.800  16.624 -0.6366 -0.2461  0.7162
 4541TIP3    H135038   6.100   5.789  16.621 -0.4458 -1.6047 -3.3028
 4541TIP3    H235039   6.211   5.878  16.571  0.6002 -1.2887 -0.4718
 4542TIP3   OH235040   1.398   1.960  11.906 -0.6578 -0.0852  0.3784
 4542TIP3    H135041   1.359   2.024  11.966  0.0068 -0.4413  1.2064
 4542TIP3    H235042   1.473   2.006  11.867 -2.0269  0.6838 -1.4002
 4543TIP3   OH235043   1.980   2.837  13.189  0.2053  0.1366  0.4350
 4543TIP3    H135044   1.912   2.823  13.255  0.7916  0.4664  1.1245
 4543TIP3    H235045   2.002   2.930  13.198 -0.2395  0.3622 -0.7481
 4544TIP3   OH235046   6.573   1.471  13.253 -0.1304 -0.1135 -0.8533
 4544TIP3    H135047   6.556   1.501  13.164  0.7257 -2.7706 -1.9473
 4544TIP3    H235048   6.666   1.488  13.267  0.0366 -0.9357 -0.9562
 4545TIP3   OH235049   4.105   6.295   4.089 -0.2105  0.3628 -0.3373
 4545TIP3    H135050   4.175   6.267   4.148  0.4650  1.2608 -0.6918
 4545TIP3    H235051   4.025   6.289   4.142  0.1951 -0.2438  0.2085
 4546TIP3   OH235052   1.685   1.611   4.818  0.0655 -0.2146 -0.1614
 4546TIP3    H135053   1.669   1.659   4.900  0.2112  0.9127 -0.7732
 4546TIP3    H235054   1.614   1.639   4.760 -0.3260 -1.4017 -0.2548
 4547TIP3   OH235055   3.561   1.073  16.966 -0.1275 -0.2637  0.6968
 4547TIP3    H135056   3.627   1.078  16.897 -0.7121  0.2550  0.1659
 4547TIP3    H235057   3.485   1.032  16.924 -0.2591 -0.5530  1.2130
 4548TIP3   OH235058   2.480   3.684  12.377 -0.2671 -0.2295 -0.2726
 4548TIP3    H135059   2.537   3.635  12.436 -0.0163 -0.2873 -0.5608
 4548TIP3    H235060   2.535   3.703  12.301  0.3813  2.5563  0.8222
 4549TIP3   OH235061   1.179   3.939   6.343 -0.5186  0.7929 -0.2708
 4549TIP3    H135062   1.274   3.947   6.348 -0.6056  0.6195  2.0712
 4549TIP3    H235063   1.147   4.029   6.348 -0.5644  0.6916  1.2705
 4550TIP3   OH235064   4.554   3.231   4.239 -0.2382  0.2750 -0.3506
 4550TIP3    H135065   4.582   3.290   4.309 -0.3699 -1.0361  0.8272
 4550TIP3    H235066   4.460   3.219   4.253 -0.1309 -0.5536 -0.3161
 4551TIP3   OH235067   2.698   5.521   2.738 -0.0990 -1.0194 -0.1688
 4551TIP3    H135068   2.779   5.531   2.789 -0.0796 -0.9602 -0.2104
 4551TIP3    H235069   2.634   5.575   2.785  0.2916  0.1899 -1.0096
 4552TIP3   OH235070   4.622   5.245  16.995 -0.0353  0.0872  0.0569
 4552TIP3    H135071   4.552   5.180  16.987  0.0428  0.0737 -0.5294
 4552TIP3    H235072   4.619   5.295  16.914 -0.5929  1.3311  0.8187
 4553TIP3   OH235073   2.778   3.925  11.438  0.4958  0.0303  0.5107
 4553TIP3    H135074   2.748   3.856  11.379  0.6593  1.0097 -0.7497
 4553TIP3    H235075   2.762   3.891  11.525  0.4367 -1.5316 -0.1018
 4554TIP3   OH235076   1.806   6.472   4.698  0.3630  0.0520  0.2782
 4554TIP3    H135077   1.867   6.532   4.740  0.0685  1.2003 -0.9316
 4554TIP3    H235078   1.861   6.403   4.661  0.8425  0.5767  0.0218
 4555TIP3   OH235079   3.966   1.686   2.456  0.1621  0.2824 -0.0486
 4555TIP3    H135080   3.946   1.648   2.370 -1.1957  0.7923  0.0244
 4555TIP3    H235081   4.054   1.723   2.447 -0.4262  1.3340 -1.5614
 4556TIP3   OH235082   1.338   1.210  13.240  0.1765  0.4902  0.0757
 4556TIP3    H135083   1.418   1.217  13.292  0.3302 -1.6641  0.2034
 4556TIP3    H235084   1.268   1.241  13.298  0.8255  1.6411  0.2386
 4557TIP3   OH235085   3.945   6.570   3.076  0.6581 -0.3500 -0.3005
 4557TIP3    H135086   3.913   6.487   3.113 -0.2927  0.2432  0.2482
 4557TIP3    H235087   4.032   6.581   3.114  0.0566 -0.2002  1.0779
 4558TIP3   OH235088   2.294   3.240   5.149  0.0854  0.1093  0.6809
 4558TIP3    H135089   2.375   3.290   5.160  0.2547 -0.1873  0.7986
 4558TIP3    H235090   2.234   3.276   5.215  0.3177 -0.0621  0.9897
 4559TIP3   OH235091   1.849   4.997  12.083  0.2924  0.0429 -0.2455
 4559TIP3    H135092   1.787   5.008  12.155  0.3552  0.9933 -0.3295
 4559TIP3    H235093   1.830   4.911  12.047  1.1467 -1.0154  1.7639
 4560TIP3   OH235094   4.618   1.608   1.423 -0.3791  0.1255 -0.2129
 4560TIP3    H135095   4.675   1.577   1.353  0.3771 -0.0688  0.4859
 4560TIP3    H235096   4.647   1.697   1.441  3.8913 -2.0163  4.3972
 4561TIP3   OH235097   6.302   2.730  15.788  0.5603 -0.0730 -0.0132
 4561TIP3    H135098   6.346   2.653  15.754  0.4783 -0.0280 -0.2196
 4561TIP3    H235099   6.209   2.706  15.787  0.5119  0.1352 -0.3442
 4562TIP3   OH235100   3.716   0.432   4.389 -0.5687  0.0111  0.4279
 4562TIP3    H135101   3.678   0.366   4.331 -0.4905 -0.6726  1.1382
 4562TIP3    H235102   3.653   0.440   4.460 -0.0118 -0.1850  0.9522
 4563TIP3   OH235103   2.644   4.094  14.970 -0.4226  0.3975 -0.3032
 4563TIP3    H135104   2.699   4.054  14.903 -0.1812  0.8541 -0.3856
 4563TIP3    H235105   2.561   4.047  14.965 -0.6517  0.8982 -1.4121
 4564TIP3   OH235106   0.787   5.164  13.200  0.3628  0.5376 -0.0353
 4564TIP3    H135107   0.751   5.223  13.133 -0.4826 -0.3085 -0.3495
 4564TIP3    H235108   0.710   5.124  13.240  0.9630 -1.4065 -0.7944
 4565TIP3   OH235109   1.490   6.657   5.788 -0.5627  0.6540  0.3366
 4565TIP3    H135110   1.574   6.676   5.745  0.7726 -1.9183  1.6717
 4565TIP3    H235111   1.489   6.716   5.863  0.6305 -0.1050  0.9740
 4566TIP3   OH235112   0.466   6.627   1.023 -0.3355  0.2017 -0.8932
 4566TIP3    H135113   0.483   6.610   0.930  0.2867 -1.6739 -0.4692
 4566TIP3    H235114   0.370   6.623   1.031 -0.4029  0.5526 -1.4751
 4567TIP3   OH235115   2.856   0.535  11.013 -0.0652  0.3033 -0.2253
 4567TIP3    H135116   2.926   0.480  11.046 -0.0165  0.7662  0.4653
 4567TIP3    H235117   2.892   0.576  10.935  0.0641 -0.2652 -0.4635
 4568TIP3   OH235118   3.407   1.517  16.029 -0.3453 -0.4736  0.0075
 4568TIP3    H135119   3.354   1.591  16.060  2.0931  1.2502  0.2612
 4568TIP3    H235120   3.437   1.474  16.109 -0.1777 -0.5714 -0.1048
 4569TIP3   OH235121   1.291   1.267  16.603 -0.5322  0.4667  0.1384
 4569TIP3    H135122   1.222   1.203  16.584  1.2968 -1.2609 -0.8984
 4569TIP3    H235123   1.251   1.352  16.584 -1.8995 -0.6000 -1.9626
 4570TIP3   OH235124   4.126   4.007   4.980 -0.2718  0.3687  0.6822
 4570TIP3    H135125   4.117   3.933   4.919  1.4733  0.3811  0.3810
 4570TIP3    H235126   4.144   4.082   4.923  0.5696  0.5299  1.1550
 4571TIP3   OH235127   4.748   1.789  15.982 -0.2425 -0.7933 -0.0625
 4571TIP3    H135128   4.752   1.775  16.076 -3.1194  0.4556  0.2868
 4571TIP3    H235129   4.775   1.880  15.969 -1.4214 -0.4597 -0.2588
 4572TIP3   OH235130   6.569   0.378   3.705  0.3883 -0.0974  0.6089
 4572TIP3    H135131   6.553   0.306   3.645 -0.1971  0.1549  0.4585
 4572TIP3    H235132   6.654   0.414   3.678 -0.3420  0.6610 -0.7275
 4573TIP3   OH235133   4.410   2.985   5.587 -0.2965  0.3029  0.5723
 4573TIP3    H135134   4.380   3.018   5.672  0.2160  2.3939 -0.0217
 4573TIP3    H235135   4.354   3.030   5.523  0.6038  0.2010 -0.2890
 4574TIP3   OH235136   0.660   0.423   4.504 -0.6060  0.2280 -0.4843
 4574TIP3    H135137   0.744   0.377   4.504 -1.0614 -0.6224  0.0921
 4574TIP3    H235138   0.596   0.356   4.527 -1.3755  0.9913 -0.3671
 4575TIP3   OH235139   5.531   0.570  11.830 -0.1858 -0.5265 -0.1486
 4575TIP3    H135140   5.618   0.547  11.798 -0.9409 -1.8181 -1.3369
 4575TIP3    H235141   5.492   0.487  11.855 -1.1859  0.0091  0.1048
 4576TIP3   OH235142   0.088   3.254  10.508 -0.0037  0.1959  0.8844
 4576TIP3    H135143  -0.004   3.237  10.526 -0.6010  1.0745 -1.1978
 4576TIP3    H235144   0.087   3.323  10.442  2.1566  0.3113  0.9460
 4577TIP3   OH235145   1.268   4.485  11.732 -0.1036  0.3057 -0.0924
 4577TIP3    H135146   1.196   4.527  11.778 -0.9882 -1.4323  0.1267
 4577TIP3    H235147   1.335   4.470  11.799  0.0844  1.0759 -0.1092
 4578TIP3   OH235148   2.689   1.388  15.891 -0.2484  0.2816 -0.2991
 4578TIP3    H135149   2.678   1.339  15.809 -0.3368  1.2354 -0.8599
 4578TIP3    H235150   2.636   1.340  15.955  1.8978 -2.0269 -0.1394
 4579TIP3   OH235151   5.389   0.653   1.698  0.2036  0.0402 -0.1611
 4579TIP3    H135152   5.457   0.713   1.666  0.9653 -0.4663  0.5113
 4579TIP3    H235153   5.430   0.566   1.694 -0.6870 -0.3720 -0.5390
 4580TIP3   OH235154   5.845   3.626   2.211 -0.8017 -0.3434 -0.4321
 4580TIP3    H135155   5.937   3.654   2.205 -0.6779 -0.7293 -0.3500
 4580TIP3    H235156   5.835   3.597   2.302 -1.1944  0.3479 -0.2513
 4581TIP3   OH235157   1.564   3.364  10.848 -0.0022 -0.3442  0.2895
 4581TIP3    H135158   1.620   3.418  10.904  1.8840 -2.0473  0.1169
 4581TIP3    H235159   1.480   3.361  10.894  0.3695  1.3136  1.1305
 4582TIP3   OH235160   5.693   1.336  16.175 -0.1065 -0.2251  0.0397
 4582TIP3    H135161   5.690   1.428  16.203  0.6829 -0.0359 -0.5010
 4582TIP3    H235162   5.668   1.338  16.083 -2.5831 -0.8361  0.6510
 4583TIP3   OH235163   4.464   6.502   5.380  0.3336 -0.1908  0.0979
 4583TIP3    H135164   4.531   6.536   5.439 -0.9738  0.5775  1.1695
 4583TIP3    H235165   4.495   6.525   5.293  1.0003  1.0039  0.6377
 4584TIP3   OH235166   2.904   3.740  12.400 -0.0278  0.4189  0.0484
 4584TIP3    H135167   2.864   3.792  12.330 -2.7243 -1.1541  0.3793
 4584TIP3    H235168   2.961   3.803  12.446 -0.8387  2.3086 -1.4538
 4585TIP3   OH235169   0.781   4.044   3.415  0.3179  0.0708 -0.2918
 4585TIP3    H135170   0.740   4.036   3.329  1.3429  1.7166 -0.9517
 4585TIP3    H235171   0.875   4.051   3.397  0.9882 -3.7041  1.1996
 4586TIP3   OH235172   5.286   1.855  13.280 -0.2703 -0.0666 -0.4137
 4586TIP3    H135173   5.265   1.942  13.313  0.3850  0.1368 -0.5247
 4586TIP3    H235174   5.374   1.864  13.242  0.0855 -0.9402  0.1979
 4587TIP3   OH235175   4.114   3.330   5.117 -0.8561  0.1939 -0.2702
 4587TIP3    H135176   4.027   3.291   5.121 -0.6972 -0.0706  0.8681
 4587TIP3    H235177   4.158   3.298   5.197 -0.1495  1.3296 -0.1975
 4588TIP3   OH235178   3.366   4.289  17.144 -0.7493 -0.3617  0.0495
 4588TIP3    H135179   3.297   4.254  17.200  0.5374 -3.2688 -0.1331
 4588TIP3    H235180   3.419   4.213  17.120  2.4748  1.7909  0.1082
 4589TIP3   OH235181   0.935   5.985  15.775  0.1956  0.5562  0.0206
 4589TIP3    H135182   0.890   5.923  15.717  0.8278 -0.1363  0.2676
 4589TIP3    H235183   0.875   6.059  15.781 -0.6388 -0.0915 -0.1612
 4590TIP3   OH235184   1.725   2.891  13.604  0.4925 -0.1798  0.3352
 4590TIP3    H135185   1.785   2.963  13.589  0.3405  0.0138  0.6447
 4590TIP3    H235186   1.642   2.933  13.628  0.6917 -0.4671  1.5503
 4591TIP3   OH235187   3.692   2.351   1.775 -0.5288  0.2862 -0.2524
 4591TIP3    H135188   3.724   2.267   1.740 -0.0965  0.1329  0.5104
 4591TIP3    H235189   3.597   2.342   1.773 -0.4874 -0.1758 -0.2986
 4592TIP3   OH235190   3.105   6.331   1.850  0.1363  0.2909  0.2845
 4592TIP3    H135191   3.104   6.269   1.778 -0.2241  0.0587  0.4869
 4592TIP3    H235192   3.141   6.282   1.924 -0.6344  0.1628  0.5811
 4593TIP3   OH235193   6.059   2.921   4.717 -0.7887 -0.3137  0.3444
 4593TIP3    H135194   6.121   2.936   4.789 -0.6344  0.2659  0.0967
 4593TIP3    H235195   6.011   3.003   4.709 -0.9799 -0.4617 -0.0472
 4594TIP3   OH235196   4.052   6.644   1.165  0.6375 -0.1501  0.3362
 4594TIP3    H135197   3.964   6.611   1.182  0.1243  1.0182 -0.0215
 4594TIP3    H235198   4.088   6.583   1.100 -0.1590 -0.2325 -0.0332
 4595TIP3   OH235199   4.932   3.338  10.805  0.1425 -0.3478  0.0381
 4595TIP3    H135200   4.949   3.395  10.880  0.3005 -0.9554  0.4686
 4595TIP3    H235201   5.014   3.290  10.791 -0.3500 -1.3149  0.4159
 4596TIP3   OH235202   5.864   5.468   1.640 -0.7518 -0.0677 -0.3385
 4596TIP3    H135203   5.805   5.468   1.564 -1.2593 -0.2396  0.0532
 4596TIP3    H235204   5.951   5.480   1.602 -0.9542 -0.5749 -0.9906
 4597TIP3   OH235205   0.409   5.262  11.885 -0.1704  0.0566  0.6338
 4597TIP3    H135206   0.497   5.223  11.892 -0.0568 -0.3533 -2.1862
 4597TIP3    H235207   0.416   5.346  11.930  1.8227  0.2351  0.0644
 4598TIP3   OH235208   1.202   3.294  14.674  0.0123  0.2097  0.0828
 4598TIP3    H135209   1.219   3.210  14.631 -0.5274 -0.0662  0.4019
 4598TIP3    H235210   1.106   3.302  14.673 -0.0411 -0.0557  1.7276
 4599TIP3   OH235211   3.284   4.410  12.237  0.6672  0.7797 -0.5990
 4599TIP3    H135212   3.359   4.367  12.196  1.4442  1.5107  0.0365
 4599TIP3    H235213   3.252   4.471  12.171 -0.2409 -0.5242 -1.3834
 4600TIP3   OH235214   2.207   0.266   1.465 -0.3529  0.4096  0.7101
 4600TIP3    H135215   2.155   0.211   1.524 -0.2470  0.2515  0.6564
 4600TIP3    H235216   2.287   0.286   1.513 -0.7003  1.1108  1.0066
 4601TIP3   OH235217   5.659   1.750   0.397  0.3177 -0.5609 -0.5184
 4601TIP3    H135218   5.690   1.730   0.308  0.4261 -0.6002 -0.4724
 4601TIP3    H235219   5.564   1.738   0.393 -0.0556  2.4207 -1.4111
 4602TIP3   OH235220   6.471   5.234   1.372  0.4487  0.2287  0.4879
 4602TIP3    H135221   6.407   5.297   1.403  0.5597  0.5731  0.0162
 4602TIP3    H235222   6.470   5.164   1.438 -0.0716  0.4541  0.7179
 4603TIP3   OH235223   3.290   5.516  14.485 -0.5649  0.9048 -0.5572
 4603TIP3    H135224   3.266   5.509  14.392  2.6181  0.7511 -1.4145
 4603TIP3    H235225   3.362   5.579  14.487  0.2374 -0.0102  1.6466
 4604TIP3   OH235226   6.488   1.399   3.750  0.0555 -0.1993 -0.6066
 4604TIP3    H135227   6.435   1.320   3.763  0.8906 -0.7921 -0.6904
 4604TIP3    H235228   6.578   1.367   3.755  0.3961  0.6169 -1.5280
 4605TIP3   OH235229   3.211   4.147   5.085 -0.2263  0.1195  0.3324
 4605TIP3    H135230   3.199   4.222   5.143  0.5282 -0.5567  1.3976
 4605TIP3    H235231   3.171   4.173   5.002 -1.5260  1.0317  1.2191
 4606TIP3   OH235232   1.193   4.447  12.324  0.5208 -0.4469  0.4816
 4606TIP3    H135233   1.119   4.386  12.330  1.5176 -1.5586  1.8411
 4606TIP3    H235234   1.270   4.391  12.312  1.1007  0.7285 -1.3674
 4607TIP3   OH235235   5.699   0.098   4.503  0.1424 -0.2064  0.1561
 4607TIP3    H135236   5.733   0.066   4.419 -0.4415 -1.3119  0.3333
 4607TIP3    H235237   5.635   0.165   4.479  0.9167  0.4060 -0.2391
 4608TIP3   OH235238   2.378   4.621  10.587 -0.2540  0.0008  0.1945
 4608TIP3    H135239   2.294   4.667  10.590 -0.0912  0.4006 -1.2496
 4608TIP3    H235240   2.354   4.529  10.589 -0.7214  0.1132 -0.0312
 4609TIP3   OH235241   2.318   5.353  12.538  0.1851  0.1233 -0.4585
 4609TIP3    H135242   2.337   5.292  12.466 -1.3831  0.1873 -0.9396
 4609TIP3    H235243   2.338   5.439  12.502  0.0107  0.1026 -0.6047
 4610TIP3   OH235244   1.622   5.260  13.390 -0.0940 -0.4426  0.0350
 4610TIP3    H135245   1.616   5.322  13.463 -3.4098  0.0574 -0.5681
 4610TIP3    H235246   1.646   5.313  13.315  0.4306 -0.4717  0.1802
 4611TIP3   OH235247   1.296   6.321  11.916  0.2129  0.0009  1.0009
 4611TIP3    H135248   1.384   6.311  11.879  0.4149  0.1024  1.4495
 4611TIP3    H235249   1.303   6.285  12.004 -0.5864 -1.4097  0.5040
 4612TIP3   OH235250   4.105   2.871   5.383  0.4510  0.0228 -0.0817
 4612TIP3    H135251   4.121   2.965   5.393  1.2225 -0.1802  0.6348
 4612TIP3    H235252   4.036   2.852   5.447  0.3602  0.0829 -0.1611
 4613TIP3   OH235253   2.091   6.194  12.977 -0.6168  0.2084 -0.5833
 4613TIP3    H135254   2.092   6.253  13.052  2.7493  1.4836 -1.5452
 4613TIP3    H235255   2.121   6.110  13.013 -0.6970  0.3473 -0.1815
 4614TIP3   OH235256   1.878   4.060   2.134  0.2444 -0.2590  0.7333
 4614TIP3    H135257   1.821   4.104   2.070 -1.2960  1.7621  3.3522
 4614TIP3    H235258   1.836   3.975   2.149  1.1774 -1.1616 -1.6512
 4615TIP3   OH235259   3.429   5.986  10.603  0.4321 -0.2303 -0.1542
 4615TIP3    H135260   3.470   6.063  10.562  0.4759  0.8973  1.9455
 4615TIP3    H235261   3.501   5.939  10.644 -0.0441  0.4978  1.5381
 4616TIP3   OH235262   5.204   5.681  11.122 -0.1812 -0.0751 -0.1133
 4616TIP3    H135263   5.257   5.638  11.055  0.6147 -1.2242  1.2146
 4616TIP3    H235264   5.249   5.764  11.139 -0.4757  0.2923 -1.1020
 4617TIP3   OH235265   4.644   2.197   1.379 -0.1624 -0.6331 -0.3445
 4617TIP3    H135266   4.645   2.178   1.473 -2.3900 -0.0919 -0.1953
 4617TIP3    H235267   4.634   2.111   1.338  2.7794 -1.0871 -0.1942
 4618TIP3   OH235268   4.318   4.892   2.214  0.0088 -0.6010  0.2311
 4618TIP3    H135269   4.400   4.938   2.232  0.2140 -1.8629  2.8972
 4618TIP3    H235270   4.250   4.951   2.246 -0.0371 -0.1137 -0.7656
 4619TIP3   OH235271   6.412   2.466  13.670  0.1881  0.4014  0.1541
 4619TIP3    H135272   6.330   2.421  13.648  0.3631  0.7436 -1.2417
 4619TIP3    H235273   6.409   2.475  13.765 -2.0114  1.5850  0.0132
 4620TIP3   OH235274   1.326   4.907   4.241 -0.3751  0.1749  1.1467
 4620TIP3    H135275   1.240   4.909   4.283  0.0416 -0.7028  2.0622
 4620TIP3    H235276   1.341   4.815   4.221  0.7279  0.2124  1.7738
 4621TIP3   OH235277   5.771   1.895   2.868  0.0453 -0.4180 -0.3988
 4621TIP3    H135278   5.849   1.921   2.818 -0.4250  1.7155 -0.0430
 4621TIP3    H235279   5.760   1.802   2.847  1.7011 -0.3335 -1.7747
 4622TIP3   OH235280   3.462   0.474  14.228 -0.6893  0.1022 -0.8266
 4622TIP3    H135281   3.461   0.378  14.231 -0.4083  0.0938 -1.0054
 4622TIP3    H235282   3.489   0.495  14.138 -0.2641  0.3465 -0.6439
 4623TIP3   OH235283   6.328   3.996  12.658 -0.7630 -0.3279  0.5637
 4623TIP3    H135284   6.351   3.998  12.565 -0.2782 -2.6825  0.5902
 4623TIP3    H235285   6.353   4.082  12.691  0.8299 -0.1355 -1.0810
 4624TIP3   OH235286   1.090   2.256   0.498 -1.1690  0.0885 -0.3827
 4624TIP3    H135287   1.181   2.281   0.512 -0.8848 -0.6839 -0.8010
 4624TIP3    H235288   1.052   2.328   0.448 -0.6805  0.2163 -0.5659
 4625TIP3   OH235289   5.999   4.503   4.254 -0.9001  0.1061 -0.1824
 4625TIP3    H135290   5.962   4.555   4.184  0.5396  0.0586 -1.0087
 4625TIP3    H235291   6.060   4.444   4.211 -0.2958 -0.2045  1.0509
 4626TIP3   OH235292   4.512   0.616   0.851 -0.6645 -0.2635  0.1032
 4626TIP3    H135293   4.542   0.704   0.873  0.0870 -0.4147 -0.2954
 4626TIP3    H235294   4.526   0.565   0.931 -2.7048  0.3626  0.8931
 4627TIP3   OH235295   5.139   6.551   4.388 -0.1796  0.2240 -0.2232
 4627TIP3    H135296   5.102   6.476   4.341 -1.1605  0.2856  0.4563
 4627TIP3    H235297   5.227   6.523   4.412 -0.6424 -0.8186  0.2672
 4628TIP3   OH235298   5.487   4.503  15.746  0.2563 -0.2165 -0.0036
 4628TIP3    H135299   5.450   4.442  15.683 -0.6895 -0.7749  1.0748
 4628TIP3    H235300   5.547   4.450  15.798 -0.7207 -0.2899  1.0715
 4629TIP3   OH235301   1.863   1.604   0.364 -0.0729 -0.3676 -0.6706
 4629TIP3    H135302   1.859   1.509   0.348 -1.0797 -0.2888 -0.8948
 4629TIP3    H235303   1.844   1.643   0.279 -0.5044  0.0395 -0.3857
 4630TIP3   OH235304   2.405   1.427  11.239  0.2650  0.5167 -0.2645
 4630TIP3    H135305   2.446   1.342  11.251  3.0335  2.0840  1.9930
 4630TIP3    H235306   2.468   1.476  11.186 -0.8090  1.4934 -0.6487
 4631TIP3   OH235307   2.480   3.816  10.878  0.0625 -0.7032 -0.3894
 4631TIP3    H135308   2.557   3.812  10.822 -0.0579 -0.9678 -0.5339
 4631TIP3    H235309   2.408   3.840  10.819 -0.0459 -0.8851 -0.3294
 4632TIP3   OH235310   3.558   1.200  11.488  0.0235 -0.9208  0.3878
 4632TIP3    H135311   3.568   1.107  11.466  2.4966 -0.3459 -1.0812
 4632TIP3    H235312   3.634   1.242  11.449 -0.4677  1.5789  2.0174
 4633TIP3   OH235313   2.009   1.647   1.002  0.3869  0.7255 -0.0066
 4633TIP3    H135314   1.984   1.627   1.092 -1.4764 -1.9453 -1.0350
 4633TIP3    H235315   1.970   1.732   0.984  0.7020  1.2373  1.6797
 4634TIP3   OH235316   0.249   2.783  14.238  0.0207 -0.4552  0.3309
 4634TIP3    H135317   0.208   2.864  14.209  0.9181 -0.1632 -0.1419
 4634TIP3    H235318   0.179   2.718  14.237 -0.3086 -0.0934 -1.0188
 4635TIP3   OH235319   5.835   5.950  15.342 -0.0149 -0.5522 -0.0699
 4635TIP3    H135320   5.846   6.040  15.312  0.3382 -0.7306 -0.4812
 4635TIP3    H235321   5.895   5.899  15.288 -1.0065 -1.1856 -0.6071
 4636TIP3   OH235322   1.184   1.928   4.116  0.7339  0.0621 -0.0364
 4636TIP3    H135323   1.147   1.846   4.148 -0.8565  0.0751 -1.7644
 4636TIP3    H235324   1.195   1.982   4.194 -0.7566 -0.7931  0.7887
 4637TIP3   OH235325   6.512   5.203   4.410  0.3783 -0.2156  0.6868
 4637TIP3    H135326   6.509   5.180   4.317  1.9557  1.1965  0.2545
 4637TIP3    H235327   6.434   5.257   4.424 -0.5147 -1.4360  0.4831
 4638TIP3   OH235328   2.999   0.376   2.169 -0.0390 -0.2915 -0.2737
 4638TIP3    H135329   3.075   0.367   2.226 -0.1132  0.0190 -0.1280
 4638TIP3    H235330   2.957   0.289   2.171 -0.2855 -0.1562  0.4857
 4639TIP3   OH235331   4.185   4.585  13.327  0.3269 -0.0982 -0.2178
 4639TIP3    H135332   4.216   4.579  13.417 -0.2788  0.4071  0.0277
 4639TIP3    H235333   4.116   4.519  13.321 -0.4339  0.6727  0.0244
 4640TIP3   OH235334   3.053   4.048  13.642 -0.1083  0.2605 -0.6838
 4640TIP3    H135335   3.078   3.956  13.629 -1.1171 -0.1872  0.4920
 4640TIP3    H235336   3.098   4.074  13.723 -0.7686  0.4465 -0.3739
 4641TIP3   OH235337   4.786   1.122  14.716  0.4411  0.1868 -0.0087
 4641TIP3    H135338   4.819   1.207  14.744  3.1170 -0.5591 -0.7649
 4641TIP3    H235339   4.703   1.142  14.673  0.4756  2.2804  0.8207
 4642TIP3   OH235340   3.067   5.141  12.778 -0.2929  0.3428  0.2480
 4642TIP3    H135341   3.087   5.219  12.829 -2.9249 -0.1235  2.1184
 4642TIP3    H235342   3.016   5.173  12.703 -0.8937  0.4992  0.7164
 4643TIP3   OH235343   3.755   5.537  11.301 -0.3955  0.2805  0.4322
 4643TIP3    H135344   3.793   5.505  11.382  1.7053  1.0384 -0.2015
 4643TIP3    H235345   3.787   5.477  11.234  0.6971  1.6029 -0.2749
 4644TIP3   OH235346   3.570   2.123  15.269  0.2127 -0.4142 -0.7159
 4644TIP3    H135347   3.638   2.083  15.323 -0.2898 -0.2174  0.0733
 4644TIP3    H235348   3.493   2.069  15.283  0.0687 -0.3358 -1.2053
 4645TIP3   OH235349   3.070   3.833   3.902  0.2613  0.2295  0.0595
 4645TIP3    H135350   3.119   3.776   3.843 -0.5573  0.0832 -0.4957
 4645TIP3    H235351   3.058   3.914   3.852 -1.1620 -0.1914 -0.3310
 4646TIP3   OH235352   4.297   0.560   4.669  0.6287 -0.1816 -0.7152
 4646TIP3    H135353   4.271   0.628   4.606 -1.0127 -0.2195 -0.1084
 4646TIP3    H235354   4.362   0.602   4.725  0.1647  0.6702 -0.8116
 4647TIP3   OH235355   5.019   5.128   1.813  0.5519  0.3046  0.0162
 4647TIP3    H135356   4.932   5.092   1.795  0.2724  1.0632 -0.1625
 4647TIP3    H235357   5.026   5.124   1.909  1.0056 -1.3276 -0.0778
 4648TIP3   OH235358   6.646   3.827  16.377 -0.4545  0.7170  0.0571
 4648TIP3    H135359   6.580   3.796  16.439 -0.7159 -0.3784 -0.7607
 4648TIP3    H235360   6.616   3.794  16.292  0.8801  0.6644 -0.3973
 4649TIP3   OH235361   4.458   3.169  15.816  0.0714  0.2810  0.8311
 4649TIP3    H135362   4.482   3.082  15.785  0.5180  1.4121 -2.1891
 4649TIP3    H235363   4.370   3.158  15.852 -0.6805 -1.0664 -1.2962
 4650TIP3   OH235364   5.177   0.821  13.865 -0.8465  0.6660  0.6613
 4650TIP3    H135365   5.091   0.822  13.907 -0.9830 -0.8194  0.4256
 4650TIP3    H235366   5.160   0.846  13.774 -1.4045 -2.1380 -0.0409
 4651TIP3   OH235367   5.272   3.797   5.061  0.2222  0.0087 -0.6094
 4651TIP3    H135368   5.320   3.726   5.102  0.0890  0.6545  0.6916
 4651TIP3    H235369   5.229   3.843   5.134  1.5158  2.3239 -1.2525
 4652TIP3   OH235370   4.695   6.639  16.951 -0.4618 -0.2277 -0.2493
 4652TIP3    H135371   4.742   6.706  16.901  0.1122 -0.8565 -0.5706
 4652TIP3    H235372   4.616   6.621  16.900  0.1999 -0.9811 -1.0339
 4653TIP3   OH235373   4.879   6.725  16.038  0.2033 -0.5373 -0.0337
 4653TIP3    H135374   4.916   6.649  15.993  3.1616 -0.9194  2.8342
 4653TIP3    H235375   4.830   6.688  16.111 -1.2702  0.2421 -0.5962
 4654TIP3   OH235376   4.826   4.116  11.206  0.2860 -0.2555  0.1219
 4654TIP3    H135377   4.780   4.050  11.259 -1.9660  0.9576 -0.2926
 4654TIP3    H235378   4.877   4.166  11.270 -1.7164  0.6313  1.0459
 4655TIP3   OH235379   1.905   0.544   3.825 -0.1202  0.9381  0.1972
 4655TIP3    H135380   1.894   0.479   3.755 -0.7521  2.6304 -1.3224
 4655TIP3    H235381   1.970   0.506   3.884 -1.4311 -1.6495  0.0424
 4656TIP3   OH235382   0.372   1.631   2.517 -0.4736 -0.2058  0.2715
 4656TIP3    H135383   0.368   1.620   2.422  0.5170  0.5763  0.1405
 4656TIP3    H235384   0.465   1.639   2.537 -0.7107  0.2472  1.2347
 4657TIP3   OH235385   3.432   4.388  16.366 -0.0483 -0.1306  0.4988
 4657TIP3    H135386   3.418   4.414  16.275 -0.6135 -1.0912  0.2934
 4657TIP3    H235387   3.526   4.397  16.380 -0.1542  1.4442  0.2746
 4658TIP3   OH235388   0.755   3.931   0.927 -0.6662  0.2589  0.2397
 4658TIP3    H135389   0.758   4.021   0.894 -0.7810 -0.4361 -1.7547
 4658TIP3    H235390   0.663   3.904   0.916 -0.4316 -0.4239 -0.1013
 4659TIP3   OH235391   5.200   4.458   3.601  0.2934  0.1462  0.3229
 4659TIP3    H135392   5.278   4.513   3.589 -0.7716  1.4512 -0.8538
 4659TIP3    H235393   5.234   4.371   3.619  2.0252  0.8620  0.6228
 4660TIP3   OH235394   2.999   0.420  14.102 -0.2069  0.2182  0.0605
 4660TIP3    H135395   3.067   0.483  14.128  0.1182 -0.3666  0.6802
 4660TIP3    H235396   3.019   0.342  14.155 -1.5067  0.1215  0.4177
 4661TIP3   OH235397   0.583   3.193  16.405 -0.4892  0.5584  0.4258
 4661TIP3    H135398   0.561   3.184  16.312 -1.4786  0.2157  0.6855
 4661TIP3    H235399   0.670   3.154  16.413 -0.2997  0.8088 -0.4059
 4662TIP3   OH235400   1.111   0.005  13.911 -0.3486 -0.0047  0.8296
 4662TIP3    H135401   1.097   0.047  13.826  1.6467 -1.1739 -0.1275
 4662TIP3    H235402   1.206   0.011  13.924 -0.4780 -1.0763  2.3098
 4663TIP3   OH235403   6.769   3.930  11.380 -0.5127 -0.0864 -0.3953
 4663TIP3    H135404   6.790   3.888  11.464  1.9585 -1.3257 -1.5699
 4663TIP3    H235405   6.801   4.020  11.390 -1.2905  0.1069  0.3972
 4664TIP3   OH235406   3.905   4.584   1.015  0.2510 -0.4328 -0.1034
 4664TIP3    H135407   3.885   4.532   1.093  1.2598 -1.6164 -0.6214
 4664TIP3    H235408   3.994   4.559   0.992 -0.1609 -0.3216 -1.8456
 4665TIP3   OH235409   3.969   6.594  15.266 -0.6270 -0.4625 -0.4880
 4665TIP3    H135410   3.995   6.506  15.293 -0.2744 -0.4123 -0.6605
 4665TIP3    H235411   4.046   6.629  15.220 -0.6762  0.0314 -0.1907
 4666TIP3   OH235412   0.648   2.324  16.344 -0.1674  0.3723 -0.0768
 4666TIP3    H135413   0.733   2.286  16.367 -1.2801 -2.2878 -0.2533
 4666TIP3    H235414   0.643   2.404  16.396  2.2953  0.3848  0.1845
 4667TIP3   OH235415   0.013   2.330  13.299  0.1320  0.2654  0.3512
 4667TIP3    H135416  -0.035   2.258  13.258 -1.4010  1.3579  0.1840
 4667TIP3    H235417   0.089   2.288  13.340 -0.7793 -1.4544  0.3215
 4668TIP3   OH235418   3.739   3.072  14.575  0.3253 -0.1009  0.0840
 4668TIP3    H135419   3.796   3.004  14.612  0.2616  0.7416  1.8003
 4668TIP3    H235420   3.662   3.024  14.544  1.1846 -1.0461 -0.6457
 4669TIP3   OH235421   6.066   2.307  12.787 -0.3791 -0.5662  0.2580
 4669TIP3    H135422   6.083   2.401  12.796 -1.0263 -0.4180  0.0150
 4669TIP3    H235423   6.146   2.264  12.817 -0.2091  0.0584  0.6916
 4670TIP3   OH235424   6.525   1.469   0.405  0.7686 -0.1297  0.4277
 4670TIP3    H135425   6.447   1.415   0.397  0.2651  0.4123  1.5637
 4670TIP3    H235426   6.519   1.530   0.331 -0.9737  1.2639  1.6723
 4671TIP3   OH235427   6.341   3.110   3.069  0.1538  0.5925 -0.0884
 4671TIP3    H135428   6.291   3.183   3.033  0.9791  0.5474 -1.3405
 4671TIP3    H235429   6.429   3.144   3.082  0.4363 -0.0534 -0.2711
 4672TIP3   OH235430   3.595   2.900  11.284 -0.6245 -0.2830  0.1742
 4672TIP3    H135431   3.629   2.912  11.195  0.4206 -0.1646  0.5883
 4672TIP3    H235432   3.628   2.975  11.333  0.1192 -1.1785  1.0521
 4673TIP3   OH235433   0.351   5.705   5.870  0.5046  0.5266 -0.3678
 4673TIP3    H135434   0.370   5.793   5.837  1.6487 -0.2903 -1.9054
 4673TIP3    H235435   0.290   5.668   5.807 -0.9130  0.6142  0.9078
 4674TIP3   OH235436   2.495   4.672   6.393  0.5176 -0.2707  0.0785
 4674TIP3    H135437   2.436   4.746   6.378  1.5050  0.8185  1.4544
 4674TIP3    H235438   2.457   4.625   6.467  2.2669  1.4180  2.0919
 4675TIP3   OH235439   5.885   1.517  12.864 -0.1079  0.2293  0.2947
 4675TIP3    H135440   5.883   1.612  12.877  1.7415  0.4475 -0.8217
 4675TIP3    H235441   5.976   1.492  12.880 -0.6902 -1.4536  1.1196
 4676TIP3   OH235442   2.558   3.842  15.117  0.4242 -0.0246  0.2627
 4676TIP3    H135443   2.631   3.795  15.077  1.0508 -0.4890  1.8833
 4676TIP3    H235444   2.593   3.929  15.137  0.1449  0.1768 -0.1227
 4677TIP3   OH235445   6.635   4.944   1.222 -0.0233 -0.5524  0.2805
 4677TIP3    H135446   6.546   4.920   1.247 -0.7584  0.7920 -0.9816
 4677TIP3    H235447   6.630   5.037   1.199  1.2943 -0.9007 -1.5883
 4678TIP3   OH235448   4.207   6.448  11.936 -0.1048 -0.0267  0.0026
 4678TIP3    H135449   4.124   6.469  11.894 -0.8575  0.3394  1.6387
 4678TIP3    H235450   4.202   6.490  12.022  1.8963  0.2629 -0.0002
 4679TIP3   OH235451   6.009   6.302  15.603 -0.2014  0.3264  0.5120
 4679TIP3    H135452   5.986   6.216  15.640  0.3137  0.7925  1.9252
 4679TIP3    H235453   6.052   6.281  15.520  0.6279 -0.8297  1.2094
 4680TIP3   OH235454   4.892   1.958  13.622 -0.0008  0.6894  0.0720
 4680TIP3    H135455   4.881   1.957  13.718  3.2891  0.5192  0.4847
 4680TIP3    H235456   4.860   2.045  13.596 -1.6515  0.4548  1.2044
 4681TIP3   OH235457   6.137   3.538   5.677  0.5100 -0.5061 -0.0510
 4681TIP3    H135458   6.138   3.566   5.585 -1.4318 -0.9313 -0.2369
 4681TIP3    H235459   6.128   3.442   5.672  0.2726 -0.5170  0.5829
 4682TIP3   OH235460   2.841   4.978   4.237 -0.1540  0.3366 -0.3894
 4682TIP3    H135461   2.851   4.959   4.331  1.4378 -0.4841 -0.7023
 4682TIP3    H235462   2.898   5.053   4.222  1.6976 -1.1978 -1.2130
 4683TIP3   OH235463   1.101   6.636  16.518  0.0943 -0.3533 -0.1722
 4683TIP3    H135464   1.155   6.691  16.461 -0.0114 -1.1399 -1.0234
 4683TIP3    H235465   1.012   6.648  16.486 -0.1171  0.0959  0.5556
 4684TIP3   OH235466   0.803   2.763   0.086  0.0376 -0.9518  0.0384
 4684TIP3    H135467   0.708   2.755   0.098  0.0946 -1.1116  0.3978
 4684TIP3    H235468   0.822   2.711   0.008  0.0522 -2.2925  0.9088
 4685TIP3   OH235469   1.129   5.375   3.639 -0.2912 -0.1633 -0.0623
 4685TIP3    H135470   1.044   5.419   3.642 -0.0426  0.2726  0.9333
 4685TIP3    H235471   1.113   5.288   3.676  0.0633  0.5844  1.9412
 4686TIP3   OH235472   4.430   1.449   2.828 -0.2644 -0.3578 -0.1038
 4686TIP3    H135473   4.391   1.445   2.740 -0.6659  0.5494  0.0199
 4686TIP3    H235474   4.395   1.530   2.865 -0.0421 -0.7064  0.8727
 4687TIP3   OH235475   1.246   2.013   6.292 -0.3337  0.3006  0.0314
 4687TIP3    H135476   1.247   1.921   6.320  1.7635 -0.4415 -2.2114
 4687TIP3    H235477   1.328   2.049   6.324 -0.2316  0.8254 -0.7893
 4688TIP3   OH235478   6.366   3.651  14.823  0.3607 -0.3946 -0.0816
 4688TIP3    H135479   6.355   3.582  14.888  1.9711  0.6897  1.4202
 4688TIP3    H235480   6.337   3.613  14.741  1.3157 -2.8903  0.7001
 4689TIP3   OH235481   4.900   1.236   6.720 -0.2605 -0.0811 -0.4843
 4689TIP3    H135482   4.992   1.261   6.721 -0.2306 -0.1924 -0.0349
 4689TIP3    H235483   4.898   1.151   6.765 -0.8425  0.8579  1.2992
 4690TIP3   OH235484   4.812   2.728   2.360  0.5469 -0.5805  0.1503
 4690TIP3    H135485   4.907   2.740   2.359  0.4665  0.0561 -0.1973
 4690TIP3    H235486   4.778   2.811   2.393  0.0527 -0.4101 -0.7795
 4691TIP3   OH235487   0.786   5.899   2.031 -0.3623 -0.0056  0.1078
 4691TIP3    H135488   0.784   5.841   1.955  0.0496 -0.9090  0.7833
 4691TIP3    H235489   0.798   5.841   2.106 -2.8775  0.6474  1.0897
 4692TIP3   OH235490   0.443   4.285  16.309 -0.2341  0.0486  0.6421
 4692TIP3    H135491   0.474   4.245  16.390  0.8965 -1.6604 -0.5833
 4692TIP3    H235492   0.352   4.256  16.302 -0.5260  0.7123  1.5976
 4693TIP3   OH235493   5.860   0.643  16.494 -0.3126 -0.0567  0.0674
 4693TIP3    H135494   5.854   0.598  16.578 -0.1217 -0.7827 -0.3028
 4693TIP3    H235495   5.813   0.725  16.507 -0.2300 -0.1373  0.9002
 4694TIP3   OH235496   1.934   6.551   1.047  0.0632 -0.0460 -0.0175
 4694TIP3    H135497   1.975   6.500   1.117  0.2264 -1.0367 -0.8275
 4694TIP3    H235498   1.927   6.639   1.083  0.4021 -0.4836  1.1456
 4695TIP3   OH235499   6.638   1.019  12.034 -0.0592 -0.1406 -1.0505
 4695TIP3    H135500   6.614   0.959  11.964 -0.1507 -0.0487 -1.0971
 4695TIP3    H235501   6.555   1.055  12.065 -0.0680 -0.6302 -0.4921
 4696TIP3   OH235502   6.075   5.897   1.283 -0.1735  0.1961 -0.0916
 4696TIP3    H135503   6.100   5.966   1.344 -0.7216  1.1831 -0.9800
 4696TIP3    H235504   5.991   5.864   1.317 -0.9892  1.4379 -0.8757
 4697TIP3   OH235505   1.540   3.237   5.918  0.3632 -0.1065 -0.0169
 4697TIP3    H135506   1.499   3.176   5.979  2.2057 -2.6891 -1.2664
 4697TIP3    H235507   1.630   3.245   5.949  0.8163  0.0095 -1.3150
 4698TIP3   OH235508   1.920   5.046   5.353 -0.1035  0.6632  0.3009
 4698TIP3    H135509   1.962   5.055   5.438  1.6204  1.4281 -0.6057
 4698TIP3    H235510   1.853   4.979   5.366 -0.2688  1.2166  2.3982
 4699TIP3   OH235511   6.574   1.860   4.000 -0.0380  0.5095 -0.4391
 4699TIP3    H135512   6.496   1.881   3.947 -0.4871  0.4296  0.1820
 4699TIP3    H235513   6.589   1.939   4.052 -1.0893 -0.3074  1.1264
 4700TIP3   OH235514   1.464   1.834   4.572  0.1533  0.1447 -0.7058
 4700TIP3    H135515   1.554   1.857   4.594  0.9545 -1.0394 -2.6213
 4700TIP3    H235516   1.462   1.833   4.476 -1.7526 -0.4019 -0.6782
 4701TIP3   OH235517   3.738   3.393  12.574 -0.4251 -0.0961  0.2767
 4701TIP3    H135518   3.832   3.378  12.574 -0.5267 -0.7821  0.5319
 4701TIP3    H235519   3.716   3.416  12.484 -0.1331 -0.6799  0.0610
 4702TIP3   OH235520   6.772   3.349  12.895 -0.1007 -0.1201  0.5669
 4702TIP3    H135521   6.781   3.331  12.801 -1.5590 -1.0326  0.5873
 4702TIP3    H235522   6.810   3.436  12.906 -0.1997  0.1310 -0.9373
 4703TIP3   OH235523   2.885   2.335  13.501  0.0421  0.1762  0.3970
 4703TIP3    H135524   2.949   2.329  13.430  1.3544 -0.8749  1.6541
 4703TIP3    H235525   2.851   2.424  13.494  1.3598  0.6270 -0.5238
 4704TIP3   OH235526   6.131   4.028   4.320 -0.1132 -0.3646  0.1474
 4704TIP3    H135527   6.183   3.972   4.261 -0.3328 -0.7175  0.2905
 4704TIP3    H235528   6.045   3.986   4.323 -0.2713 -0.0309  0.2732
 4705TIP3   OH235529   0.368   3.170  14.557  0.3757 -0.0695  0.4612
 4705TIP3    H135530   0.350   3.207  14.471 -0.4396  0.5004  0.8682
 4705TIP3    H235531   0.362   3.075  14.545  2.0019 -0.0744 -0.4772
 4706TIP3   OH235532   1.500   3.588   2.248 -0.4661  0.2859 -0.9374
 4706TIP3    H135533   1.452   3.505   2.250  2.1552 -1.2549 -0.3077
 4706TIP3    H235534   1.533   3.594   2.158 -0.3182  0.4677 -0.8711
 4707TIP3   OH235535   1.553   1.903   5.671  0.4318 -0.0965 -0.3425
 4707TIP3    H135536   1.483   1.867   5.725  1.3807 -0.1063  0.9343
 4707TIP3    H235537   1.593   1.827   5.628  1.3648 -0.4185  1.0436
 4708TIP3   OH235538   5.451   1.157  15.709  0.4593  0.2813 -0.4690
 4708TIP3    H135539   5.482   1.247  15.713 -0.2919  0.5229  0.1145
 4708TIP3    H235540   5.480   1.118  15.791 -1.9185  0.9075  0.7214
 4709TIP3   OH235541   5.697   0.476   0.402  0.2563  0.5788  0.0236
 4709TIP3    H135542   5.642   0.538   0.353 -0.0931 -0.2761 -0.6910
 4709TIP3    H235543   5.728   0.526   0.478 -2.3889  0.7856  1.0297
 4710TIP3   OH235544   2.938   2.607   3.482 -0.0324 -0.8236 -0.2204
 4710TIP3    H135545   3.011   2.665   3.462  0.2877 -1.0906  0.1657
 4710TIP3    H235546   2.909   2.633   3.570  0.9834 -2.1253  0.5267
 4711TIP3   OH235547   6.278   1.639  11.361 -0.3077 -0.3015  0.5297
 4711TIP3    H135548   6.227   1.607  11.435  0.0116 -2.0755  0.0040
 4711TIP3    H235549   6.249   1.587  11.286  1.1289 -0.2393 -0.0971
 4712TIP3   OH235550   3.190   0.214  12.937  0.6419  0.0656 -0.1458
 4712TIP3    H135551   3.122   0.282  12.939 -0.5412 -1.0877 -0.6261
 4712TIP3    H235552   3.242   0.231  13.016  0.5239  1.6805 -0.3921
 4713TIP3   OH235553   4.072   0.040   2.826 -0.4515 -0.2015 -0.5345
 4713TIP3    H135554   4.002  -0.024   2.811 -1.2605  0.6852 -0.6229
 4713TIP3    H235555   4.077   0.046   2.922  0.1831 -0.9956 -0.5178
 4714TIP3   OH235556   4.462   4.254   2.777  0.2937  0.3373 -0.3556
 4714TIP3    H135557   4.453   4.165   2.810  0.1444  0.0594 -1.1377
 4714TIP3    H235558   4.527   4.247   2.706  1.5797  1.1470  0.7164
 4715TIP3   OH235559   4.889   0.661   4.129 -0.3478  0.4138  0.1200
 4715TIP3    H135560   4.892   0.596   4.199 -3.5155  0.6073  0.5146
 4715TIP3    H235561   4.803   0.649   4.090  0.8460  1.2577 -2.8574
 4716TIP3   OH235562   3.913   2.579  12.361  0.3131  0.3645 -0.3946
 4716TIP3    H135563   3.850   2.612  12.425 -0.7691  0.8997 -1.7138
 4716TIP3    H235564   3.957   2.507  12.405 -0.8244  0.3560  0.7493
 4717TIP3   OH235565   2.247   1.971   2.500 -0.0296  0.2178  0.3924
 4717TIP3    H135566   2.329   1.923   2.515 -0.0996  0.5717  2.0461
 4717TIP3    H235567   2.270   2.063   2.512 -0.4072  0.4201 -0.4040
 4718TIP3   OH235568   4.169   5.523   5.615  0.5905  0.1856 -0.1581
 4718TIP3    H135569   4.201   5.613   5.615  1.6503 -0.1315  2.9024
 4718TIP3    H235570   4.158   5.502   5.708 -1.0787 -2.3383 -0.8976
 4719TIP3   OH235571   0.381   6.257  15.979  0.2939  0.3566  0.5441
 4719TIP3    H135572   0.381   6.302  15.894 -1.0306  1.3309  1.0376
 4719TIP3    H235573   0.296   6.280  16.018  1.0801  0.2995  2.3321
 4720TIP3   OH235574   6.297   2.876  12.755 -0.0935 -0.1965 -0.2896
 4720TIP3    H135575   6.322   2.787  12.728  0.9468  0.6929 -2.3870
 4720TIP3    H235576   6.216   2.893  12.706  0.1643  0.3142 -0.5385
 4721TIP3   OH235577   1.104   3.745  13.682 -0.0925 -0.2316  0.6087
 4721TIP3    H135578   1.014   3.720  13.663 -0.8992  1.3590  2.1523
 4721TIP3    H235579   1.137   3.781  13.600 -0.9021 -0.7111  0.0727
 4722TIP3   OH235580   1.444   1.327  11.269 -0.3428  0.2488  0.1544
 4722TIP3    H135581   1.517   1.269  11.249 -0.4214  0.6402 -1.3387
 4722TIP3    H235582   1.367   1.284  11.231 -1.0008 -0.4691  2.2689
 4723TIP3   OH235583   4.926   3.678   2.955 -0.0179  0.5095 -0.2825
 4723TIP3    H135584   5.017   3.690   2.982 -0.6509  0.2871  2.0493
 4723TIP3    H235585   4.901   3.593   2.992 -1.5790  1.1825  0.2322
 4724TIP3   OH235586   5.066   5.772   1.986 -0.5806  0.2502 -0.2898
 4724TIP3    H135587   5.060   5.690   1.937 -0.3750 -0.4916  0.9011
 4724TIP3    H235588   5.158   5.799   1.976 -0.8048  0.6761 -1.2152
 4725TIP3   OH235589   2.921   4.805   4.771 -0.0435 -0.2148  0.1726
 4725TIP3    H135590   3.009   4.769   4.773 -0.2518 -0.7509 -0.1107
 4725TIP3    H235591   2.915   4.859   4.849  1.0562  1.0520 -0.6066
 4726TIP3   OH235592   0.903   2.219  14.535 -0.7375 -0.7425 -0.4007
 4726TIP3    H135593   0.949   2.146  14.493 -2.7818 -1.4350 -1.4955
 4726TIP3    H235594   0.932   2.296  14.487  1.2307 -0.8314  0.5874
 4727TIP3   OH235595   3.022   5.233   4.758 -0.2105 -0.2853 -0.6303
 4727TIP3    H135596   2.978   5.218   4.674 -0.2140  0.5331 -0.7802
 4727TIP3    H235597   3.082   5.158   4.767 -0.8151 -0.8133 -0.9593
 4728TIP3   OH235598   5.430   2.485   0.261  0.4936 -0.3590  0.4043
 4728TIP3    H135599   5.507   2.428   0.253 -0.6196 -1.7721 -0.5582
 4728TIP3    H235600   5.362   2.439   0.212 -0.3740  1.9314 -0.5796
 4729TIP3   OH235601   3.949   6.545  12.907  0.4636 -0.0536 -0.2655
 4729TIP3    H135602   3.903   6.629  12.909  1.0362  0.2603 -0.4646
 4729TIP3    H235603   4.039   6.566  12.930  0.3537 -0.7860  0.8769
 4730TIP3   OH235604   5.532   3.106   0.403  0.5824 -0.3050 -0.2685
 4730TIP3    H135605   5.449   3.109   0.450  1.8352 -1.8057  2.1399
 4730TIP3    H235606   5.577   3.187   0.429  1.4455 -1.3279  1.5350
 4731TIP3   OH235607   3.673   1.602  14.608  0.1818 -0.0841 -0.0188
 4731TIP3    H135608   3.761   1.633  14.627 -0.3739  1.0311  0.7659
 4731TIP3    H235609   3.632   1.674  14.560 -0.3949 -0.4942 -0.1434
 4732TIP3   OH235610   2.420   5.981   2.876 -0.4498  0.5293 -0.0516
 4732TIP3    H135611   2.340   5.929   2.869 -0.8219  1.1079 -0.1500
 4732TIP3    H235612   2.413   6.023   2.962 -0.0571  0.2723  0.1098
 4733TIP3   OH235613   6.175   2.420   1.560 -0.2041  0.2974  0.0273
 4733TIP3    H135614   6.215   2.467   1.487  2.9839 -1.0642  0.8102
 4733TIP3    H235615   6.200   2.329   1.546 -0.2187 -0.0994  2.3922
 4734TIP3   OH235616   1.417   3.162   1.281  0.8890  0.4574  0.4504
 4734TIP3    H135617   1.492   3.207   1.242  0.9638 -0.9347 -1.0658
 4734TIP3    H235618   1.341   3.200   1.238  0.8013  0.9285  1.0203
 4735TIP3   OH235619   3.322   2.410  14.676  0.0362 -0.3342  0.2398
 4735TIP3    H135620   3.284   2.330  14.638  0.6078 -0.9771  0.9882
 4735TIP3    H235621   3.283   2.481  14.626 -1.0534 -1.0494  0.0500
 4736TIP3   OH235622   4.012   1.893   1.613  0.9812 -0.0313  0.4359
 4736TIP3    H135623   4.088   1.936   1.653  0.3971  0.4315  1.0467
 4736TIP3    H235624   4.015   1.922   1.521  1.8644 -0.4687  0.3204
 4737TIP3   OH235625   1.333   4.797  16.033 -0.6925 -0.1395 -0.0144
 4737TIP3    H135626   1.319   4.854  15.957  0.3501  0.1389  0.0025
 4737TIP3    H235627   1.370   4.717  15.996  0.5283  0.2838  0.2800
 4738TIP3   OH235628   4.903   5.041  16.439 -0.3716 -0.0994  0.3741
 4738TIP3    H135629   4.913   5.084  16.524  2.2586 -1.7650  0.9727
 4738TIP3    H235630   4.921   4.949  16.457  1.5015 -0.2779 -2.2000
 4739TIP3   OH235631   4.310   0.852   4.152  0.4431 -0.0798 -0.4521
 4739TIP3    H135632   4.373   0.905   4.104  0.9281 -0.2266  0.0260
 4739TIP3    H235633   4.301   0.772   4.100 -0.3667  0.5114 -1.2259
 4740TIP3   OH235634   4.896   2.671   3.598  0.1103 -0.4867  0.2512
 4740TIP3    H135635   4.897   2.657   3.503 -1.9048 -0.7698  0.2411
 4740TIP3    H235636   4.880   2.765   3.609 -1.4102 -0.7414  0.2954
 4741TIP3   OH235637   6.390   1.551   0.139  0.1097 -0.1010  0.4878
 4741TIP3    H135638   6.483   1.569   0.126  0.6505 -1.2879  2.5149
 4741TIP3    H235639   6.346   1.614   0.083  2.1221  1.1781  0.2825
 4742TIP3   OH235640   1.461   4.997   1.152  0.8378 -0.0635 -0.0445
 4742TIP3    H135641   1.395   5.064   1.131  0.6082 -0.1883  0.2777
 4742TIP3    H235642   1.543   5.046   1.159  1.2134 -0.2238 -2.8226
 4743TIP3   OH235643   3.652   0.956   2.459  0.4623  0.4244  0.0299
 4743TIP3    H135644   3.637   1.012   2.383 -0.5902  1.3760  0.9087
 4743TIP3    H235645   3.721   1.001   2.508  0.9647 -0.0556 -0.2407
 4744TIP3   OH235646   4.297   5.359  13.547  0.6871  0.2718 -0.5397
 4744TIP3    H135647   4.223   5.322  13.595  0.8430  1.0234  0.2764
 4744TIP3    H235648   4.353   5.283  13.528  0.3852 -0.0932  0.0316
 4745TIP3   OH235649   5.704   3.366   0.782  0.1759  0.1374  0.3102
 4745TIP3    H135650   5.673   3.279   0.807  0.4587 -0.1307 -0.2580
 4745TIP3    H235651   5.798   3.354   0.767  0.0502  0.3519 -0.6362
 4746TIP3   OH235652   2.853   0.474  14.985 -0.1797  0.4667  0.6819
 4746TIP3    H135653   2.799   0.448  15.060 -1.1699  0.4952 -0.0053
 4746TIP3    H235654   2.906   0.546  15.018 -1.5077  1.3095  1.0286
 4747TIP3   OH235655   5.972   4.408   5.220 -0.2325 -0.3218 -0.0699
 4747TIP3    H135656   5.918   4.334   5.190  0.7907 -0.9329 -0.4120
 4747TIP3    H235657   5.997   4.385   5.309  2.5084 -1.7788 -1.1711
 4748TIP3   OH235658   5.226   0.231   0.970  0.7139 -0.0315  0.3082
 4748TIP3    H135659   5.181   0.313   0.950  1.3882  0.7029  1.6877
 4748TIP3    H235660   5.228   0.183   0.887  0.1716  1.2745 -0.4752
 4749TIP3   OH235661   4.137   5.454  12.696 -0.1929  0.6273 -0.1985
 4749TIP3    H135662   4.111   5.407  12.775 -0.0398 -0.2904 -0.6922
 4749TIP3    H235663   4.157   5.543  12.726 -0.9409  0.5047  0.6574
 4750TIP3   OH235664   4.033   2.911   0.810 -0.0056 -0.0568 -0.1517
 4750TIP3    H135665   3.976   2.865   0.748 -1.0473  0.7500  0.1963
 4750TIP3    H235666   4.079   2.841   0.856 -0.6690 -0.7165 -0.4740
 4751TIP3   OH235667   1.135   4.353  17.069 -0.2673 -0.3097 -0.7529
 4751TIP3    H135668   1.086   4.362  17.151 -0.9399 -0.2805 -1.1552
 4751TIP3    H235669   1.076   4.388  17.002  0.4498  0.0524 -1.1925
 4752TIP3   OH235670   6.461   5.812   2.034 -0.3403 -0.3686 -0.3183
 4752TIP3    H135671   6.420   5.763   2.105  0.4931  0.8359  1.0164
 4752TIP3    H235672   6.505   5.885   2.077 -0.3757  0.7640 -2.1447
 4753TIP3   OH235673   3.198   1.185  14.201 -0.5887 -0.4540  0.3988
 4753TIP3    H135674   3.230   1.152  14.117 -1.0641  1.9470 -0.7665
 4753TIP3    H235675   3.247   1.136  14.266  1.8776 -0.3528 -1.3108
 4754TIP3   OH235676   3.598   5.564   3.143 -0.0195  0.2006  0.2935
 4754TIP3    H135677   3.586   5.652   3.179 -0.5597  0.6799 -1.0334
 4754TIP3    H235678   3.688   5.563   3.111  0.0541  0.2069  0.5032
 4755TIP3   OH235679   5.191   3.746   0.958 -0.4999  0.1313 -0.2577
 4755TIP3    H135680   5.284   3.726   0.945 -0.2252  1.0411  0.2679
 4755TIP3    H235681   5.188   3.795   1.040 -1.4596  0.0334 -0.2282
 4756TIP3   OH235682   5.456   4.790   1.118  0.0102 -0.4057  0.0939
 4756TIP3    H135683   5.414   4.869   1.151 -0.5193  0.0847 -1.6539
 4756TIP3    H235684   5.384   4.738   1.081  0.7740 -0.0052 -2.0428
 4757TIP3   OH235685   1.738   0.072  12.703 -0.5752 -0.1168  0.2390
 4757TIP3    H135686   1.664   0.097  12.648  1.1458  2.1098 -1.1688
 4757TIP3    H235687   1.774  -0.006  12.660  0.2776  1.1432 -1.4064
 4758TIP3   OH235688   4.651   2.169   1.664  0.3053 -0.3821 -0.2472
 4758TIP3    H135689   4.699   2.097   1.706 -1.3098 -0.6514  1.1647
 4758TIP3    H235690   4.698   2.248   1.691 -1.0457 -0.4998  2.5571
 4759TIP3   OH235691   5.519   3.983   2.616 -0.0563 -0.0080  0.2112
 4759TIP3    H135692   5.536   3.896   2.580  1.9614  1.2134 -1.9219
 4759TIP3    H235693   5.427   4.000   2.596 -0.5639 -1.7681  0.9497
 4760TIP3   OH235694   3.032   2.387  11.361 -0.0558 -0.1109 -0.2224
 4760TIP3    H135695   2.998   2.354  11.278 -0.3754 -1.1979  0.3339
 4760TIP3    H235696   2.972   2.352  11.427 -0.0198  1.0399  0.4481
 4761TIP3   OH235697   5.554   5.743   4.676  0.6568 -0.6312 -0.6652
 4761TIP3    H135698   5.625   5.704   4.727 -1.7610 -1.9440  1.8080
 4761TIP3    H235699   5.509   5.801   4.738 -0.8460 -0.3612 -1.9893
 4762TIP3   OH235700   6.621   3.799  13.864 -0.5473  0.8218 -0.1321
 4762TIP3    H135701   6.537   3.802  13.818 -0.0393 -1.7050 -1.2639
 4762TIP3    H235702   6.600   3.765  13.951 -0.7777  0.7900 -0.2019
 4763TIP3   OH235703   4.050   2.971  16.553 -0.4221 -0.2483  0.0360
 4763TIP3    H135704   4.126   2.940  16.602  0.1037  0.3540 -0.3894
 4763TIP3    H235705   4.010   3.037  16.609 -0.8666 -0.8563  0.4355
 4764TIP3   OH235706   6.699   4.366   0.217 -0.4068  0.0496  0.2501
 4764TIP3    H135707   6.698   4.456   0.251 -0.1385  0.1289  0.0571
 4764TIP3    H235708   6.612   4.332   0.236 -0.7345  0.5753 -0.2583
 4765TIP3   OH235709   0.683   0.001   5.215  0.0006 -0.3422  0.1448
 4765TIP3    H135710   0.659   0.032   5.302 -3.6048 -1.2963 -0.4248
 4765TIP3    H235711   0.718   0.078   5.170 -0.0593  0.6385  1.7630
 4766TIP3   OH235712   2.579   6.540  14.338 -0.1646 -0.0652  1.1278
 4766TIP3    H135713   2.501   6.595  14.349  0.7387  1.4021  0.2471
 4766TIP3    H235714   2.617   6.534  14.426 -0.9723 -0.3639  1.4653
 4767TIP3   OH235715   3.285   4.726  13.037 -0.3428 -0.0299  0.3836
 4767TIP3    H135716   3.379   4.726  13.016 -0.1863 -0.6641  1.0437
 4767TIP3    H235717   3.273   4.646  13.088 -0.8349  1.1271  2.1089
 4768TIP3   OH235718   4.872   2.158   4.437 -0.3803 -0.1510 -0.2582
 4768TIP3    H135719   4.782   2.129   4.423 -1.1879  1.4931  1.2403
 4768TIP3    H235720   4.906   2.099   4.504 -1.5285  1.3472  1.7080
 4769TIP3   OH235721   6.746   6.585   1.548  0.2743 -0.0572 -0.2315
 4769TIP3    H135722   6.736   6.664   1.601 -1.3787  0.3996 -1.1809
 4769TIP3    H235723   6.714   6.514   1.605 -2.1752  0.5216 -0.8194
 4770TIP3   OH235724   0.342   6.521  10.914 -0.0912  0.5421  0.3481
 4770TIP3    H135725   0.289   6.442  10.924  2.1321 -1.2569 -1.3641
 4770TIP3    H235726   0.282   6.585  10.876 -2.2226  0.0840  2.8079
 4771TIP3   OH235727   6.667   4.001   1.155 -0.2759 -0.2758  0.1861
 4771TIP3    H135728   6.674   3.906   1.165  1.6643 -0.2192 -0.4185
 4771TIP3    H235729   6.723   4.021   1.080  1.3684  1.6444  1.8818
 4772TIP3   OH235730   3.450   5.630   6.270  0.1237  0.7081 -0.0786
 4772TIP3    H135731   3.416   5.672   6.349 -0.0194 -0.1458  0.3213
 4772TIP3    H235732   3.510   5.563   6.303 -2.9886 -2.3978 -0.5442
 4773TIP3   OH235733   0.832   4.841  11.571  0.0211 -0.3056  0.0237
 4773TIP3    H135734   0.872   4.755  11.589  1.1465  0.3003  0.4691
 4773TIP3    H235735   0.738   4.827  11.585  0.0664 -1.7334 -0.9546
 4774TIP3   OH235736   4.916   5.696  12.163  0.2260  0.1806  0.1462
 4774TIP3    H135737   4.932   5.790  12.173 -1.0356  0.3677  0.5341
 4774TIP3    H235738   4.985   5.654  12.214  1.3482  0.8755 -0.7750
 4775TIP3   OH235739   3.528   3.696  10.979 -0.1653  0.2594  0.1282
 4775TIP3    H135740   3.440   3.720  10.949 -0.6837  0.7312  1.9497
 4775TIP3    H235741   3.566   3.648  10.906 -1.4001  1.3123 -1.2408
 4776TIP3   OH235742   0.095   2.966   4.226  0.0317 -0.2873 -0.4835
 4776TIP3    H135743   0.069   2.918   4.305 -3.1995  3.0848  0.6555
 4776TIP3    H235744   0.066   2.910   4.154 -2.8364 -0.5530  0.7954
 4777TIP3   OH235745   1.585   4.786  12.991  0.6963 -0.0577  0.2837
 4777TIP3    H135746   1.515   4.747  13.043 -0.2128  0.3454 -0.6365
 4777TIP3    H235747   1.619   4.857  13.046  0.5223 -0.3753  0.8036
 4778TIP3   OH235748   5.965   1.729   5.150  0.3976  0.0011  0.3037
 4778TIP3    H135749   5.959   1.685   5.235  0.2046 -0.9507 -0.1953
 4778TIP3    H235750   5.875   1.758   5.132  0.3007 -0.4137  0.1067
 4779TIP3   OH235751   5.354   1.869  17.057  0.0313  0.2935  0.3378
 4779TIP3    H135752   5.281   1.918  17.021  1.5184  1.9058 -0.5965
 4779TIP3    H235753   5.317   1.818  17.128 -2.1374  0.4286 -0.6716
 4780TIP3   OH235754   3.259   5.026   2.163 -0.1895 -0.1570  0.1295
 4780TIP3    H135755   3.321   4.953   2.161 -1.8817 -1.6690  0.5016
 4780TIP3    H235756   3.271   5.072   2.080 -0.9235 -2.4842 -1.3125
 4781TIP3   OH235757   4.888   0.882  14.257  0.1328 -0.4174 -0.0448
 4781TIP3    H135758   4.949   0.948  14.291 -1.8495  1.7727 -0.6219
 4781TIP3    H235759   4.866   0.828  14.333  1.0847  0.1409  0.6306
 4782TIP3   OH235760   5.768   1.524  11.847 -0.5103  0.1382 -0.2120
 4782TIP3    H135761   5.789   1.609  11.885 -2.0881  0.3709  0.1632
 4782TIP3    H235762   5.744   1.469  11.921  2.2158 -1.1804 -0.2569
 4783TIP3   OH235763   3.066   3.786   5.121 -0.5732 -0.4477  0.4717
 4783TIP3    H135764   3.052   3.859   5.181  1.2752  0.9233 -0.7375
 4783TIP3    H235765   2.995   3.725   5.141 -1.5950  1.2430  2.1283
 4784TIP3   OH235766   0.867   6.232   3.374 -0.3023  0.3174  0.2864
 4784TIP3    H135767   0.811   6.259   3.447 -2.6916 -0.4902 -1.1623
 4784TIP3    H235768   0.842   6.290   3.302  0.6836 -0.1086 -0.4001
 4785TIP3   OH235769   3.925   3.259   3.369 -0.2371  0.2585  0.0854
 4785TIP3    H135770   3.994   3.325   3.371 -1.3606  1.4237  2.0028
 4785TIP3    H235771   3.971   3.176   3.354  1.5080  1.0849  0.7618
 4786TIP3   OH235772   2.229   5.625   0.389 -0.0199  0.1228 -0.4880
 4786TIP3    H135773   2.237   5.680   0.467 -0.0986 -0.3272 -0.1633
 4786TIP3    H235774   2.229   5.536   0.422  0.0455 -0.0747 -1.0132
 4787TIP3   OH235775   4.076   0.743  11.352 -0.3324  0.0445  0.3695
 4787TIP3    H135776   4.144   0.736  11.285 -1.5863  2.4652 -1.2371
 4787TIP3    H235777   4.118   0.791  11.423  0.0784  0.2049  0.0229
 4788TIP3   OH235778   2.724   6.071  15.886 -0.0777 -0.4008 -0.2277
 4788TIP3    H135779   2.684   6.096  15.969  2.1358 -0.4530  0.8948
 4788TIP3    H235780   2.658   6.093  15.820 -1.8978 -0.4321  1.5341
 4789TIP3   OH235781   3.207   0.924   6.203  0.3028 -0.1232 -0.4543
 4789TIP3    H135782   3.133   0.880   6.245  0.6465  1.7877  2.2981
 4789TIP3    H235783   3.249   0.856   6.151 -0.7215 -2.3832  1.5476
 4790TIP3   OH235784   4.485   1.339   3.785 -0.2069 -0.4706  0.2793
 4790TIP3    H135785   4.509   1.382   3.867 -3.7866  2.1385  0.0502
 4790TIP3    H235786   4.569   1.313   3.746  2.0018  4.0897  1.6485
 4791TIP3   OH235787   2.300   4.647   1.413  0.1484  0.1760  0.3585
 4791TIP3    H135788   2.212   4.649   1.375  0.3895 -1.1452 -0.3064
 4791TIP3    H235789   2.323   4.554   1.414  1.2642  0.4546  1.1712
 4792TIP3   OH235790   5.433   0.875  15.881  0.1150 -0.2703  0.0457
 4792TIP3    H135791   5.349   0.865  15.925  0.1019 -1.7767 -0.3032
 4792TIP3    H235792   5.496   0.886  15.952 -0.2812  0.1858  0.3289
 4793TIP3   OH235793   0.983   3.053  11.539  0.1106 -0.3882  0.1481
 4793TIP3    H135794   0.967   2.984  11.603  1.3730  0.2529  1.1938
 4793TIP3    H235795   0.951   3.133  11.581  0.5347 -0.0371 -0.1898
 4794TIP3   OH235796   4.956   4.303   2.655 -0.1048  0.5072 -0.0824
 4794TIP3    H135797   4.945   4.383   2.706 -2.1648  0.5133 -0.4885
 4794TIP3    H235798   4.891   4.243   2.690  2.0432 -1.3638  0.8636
 4795TIP3   OH235799   3.875   6.005   0.207 -0.0909 -0.6957  0.2324
 4795TIP3    H135800   3.960   5.998   0.164 -0.6504 -0.3269 -0.9580
 4795TIP3    H235801   3.822   6.059   0.148 -1.2015 -1.0583  0.8737
 4796TIP3   OH235802   6.202   3.333   5.282 -0.0377 -0.1266  0.6578
 4796TIP3    H135803   6.157   3.264   5.329 -1.4620  0.4201  0.1189
 4796TIP3    H235804   6.267   3.287   5.228  0.2682 -0.8878  1.6660
 4797TIP3   OH235805   4.761   5.745   1.907 -0.0046  0.4574 -0.4708
 4797TIP3    H135806   4.757   5.677   1.840 -0.0663 -0.3583  0.3316
 4797TIP3    H235807   4.853   5.751   1.931 -0.0085  0.5973 -0.4926
 4798TIP3   OH235808   3.889   2.952  14.314 -0.6854  0.2175  0.2442
 4798TIP3    H135809   3.843   2.921  14.392 -0.0768 -0.2214  0.4367
 4798TIP3    H235810   3.936   3.030  14.344 -2.8476  1.8299 -0.4362
 4799TIP3   OH235811   2.680   0.958  13.104 -0.2867  0.0778  0.4644
 4799TIP3    H135812   2.686   0.891  13.172 -1.0639 -0.3988  0.0673
 4799TIP3    H235813   2.596   1.001  13.121 -0.3597  0.1316 -0.0375
 4800TIP3   OH235814   1.659   0.819  15.296  0.0312  0.0700 -0.1925
 4800TIP3    H135815   1.681   0.727  15.313 -0.0871 -0.0996 -0.9223
 4800TIP3    H235816   1.585   0.838  15.354 -2.6391 -1.5105 -2.9213
 4801TIP3   OH235817   3.381   1.686  14.220  0.0379  0.1965  0.4703
 4801TIP3    H135818   3.342   1.622  14.278 -1.4627  1.0311  0.3961
 4801TIP3    H235819   3.337   1.672  14.136  1.0364  0.0803 -0.0451
 4802TIP3   OH235820   0.998   5.027   0.670  0.1214 -0.5655 -0.1637
 4802TIP3    H135821   0.976   5.031   0.577  0.1921  3.2203 -0.0879
 4802TIP3    H235822   1.036   5.113   0.690 -0.1125 -1.1966  3.4053
 4803TIP3   OH235823   3.805   5.676   4.856 -0.0057  0.2308  0.3460
 4803TIP3    H135824   3.745   5.602   4.845 -2.0061  1.3770  3.0277
 4803TIP3    H235825   3.873   5.643   4.914  0.2102 -0.0720 -0.0695
 4804TIP3   OH235826   5.466   4.892  12.752 -0.3036 -0.0946 -0.4645
 4804TIP3    H135827   5.430   4.860  12.835  1.6293  0.7815  0.7317
 4804TIP3    H235828   5.394   4.938  12.711 -0.9567  0.4608  1.2672
 4805TIP3   OH235829   3.268   4.931  12.833 -0.6188  0.0472 -0.7345
 4805TIP3    H135830   3.182   4.972  12.822 -0.5361  0.4214 -0.0279
 4805TIP3    H235831   3.259   4.880  12.914 -0.0433  0.4139 -0.4410
 4806TIP3   OH235832   3.200   0.667  12.541 -0.2246  0.2787  0.7947
 4806TIP3    H135833   3.130   0.726  12.568 -0.7009 -0.5291  1.3261
 4806TIP3    H235834   3.280   0.704  12.579 -0.4261  0.9383  0.5779
 4807TIP3   OH235835   2.924   1.190   3.703  0.2820 -0.1201  0.4787
 4807TIP3    H135836   2.929   1.193   3.798  0.0459  2.4567  0.4235
 4807TIP3    H235837   2.859   1.122   3.685  1.8644 -2.1192  2.0745
 4808TIP3   OH235838   5.924   4.663   6.028  0.2232 -0.1684 -0.2234
 4808TIP3    H135839   5.962   4.725   6.090 -0.7147  0.6503 -0.4606
 4808TIP3    H235840   5.902   4.587   6.082 -1.8582  1.0702  0.7244
 4809TIP3   OH235841   5.096   3.460  12.701 -0.4237 -0.1261 -0.2683
 4809TIP3    H135842   5.045   3.494  12.627  1.7570  2.3491 -0.6994
 4809TIP3    H235843   5.098   3.532  12.764  1.5923 -0.5910  0.2227
 4810TIP3   OH235844   0.227   0.936  14.367 -0.0308  0.0872  0.2422
 4810TIP3    H135845   0.303   0.980  14.406 -0.4600 -0.6667  2.0189
 4810TIP3    H235846   0.160   0.940  14.435 -0.2549 -2.8156  0.2834
 4811TIP3   OH235847   4.406   1.108   5.042  0.3235 -0.1133 -0.0093
 4811TIP3    H135848   4.321   1.142   5.070  0.8912  0.6684  0.7965
 4811TIP3    H235849   4.419   1.029   5.095 -0.1200 -0.5064 -0.4857
 4812TIP3   OH235850   5.395   3.048   3.492 -0.4105  0.7114  0.2148
 4812TIP3    H135851   5.361   3.098   3.418 -0.3541  0.2162 -0.1412
 4812TIP3    H235852   5.490   3.050   3.481 -0.5099 -1.9174 -1.3904
 4813TIP3   OH235853   0.465   4.395   3.951  0.0841  0.6892  0.0201
 4813TIP3    H135854   0.490   4.328   3.887 -0.4415  0.8469 -0.3567
 4813TIP3    H235855   0.386   4.360   3.992  0.8480  0.2412  1.1333
 4814TIP3   OH235856   5.232   4.066  14.815 -0.1665  0.0082 -0.4261
 4814TIP3    H135857   5.174   3.999  14.778  0.8787 -1.7171  0.9891
 4814TIP3    H235858   5.175   4.141  14.831 -2.1413 -1.8305  1.4043
 4815TIP3   OH235859   0.182   2.581   4.253 -0.1756 -0.3863 -0.4568
 4815TIP3    H135860   0.261   2.607   4.206 -0.5063 -0.5380 -1.1065
 4815TIP3    H235861   0.187   2.486   4.260  0.6265 -0.2280  1.1847
 4816TIP3   OH235862   1.704   1.877  11.936  0.5616  0.0348  0.0388
 4816TIP3    H135863   1.791   1.890  11.899  0.6863 -0.3141  0.2084
 4816TIP3    H235864   1.706   1.788  11.971 -0.3117 -0.4631 -1.1726
 4817TIP3   OH235865   1.800   0.188   5.942  0.2233 -0.1157  0.4307
 4817TIP3    H135866   1.785   0.107   5.991 -1.2642  1.0264  1.8753
 4817TIP3    H235867   1.786   0.258   6.005  1.8628  1.2877 -0.7192
 4818TIP3   OH235868   3.594   4.061  14.120 -0.0956  0.4133 -0.6060
 4818TIP3    H135869   3.635   4.011  14.049 -1.4424 -0.5985 -0.6838
 4818TIP3    H235870   3.658   4.129  14.141  1.7581 -1.3457 -0.4909
 4819TIP3   OH235871   3.774   1.720  14.268  1.0893 -0.5722 -0.9046
 4819TIP3    H135872   3.762   1.635  14.227  2.0825 -0.9944 -0.3288
 4819TIP3    H235873   3.864   1.745  14.247  1.3202 -0.3964  0.2831
 4820TIP3   OH235874   0.650   6.698   3.736  0.0963 -0.4902  0.1384
 4820TIP3    H135875   0.583   6.767   3.739  0.7887  0.2051 -0.0266
 4820TIP3    H235876   0.669   6.679   3.827 -0.0335 -0.3943  0.1865
 4821TIP3   OH235877   4.653   1.638   5.125 -0.2732  0.4332  0.0013
 4821TIP3    H135878   4.673   1.550   5.157  1.4603  0.9862  0.5231
 4821TIP3    H235879   4.613   1.682   5.200  0.4169  0.6002  0.2771
 4822TIP3   OH235880   1.671   5.141   3.648  0.5742 -0.2106 -0.3247
 4822TIP3    H135881   1.687   5.060   3.601  1.4746 -0.8151  0.9917
 4822TIP3    H235882   1.585   5.170   3.617 -0.9008 -2.9832  0.9983
 4823TIP3   OH235883   1.440   1.631   0.323  0.3998  0.1339 -0.5768
 4823TIP3    H135884   1.435   1.628   0.419  1.7467  0.7902 -0.4760
 4823TIP3    H235885   1.505   1.565   0.300  0.3519  0.2345 -1.0135
 4824TIP3   OH235886   4.445   0.386  13.952 -0.1482  0.1328  0.4469
 4824TIP3    H135887   4.534   0.363  13.927 -0.2444 -0.1268  0.3446
 4824TIP3    H235888   4.402   0.302  13.970 -0.7108  0.1857 -0.6258
 4825TIP3   OH235889   5.574   6.772   6.639  0.0868  0.0703  0.7737
 4825TIP3    H135890   5.653   6.825   6.633 -0.6602  1.1300 -0.0586
 4825TIP3    H235891   5.514   6.824   6.692 -0.5159 -0.1223  0.2857
 4826TIP3   OH235892   3.780   4.251  14.127 -0.5188 -0.2409  0.1039
 4826TIP3    H135893   3.793   4.247  14.222  0.5813  0.5251  0.0004
 4826TIP3    H235894   3.763   4.344  14.109 -0.9613 -0.4234 -0.4198
 4827TIP3   OH235895   2.841   0.449  11.724 -0.3989 -0.0243  0.2340
 4827TIP3    H135896   2.799   0.388  11.785 -0.7806  0.6342  0.6345
 4827TIP3    H235897   2.776   0.517  11.710  0.3578  0.7570  0.4853
 4828TIP3   OH235898   1.710   5.571   4.286 -0.1725  1.0207  0.3274
 4828TIP3    H135899   1.747   5.596   4.201  3.6843  0.8271  1.8485
 4828TIP3    H235900   1.678   5.482   4.273  4.0706 -0.6006 -0.0043
 4829TIP3   OH235901   5.728   5.200  11.992 -0.0925  0.4793 -0.0027
 4829TIP3    H135902   5.688   5.166  12.072  0.5474 -1.3942 -0.4574
 4829TIP3    H235903   5.821   5.178  12.000  0.3908  2.2771 -0.2575
 4830TIP3   OH235904   3.080   1.676   5.981 -0.8458  0.5159  0.1566
 4830TIP3    H135905   3.152   1.701   6.039 -0.9458  2.6052 -0.5719
 4830TIP3    H235906   3.021   1.752   5.983 -3.3663 -1.3893  1.2275
 4831TIP3   OH235907   2.292   1.159  17.193 -0.1920 -0.6628  0.1678
 4831TIP3    H135908   2.279   1.067  17.213 -1.4289 -0.6117 -0.4034
 4831TIP3    H235909   2.349   1.160  17.116  0.6449 -0.9256  0.7713
 4832TIP3   OH235910   3.468   3.253   1.417 -0.2349  0.6060 -0.3570
 4832TIP3    H135911   3.472   3.309   1.495 -2.6382  1.1421 -0.5953
 4832TIP3    H235912   3.537   3.188   1.431 -0.2712  1.0250  1.9775
 4833TIP3   OH235913   2.868   6.673  17.031 -0.1062  0.0407  0.2640
 4833TIP3    H135914   2.809   6.603  17.060  0.6644 -0.1205  1.4621
 4833TIP3    H235915   2.956   6.637  17.043  0.2441  0.1989 -1.7394
 4834TIP3   OH235916   6.255   6.704   5.538  0.1051 -0.4539  0.1719
 4834TIP3    H135917   6.334   6.664   5.573  0.3415  1.2855  1.7348
 4834TIP3    H235918   6.197   6.714   5.614 -1.1816 -0.6933 -0.7495
 4835TIP3   OH235919   1.369   1.884   1.813  0.1448  0.6102 -0.5110
 4835TIP3    H135920   1.356   1.934   1.894  0.0058  0.7401 -0.6133
 4835TIP3    H235921   1.320   1.803   1.826 -2.3369  1.9020 -1.6466
 4836TIP3   OH235922   4.094   2.807   6.396 -0.6170 -0.1759  0.3217
 4836TIP3    H135923   4.092   2.739   6.463  0.0296  0.4857  1.0305
 4836TIP3    H235924   4.003   2.814   6.366 -1.3675  1.0886  2.7470
 4837TIP3   OH235925   4.017   6.511  15.579  0.4205  0.1445  0.0191
 4837TIP3    H135926   3.938   6.556  15.547  1.2135  1.3625 -0.2461
 4837TIP3    H235927   4.057   6.474  15.501  0.6864  0.4523  0.0085
 4838TIP3   OH235928   0.554   6.647   4.948  0.3931  0.1707 -0.4125
 4838TIP3    H135929   0.598   6.683   5.026 -1.3585 -1.1783  1.2619
 4838TIP3    H235930   0.508   6.569   4.981 -0.3447 -0.4469 -2.8292
 4839TIP3   OH235931   3.528   0.165  14.247 -0.0581 -0.3728 -0.2303
 4839TIP3    H135932   3.619   0.153  14.273 -0.2427 -0.8444  0.1898
 4839TIP3    H235933   3.532   0.183  14.153  0.4330 -0.8229 -0.2922
 4840TIP3   OH235934   1.869   1.302   1.229 -0.0268 -0.1831 -0.8954
 4840TIP3    H135935   1.908   1.242   1.292 -0.2150  0.9887  0.3544
 4840TIP3    H235936   1.939   1.317   1.164  0.8908  0.2508  0.1789
 4841TIP3   OH235937   3.082   4.647  14.787 -0.1202  0.0764 -0.1625
 4841TIP3    H135938   3.160   4.595  14.807  0.6774  1.2351 -0.1671
 4841TIP3    H235939   3.015   4.583  14.764  0.7980 -0.9445 -0.0299
 4842TIP3   OH235940   2.554   4.127  14.518  0.2781 -0.0549 -0.0563
 4842TIP3    H135941   2.592   4.142  14.604  0.5941 -0.5740 -0.1023
 4842TIP3    H235942   2.629   4.130  14.458  0.1541 -0.3816 -0.2287
 4843TIP3   OH235943   2.650   6.549  14.609 -0.3904  0.9420 -0.1958
 4843TIP3    H135944   2.729   6.508  14.644 -0.8667 -0.9382 -1.2444
 4843TIP3    H235945   2.650   6.637  14.647  1.9045  0.7912  0.2520
 4844TIP3   OH235946   1.147   6.367  13.028  0.4052  0.2821 -0.1964
 4844TIP3    H135947   1.242   6.356  13.022  0.3247 -0.6018  0.0534
 4844TIP3    H235948   1.135   6.458  13.056  1.1920  0.2809  0.1508
 4845TIP3   OH235949   4.524   3.413   0.356 -0.0072 -0.0511 -0.1545
 4845TIP3    H135950   4.557   3.378   0.438  0.0336 -1.5794 -0.8184
 4845TIP3    H235951   4.432   3.387   0.353 -0.3483  1.0898 -0.0082
 4846TIP3   OH235952   2.298   3.473   1.487 -0.0756 -0.2694  0.3081
 4846TIP3    H135953   2.301   3.398   1.429  2.1001 -0.6612  0.8805
 4846TIP3    H235954   2.223   3.525   1.457 -0.1845 -1.4813 -1.5355
 4847TIP3   OH235955   0.611   5.113  15.554  0.1351  0.4909  0.6777
 4847TIP3    H135956   0.621   5.197  15.510  0.6442  0.9933  1.7089
 4847TIP3    H235957   0.596   5.050  15.484 -0.2647  1.4459 -0.1036
 4848TIP3   OH235958   3.557   4.858  14.563  0.1829  0.3157  0.1177
 4848TIP3    H135959   3.492   4.815  14.620  2.9625 -2.6079  1.2501
 4848TIP3    H235960   3.555   4.950  14.590 -0.9143 -0.4046  2.6995
 4849TIP3   OH235961   2.845   6.621  13.040  0.0069 -0.3089 -0.0467
 4849TIP3    H135962   2.820   6.555  12.976 -1.4103  0.6513 -0.4857
 4849TIP3    H235963   2.938   6.638  13.021  0.5036 -2.4425  0.3360
 4850TIP3   OH235964   0.152   4.973  13.419 -0.0057  0.3786 -0.0583
 4850TIP3    H135965   0.097   4.971  13.341  1.5338  1.5154 -1.2119
 4850TIP3    H235966   0.092   4.997  13.490 -1.1746  0.6338 -1.1151
 4851TIP3   OH235967   0.542   5.338   3.323 -0.7711  0.1092 -0.6483
 4851TIP3    H135968   0.556   5.344   3.228 -0.8187  0.9138 -0.6088
 4851TIP3    H235969   0.600   5.266   3.351 -0.0066  0.5202 -1.1376
 4852TIP3   OH235970   6.314   1.491  11.911 -0.1826 -0.1995  0.0450
 4852TIP3    H135971   6.298   1.551  11.984 -0.8244 -0.2613 -0.0378
 4852TIP3    H235972   6.341   1.548  11.839  2.4053 -0.3233  0.8738
 4853TIP3   OH235973   6.639   1.643   0.126 -0.1434 -0.2913  0.3631
 4853TIP3    H135974   6.708   1.702   0.157  1.4499 -2.3138  0.7906
 4853TIP3    H235975   6.662   1.625   0.035 -1.7704  1.3331 -0.3893
 4854TIP3   OH235976   0.803   3.413  15.206 -0.1291  0.1669  0.8455
 4854TIP3    H135977   0.711   3.439  15.204  0.2598  1.4946 -1.7545
 4854TIP3    H235978   0.800   3.317  15.198 -1.2980  0.2037  0.6584
 4855TIP3   OH235979   0.157   2.655   3.027  0.2914  0.0068  0.3145
 4855TIP3    H135980   0.140   2.696   2.943  1.8293  0.3711  0.1703
 4855TIP3    H235981   0.126   2.719   3.092  1.4058  0.8061  0.0685
 4856TIP3   OH235982   2.669   5.428  16.682  1.2300  0.2874 -0.0318
 4856TIP3    H135983   2.678   5.336  16.660  0.0734  0.0270  0.5858
 4856TIP3    H235984   2.608   5.463  16.618  3.2389  1.1224 -1.5756
 4857TIP3   OH235985   1.167   4.816   2.194  0.2881  0.3954 -0.4086
 4857TIP3    H135986   1.171   4.841   2.286 -1.6956  3.2387 -1.0106
 4857TIP3    H235987   1.217   4.883   2.148 -0.4482  0.1634 -1.5847
 4858TIP3   OH235988   4.636   2.949   4.321  0.4296  0.2428  0.8322
 4858TIP3    H135989   4.618   3.041   4.301 -0.5907 -0.1225 -0.0190
 4858TIP3    H235990   4.681   2.917   4.243  0.0955 -0.1604  0.8022
 4859TIP3   OH235991   4.841   6.607  12.737 -0.9503  0.4475 -0.2185
 4859TIP3    H135992   4.903   6.544  12.701 -0.1868 -0.4723  2.6246
 4859TIP3    H235993   4.889   6.650  12.808 -2.3316  2.3735 -0.4255
 4860TIP3   OH235994   2.714   3.129  16.021 -0.4395  0.2299 -0.4068
 4860TIP3    H135995   2.700   3.215  15.980 -0.0522  0.1542 -0.7023
 4860TIP3    H235996   2.631   3.084  16.008  0.4279 -0.6764 -3.2896
 4861TIP3   OH235997   4.356   6.045   2.040 -0.2580 -0.4207  0.3494
 4861TIP3    H135998   4.418   6.114   2.060 -1.4865  2.1699 -3.9812
 4861TIP3    H235999   4.293   6.048   2.112  0.7419  1.7413  1.1905
 4862TIP3   OH236000   2.274   4.680   4.759  0.3975  0.2172 -0.0374
 4862TIP3    H136001   2.238   4.680   4.848 -0.2648 -1.1937 -0.2939
 4862TIP3    H236002   2.363   4.712   4.770  0.6912 -0.9864  1.3048
 4863TIP3   OH236003   6.409   4.992   5.847 -0.0282  0.5354  0.4409
 4863TIP3    H136004   6.360   4.945   5.779  2.5049 -0.3978 -0.7945
 4863TIP3    H236005   6.382   4.950   5.929 -1.1040 -0.1078 -0.2257
 4864TIP3   OH236006   5.586   3.040   1.210  0.4068 -0.1706  0.0831
 4864TIP3    H136007   5.507   3.087   1.182 -0.1298  0.2713  2.2145
 4864TIP3    H236008   5.616   3.089   1.286  2.1895 -0.9274 -0.1278
 4865TIP3   OH236009   3.680   6.080   1.552 -0.0521 -0.0776  0.3594
 4865TIP3    H136010   3.775   6.073   1.558  0.0437  0.4704 -0.4259
 4865TIP3    H236011   3.658   6.155   1.607  0.0970  0.5476 -0.4278
 4866TIP3   OH236012   1.454   4.487  16.269  0.1439 -0.2087 -0.1260
 4866TIP3    H136013   1.360   4.482  16.250 -0.3090  2.6463  1.1832
 4866TIP3    H236014   1.461   4.474  16.364  0.8460  1.6273  0.1027
 4867TIP3   OH236015   0.861   5.351   5.842  0.3055 -0.7399  0.6175
 4867TIP3    H136016   0.903   5.436   5.847  1.7865 -1.4659  0.6842
 4867TIP3    H236017   0.780   5.367   5.793  1.4479  0.3477 -0.9433
 4868TIP3   OH236018   3.339   3.223   0.764  0.8970 -0.4870 -0.5690
 4868TIP3    H136019   3.246   3.208   0.775  1.0552 -0.1684  1.3391
 4868TIP3    H236020   3.346   3.314   0.734  0.5836 -0.6884 -1.2767
 4869TIP3   OH236021   3.131   0.328   2.788 -0.1813 -0.8783  0.0948
 4869TIP3    H136022   3.123   0.247   2.839  1.4071 -0.3272  1.2669
 4869TIP3    H236023   3.198   0.378   2.833  0.9506 -0.1523 -2.2988
 4870TIP3   OH236024   6.221   2.053  12.668 -0.4429  0.3204  0.2821
 4870TIP3    H136025   6.280   2.097  12.729  0.2809  1.4158 -1.1469
 4870TIP3    H236026   6.165   2.123  12.634 -1.9205 -0.5479  0.8947
 4871TIP3   OH236027   5.673   6.153  17.158 -0.1143  0.3232 -0.0514
 4871TIP3    H136028   5.622   6.234  17.161 -2.6158 -1.0951 -2.2121
 4871TIP3    H236029   5.636   6.099  17.228 -0.7109 -0.2218 -0.7893
 4872TIP3   OH236030   1.143   3.892  15.895 -0.3153 -0.8344 -0.9236
 4872TIP3    H136031   1.144   3.978  15.854 -1.0090 -0.3249  0.1197
 4872TIP3    H236032   1.051   3.867  15.895 -0.0576 -1.8496 -1.7536
 4873TIP3   OH236033   5.925   3.611   3.582  0.1401 -0.0567 -0.1431
 4873TIP3    H136034   5.907   3.603   3.675 -1.2252  1.1029 -0.2776
 4873TIP3    H236035   6.020   3.603   3.574  0.4711  1.9436  1.5737
 4874TIP3   OH236036   3.791   6.375  10.429 -0.4917  0.0206 -0.2270
 4874TIP3    H136037   3.810   6.436  10.357 -0.7005 -0.0700 -0.3562
 4874TIP3    H236038   3.874   6.371  10.479 -0.9673  1.7252  0.7562
 4875TIP3   OH236039   4.763   2.531   6.672 -0.7266 -0.2288  0.6771
 4875TIP3    H136040   4.841   2.540   6.617 -1.1297  0.6587  0.2487
 4875TIP3    H236041   4.722   2.450   6.642 -2.3007  1.5163 -2.0783
 4876TIP3   OH236042   2.614   6.611   2.592  0.3108  0.4261 -0.0285
 4876TIP3    H136043   2.570   6.652   2.666  0.4801  0.1631  0.2191
 4876TIP3    H236044   2.618   6.518   2.615 -0.5829  0.1763 -0.8365
 4877TIP3   OH236045   4.430   5.117   0.420  0.1882 -0.0738 -0.5557
 4877TIP3    H136046   4.421   5.072   0.336  0.1331 -2.6878  0.8017
 4877TIP3    H236047   4.431   5.047   0.485 -0.3669  1.9315  1.6896
 4878TIP3   OH236048   3.288   0.255  17.070  0.6096  0.4731  0.1735
 4878TIP3    H136049   3.378   0.244  17.041 -0.2599 -0.7803 -2.1326
 4878TIP3    H236050   3.291   0.331  17.128  2.7366  1.8811 -1.7172
 4879TIP3   OH236051   1.048   4.862  16.077  0.0052 -0.2028 -0.0834
 4879TIP3    H136052   1.016   4.781  16.116  0.1213 -1.6881 -2.9682
 4879TIP3    H236053   1.136   4.841  16.045 -0.3900  0.7365 -1.8454
 4880TIP3   OH236054   0.448   2.604   4.857 -0.3260  0.4732 -0.0044
 4880TIP3    H136055   0.448   2.536   4.925  2.7029  0.0442 -0.3271
 4880TIP3    H236056   0.483   2.559   4.779 -0.4571  1.8314 -0.8611
 4881TIP3   OH236057   4.203   0.641   3.267 -0.1531  0.6795  0.2496
 4881TIP3    H136058   4.263   0.697   3.219 -0.1724  0.6492  0.1898
 4881TIP3    H236059   4.116   0.664   3.233 -0.1300  0.3843 -0.0045
 4882TIP3   OH236060   0.407   0.726  14.343 -0.3406 -0.3077 -0.2568
 4882TIP3    H136061   0.493   0.760  14.319 -0.5428  1.1706  0.9682
 4882TIP3    H236062   0.348   0.801  14.331 -0.5932  0.2797  3.7832
 4883TIP3   OH236063   0.948   5.906   0.492  0.1430  0.4322 -0.9960
 4883TIP3    H136064   0.888   5.956   0.549  0.0726 -0.6721 -0.0760
 4883TIP3    H236065   0.972   5.830   0.544  1.5861  0.3598 -1.7480
 4884TIP3   OH236066   1.032   3.145   0.267 -0.4644  0.0488  0.3454
 4884TIP3    H136067   0.967   3.146   0.337  0.0724 -1.1571  0.8700
 4884TIP3    H236068   1.073   3.059   0.274  0.2620  0.2970 -0.8362
 4885TIP3   OH236069   5.428   6.439   2.602  0.3696 -0.7492 -0.6238
 4885TIP3    H136070   5.378   6.488   2.537  1.0825  0.0072 -0.6168
 4885TIP3    H236071   5.462   6.507   2.661 -1.1854 -1.5033  1.1881
 4886TIP3   OH236072   4.772   3.564  13.855  0.1557 -0.1228 -0.1565
 4886TIP3    H136073   4.860   3.583  13.887  0.4686 -1.5850 -0.1424
 4886TIP3    H236074   4.781   3.483  13.805 -1.4365 -1.1060  1.1038
 4887TIP3   OH236075   2.821   4.252   3.185 -0.2198 -0.9004  0.2601
 4887TIP3    H136076   2.788   4.180   3.131 -0.3003 -0.4493 -0.2926
 4887TIP3    H236077   2.825   4.215   3.274 -1.1620 -1.2944  0.1455
 4888TIP3   OH236078   1.038   3.318   1.454  0.2579  0.0461 -0.3640
 4888TIP3    H136079   1.125   3.312   1.494 -0.4928 -2.8842  0.9600
 4888TIP3    H236080   0.984   3.361   1.520  0.5156  1.1627 -0.8762
 4889TIP3   OH236081   1.852   0.516  10.656  0.6351  0.2171 -0.0657
 4889TIP3    H136082   1.934   0.469  10.669  0.3306 -0.0559  0.8950
 4889TIP3    H236083   1.784   0.456  10.687  0.0485  0.3636 -1.0358
 4890TIP3   OH236084   5.623   1.433  15.433 -0.3253 -0.8877 -0.5244
 4890TIP3    H136085   5.535   1.453  15.465  0.4106 -2.3302  2.6449
 4890TIP3    H236086   5.677   1.507  15.463 -0.3390 -0.2992 -1.9330
 4891TIP3   OH236087   4.769   3.299  16.106  0.4061  0.1189  0.0038
 4891TIP3    H136088   4.782   3.336  16.194  1.2374 -0.9265  0.3404
 4891TIP3    H236089   4.855   3.266  16.082 -0.3102 -1.6098 -0.2634
 4892TIP3   OH236090   2.992   1.797   1.349 -0.4679 -0.5649 -0.5636
 4892TIP3    H136091   3.080   1.832   1.340 -0.7939 -0.1266 -2.1514
 4892TIP3    H236092   2.967   1.817   1.439  1.3942 -1.5325  0.1881
 4893TIP3   OH236093   0.540   3.747  12.563  0.1613  0.1321 -0.6755
 4893TIP3    H136094   0.529   3.653  12.572 -0.0322  0.3345  1.3415
 4893TIP3    H236095   0.629   3.765  12.594 -0.7703  0.9469  1.5682
 4894TIP3   OH236096   6.292   2.415   4.247  0.1736 -0.0666  0.7562
 4894TIP3    H136097   6.224   2.387   4.185  0.4065 -1.3561  1.0619
 4894TIP3    H236098   6.247   2.423   4.330  0.7249 -2.8087  1.3802
 4895TIP3   OH236099   5.178   2.730   3.803 -0.4115 -0.2048  0.1211
 4895TIP3    H136100   5.146   2.796   3.742  0.9819 -0.8112 -1.3105
 4895TIP3    H236101   5.182   2.650   3.751 -2.6728 -1.5977  1.9902
 4896TIP3   OH236102   0.413   5.004   6.287  0.0929  0.8151  0.3999
 4896TIP3    H136103   0.480   4.961   6.340 -0.6134 -0.9639 -0.1066
 4896TIP3    H236104   0.341   5.019   6.348 -0.8979 -1.6391 -0.0788
 4897TIP3   OH236105   5.220   0.767   1.236  0.0815  0.7157  0.4964
 4897TIP3    H136106   5.207   0.729   1.323  2.0744 -0.8287  0.1696
 4897TIP3    H236107   5.311   0.795   1.235  0.0948  0.6732 -1.0904
 4898TIP3   OH236108   4.227   2.002  16.556 -0.0246  0.0305 -0.0221
 4898TIP3    H136109   4.224   2.010  16.460 -1.8272  0.2148  0.0389
 4898TIP3    H236110   4.244   2.091  16.587  1.7965 -0.2388 -0.2057
 4899TIP3   OH236111   5.474   1.262  13.332 -0.5323  0.0709 -0.1786
 4899TIP3    H136112   5.452   1.305  13.249  0.1441  3.4408  1.3072
 4899TIP3    H236113   5.421   1.307  13.397  0.3919 -1.2093  1.4881
 4900TIP3   OH236114   3.173   2.476   4.734 -0.0332  0.5168  0.1735
 4900TIP3    H136115   3.145   2.567   4.723  0.3025  0.5108 -0.7588
 4900TIP3    H236116   3.092   2.425   4.727  0.0732  0.5573 -1.7967
 4901TIP3   OH236117   5.287   5.798   4.898 -0.6620 -0.3634 -0.3497
 4901TIP3    H136118   5.229   5.802   4.822 -0.8375  2.5950 -0.0923
 4901TIP3    H236119   5.239   5.842   4.968  0.4465 -0.9985  0.8432
 4902TIP3   OH236120   5.609   5.531   4.059 -0.2520 -0.3538  0.3293
 4902TIP3    H136121   5.524   5.492   4.038 -0.2792 -0.4334  0.5883
 4902TIP3    H236122   5.593   5.625   4.060  0.3509 -0.1423 -2.8285
 4903TIP3   OH236123   3.738   0.988   0.148  0.4377 -0.2134  0.1033
 4903TIP3    H136124   3.660   1.044   0.155  0.2486 -0.7379  2.4551
 4903TIP3    H236125   3.729   0.945   0.063 -0.4466  1.7840 -0.8548
 4904TIP3   OH236126   4.293   4.389  16.808 -0.0633  0.3486 -0.1181
 4904TIP3    H136127   4.326   4.479  16.810 -0.4117  0.4781 -0.1975
 4904TIP3    H236128   4.357   4.341  16.755  1.4406  0.0186  1.9424
 4905TIP3   OH236129   6.497   3.608   5.158  0.3011 -0.7893 -0.0210
 4905TIP3    H136130   6.494   3.689   5.107  2.9465  0.9458  2.5087
 4905TIP3    H236131   6.413   3.605   5.203 -0.3648 -0.2066 -1.1901
 4906TIP3   OH236132   5.127   3.537   5.604  0.0165  0.0156  0.1575
 4906TIP3    H136133   5.167   3.529   5.517  0.3084  1.6662  0.1185
 4906TIP3    H236134   5.201   3.536   5.664 -0.2798 -2.6945  0.5316
 4907TIP3   OH236135   0.292   1.190   3.030 -0.0460  0.4169 -0.6488
 4907TIP3    H136136   0.226   1.132   3.069 -1.0565  0.5307 -2.1410
 4907TIP3    H236137   0.369   1.134   3.020 -0.9599 -0.6623 -1.9273
 4908TIP3   OH236138   3.448   1.938  15.529  0.2966 -0.2507 -0.2494
 4908TIP3    H136139   3.398   1.870  15.574  0.6092 -0.1453  0.2574
 4908TIP3    H236140   3.399   1.955  15.448 -1.0991  0.6517  0.7761
 4909TIP3   OH236141   3.597   0.975   4.203  0.1777  0.0343  0.3930
 4909TIP3    H136142   3.690   0.985   4.221 -0.0383  1.0726  1.0203
 4909TIP3    H236143   3.568   0.905   4.261  0.7863 -1.0396 -0.5983
 4910TIP3   OH236144   5.454   2.827  16.613  0.2041 -0.0069  0.6320
 4910TIP3    H136145   5.490   2.766  16.548  2.4006  1.0264  0.8326
 4910TIP3    H236146   5.415   2.897  16.561 -1.1744 -0.9269  0.4100
 4911TIP3   OH236147   6.739   6.463  16.693  0.3925  0.2899  0.0369
 4911TIP3    H136148   6.710   6.550  16.719 -0.4676 -0.3634  1.2872
 4911TIP3    H236149   6.818   6.447  16.745  1.3959  0.9070 -1.2712
 4912TIP3   OH236150   2.352   6.115  12.264  0.6659  0.2672  0.4951
 4912TIP3    H136151   2.442   6.132  12.235  0.8256  1.4472  1.6552
 4912TIP3    H236152   2.361   6.044  12.327  0.7511  0.2567  0.4709
 4913TIP3   OH236153   6.220   2.210   6.074 -0.3693 -0.1509  0.0439
 4913TIP3    H136154   6.285   2.280   6.083 -1.0127  0.5027 -0.3830
 4913TIP3    H236155   6.215   2.171   6.162 -0.2372  0.5392  0.3571
 4914TIP3   OH236156   0.725   1.738  14.585  0.1074  0.0410  0.7615
 4914TIP3    H136157   0.692   1.813  14.536  1.3638 -0.9223 -1.6312
 4914TIP3    H236158   0.647   1.686  14.606 -0.3262 -0.2886 -1.5468
 4915TIP3   OH236159   6.351   1.592  13.970  0.3208 -0.4233  0.5717
 4915TIP3    H136160   6.399   1.602  13.888  0.1171  0.5616  0.5736
 4915TIP3    H236161   6.414   1.616  14.037  0.8183 -2.2434  0.7843
 4916TIP3   OH236162   6.414   5.513   4.901  0.3607  0.6536  0.7588
 4916TIP3    H136163   6.443   5.550   4.984  0.3517  0.4952  0.8343
 4916TIP3    H236164   6.382   5.587   4.851  0.5250  0.7732  0.8311
 4917TIP3   OH236165   1.940   3.159   1.492  0.2763  0.5296 -0.2908
 4917TIP3    H136166   2.015   3.157   1.432 -0.0016  3.5763 -0.8298
 4917TIP3    H236167   1.880   3.222   1.453 -1.0653  0.6424  1.8641
 4918TIP3   OH236168   4.741   1.584  16.587 -0.8509  0.0645 -0.2049
 4918TIP3    H136169   4.671   1.572  16.651 -2.5173  1.6722 -1.6454
 4918TIP3    H236170   4.696   1.585  16.502  1.0507  0.0507 -1.2483
 4919TIP3   OH236171   4.850   3.049   6.153 -0.3783 -0.2771  0.1614
 4919TIP3    H136172   4.923   3.006   6.108  0.1491  1.0548 -0.2750
 4919TIP3    H236173   4.891   3.108   6.215 -1.1072 -0.6576  1.0111
 4920TIP3   OH236174   2.043   0.401  15.281 -0.0752 -0.2384 -0.3874
 4920TIP3    H136175   2.120   0.345  15.277 -0.5718 -0.9763  0.2321
 4920TIP3    H236176   2.069   0.481  15.235  1.6096  0.2035  1.2920
 4921TIP3   OH236177   0.945   4.335  16.195  0.7320 -0.4997  0.3298
 4921TIP3    H136178   0.858   4.364  16.223  1.5855  0.3234  2.2436
 4921TIP3    H236179   0.937   4.240  16.186 -0.3281 -0.4430  0.6158
 4922TIP3   OH236180   6.641   0.180  16.603 -0.1231  0.1550 -0.2359
 4922TIP3    H136181   6.728   0.146  16.623 -0.5838  0.1262  1.8734
 4922TIP3    H236182   6.597   0.107  16.560  0.3447 -0.4344  0.2673
 4923TIP3   OH236183   0.865   1.098   6.818 -0.3285  0.0092 -0.7138
 4923TIP3    H136184   0.888   1.163   6.884  1.6969 -1.5995  0.2075
 4923TIP3    H236185   0.937   1.100   6.755  0.6295 -2.4759  0.2246
 4924TIP3   OH236186   1.137   4.029  13.826  0.6145  0.2595 -0.0952
 4924TIP3    H136187   1.147   4.059  13.735 -1.1835  0.5433 -0.2092
 4924TIP3    H236188   1.164   3.937  13.824  0.5111  0.2458 -0.9295
 4925TIP3   OH236189   1.517   0.015   4.248  0.2812  0.6025 -0.4010
 4925TIP3    H136190   1.588  -0.032   4.204  0.4281  0.9105 -0.4893
 4925TIP3    H236191   1.452   0.031   4.180 -0.1075 -0.1339 -0.2123
 4926TIP3   OH236192   0.080   6.073   2.992 -0.6292  0.1624  0.3869
 4926TIP3    H136193   0.093   5.978   2.992 -2.7314 -0.1852 -1.7727
 4926TIP3    H236194   0.074   6.096   2.900 -0.1034  2.4191  0.9007
 4927TIP3   OH236195   3.699   0.259  10.753 -0.2855 -0.1196 -0.0834
 4927TIP3    H136196   3.707   0.171  10.790 -1.9126 -1.1066 -2.0067
 4927TIP3    H236197   3.787   0.279  10.720 -0.1974 -1.5304 -0.7306
 4928TIP3   OH236198   0.098   0.839   5.311 -0.0988  0.2742 -0.1315
 4928TIP3    H136199   0.128   0.853   5.401  1.1190  1.0704 -0.6477
 4928TIP3    H236200   0.008   0.808   5.320 -0.2075  0.9779  1.3462
 4929TIP3   OH236201   1.280   2.070   1.518 -0.3959 -0.8333 -0.0107
 4929TIP3    H136202   1.367   2.030   1.525 -0.4891 -0.8083  1.3266
 4929TIP3    H236203   1.236   2.045   1.599 -1.3467 -0.1334 -0.3112
 4930TIP3   OH236204   5.429   1.379   0.498 -0.4068  0.0521  0.1894
 4930TIP3    H136205   5.519   1.362   0.528 -0.2770  0.8106  0.2601
 4930TIP3    H236206   5.402   1.298   0.455 -1.9045 -2.4557  5.4218
 4931TIP3   OH236207   4.258   5.660  14.605 -0.2154  0.1350  0.2533
 4931TIP3    H136208   4.246   5.714  14.527  0.4272 -0.3507 -0.1900
 4931TIP3    H236209   4.259   5.570  14.572 -1.9882 -0.2151  1.0610
 4932TIP3   OH236210   5.709   4.162   3.858 -0.3097 -0.0692 -0.0332
 4932TIP3    H136211   5.664   4.210   3.788 -1.7103 -1.7260 -0.2950
 4932TIP3    H236212   5.650   4.090   3.880  0.0947  0.4290  2.9066
 4933TIP3   OH236213   2.821   5.046  15.988 -0.4379 -0.1542 -0.0147
 4933TIP3    H136214   2.805   5.138  15.967 -2.0958 -0.6183 -0.8251
 4933TIP3    H236215   2.870   5.012  15.914  0.2621  0.1004  0.3299
 4934TIP3   OH236216   2.541   6.448   1.613  0.1794  0.3832 -0.1418
 4934TIP3    H136217   2.490   6.453   1.532 -1.5832  0.7233  0.9409
 4934TIP3    H236218   2.477   6.468   1.682  1.9129  1.2672  1.2406
 4935TIP3   OH236219   4.325   1.622   3.036  0.6229 -0.6162  0.1691
 4935TIP3    H136220   4.386   1.655   3.102 -0.7537 -1.7071  2.0664
 4935TIP3    H236221   4.256   1.688   3.032  1.6900  0.4227 -1.6818
 4936TIP3   OH236222   2.761   4.937   2.175 -0.0093  0.2497 -0.2064
 4936TIP3    H136223   2.727   4.904   2.091 -0.5489 -1.6539  0.7108
 4936TIP3    H236224   2.844   4.979   2.153 -2.0377  3.3960 -2.2563
 4937TIP3   OH236225   1.744   6.748  11.870  0.5382 -0.2182 -0.2580
 4937TIP3    H136226   1.679   6.714  11.809 -0.3009  1.6352 -0.4316
 4937TIP3    H236227   1.697   6.759  11.952 -0.1427  3.7423 -1.1000
 4938TIP3   OH236228   6.656   1.008  14.778  0.2964  0.0420 -0.5593
 4938TIP3    H136229   6.563   1.022  14.760  0.1349 -1.4735 -0.9274
 4938TIP3    H236230   6.693   1.097  14.779 -1.1151  0.6527 -0.5330
 4939TIP3   OH236231   4.987   6.453   1.351  0.1940  0.3346 -0.1865
 4939TIP3    H136232   5.002   6.374   1.402  1.0654 -0.3872 -1.5306
 4939TIP3    H236233   5.038   6.521   1.396  2.4345 -0.6926 -1.0823
 4940TIP3   OH236234   0.916   5.025  16.887  0.5919 -0.4278  0.2690
 4940TIP3    H136235   0.852   4.959  16.914 -0.4797  0.5487  0.1566
 4940TIP3    H236236   0.924   5.013  16.792  1.1861 -1.0755  0.3938
 4941TIP3   OH236237   1.414   6.353  13.012  0.0147  0.6130 -0.6280
 4941TIP3    H136238   1.426   6.422  12.946  0.7302  0.5974 -0.5164
 4941TIP3    H236239   1.438   6.395  13.095  0.5583  0.1950 -0.5736
 4942TIP3   OH236240   2.531   5.595  15.897 -0.4320 -0.1935 -0.0527
 4942TIP3    H136241   2.527   5.565  15.806 -0.5919  0.6745 -0.3424
 4942TIP3    H236242   2.585   5.674  15.893 -2.5199  1.2846  0.2004
 4943TIP3   OH236243   1.004   5.343  13.230 -0.3156 -0.1622  0.0242
 4943TIP3    H136244   0.979   5.411  13.167 -1.0868 -0.9087 -0.4868
 4943TIP3    H236245   0.927   5.287  13.237 -0.0010 -0.4580  1.1458
 4944TIP3   OH236246   4.607   1.929   5.081 -0.5524  0.2195  0.6495
 4944TIP3    H136247   4.555   1.945   5.161  0.7644  0.7635  1.4099
 4944TIP3    H236248   4.655   1.848   5.100  0.3469  0.7687  0.7050
 4945TIP3   OH236249   4.598   1.178  13.642 -0.5592  0.0060  0.2570
 4945TIP3    H136250   4.632   1.253  13.594 -0.8584  0.1680  0.3035
 4945TIP3    H236251   4.640   1.102  13.600  1.1275  0.2982  1.3449
 4946TIP3   OH236252   0.267   5.926   1.774 -0.1709 -0.1058 -0.1393
 4946TIP3    H136253   0.192   5.937   1.716 -0.1006  1.0854 -0.0032
 4946TIP3    H236254   0.242   5.968   1.856 -0.2915 -1.8372  0.7348
 4947TIP3   OH236255   4.062   5.766  16.197 -0.0537 -0.2637  0.2822
 4947TIP3    H136256   3.993   5.815  16.242  0.2344  0.5963 -0.2056
 4947TIP3    H236257   4.069   5.684  16.246 -0.9169 -0.0483  0.7751
 4948TIP3   OH236258   1.028   6.642   6.158 -0.2301 -0.0013  0.0965
 4948TIP3    H136259   1.024   6.701   6.083 -0.2674 -0.0458  0.0635
 4948TIP3    H236260   0.983   6.563   6.129  1.1216 -0.6144 -0.3665
 4949TIP3   OH236261   1.239   6.598   0.138  0.3856  0.3746  0.0875
 4949TIP3    H136262   1.160   6.622   0.089 -1.6628 -2.5759  1.8065
 4949TIP3    H236263   1.293   6.678   0.137 -2.8391  2.6559 -0.6419
 4950TIP3   OH236264   2.547   4.690   1.282 -0.7033 -0.1652 -0.2147
 4950TIP3    H136265   2.483   4.637   1.329  0.1317 -0.6064  0.4463
 4950TIP3    H236266   2.506   4.776   1.275 -1.5079 -0.5341 -0.1103
 4951TIP3   OH236267   0.039   2.796   1.046 -0.6459  0.0849 -0.1561
 4951TIP3    H136268  -0.028   2.730   1.029 -0.5851  0.2386 -1.0334
 4951TIP3    H236269   0.119   2.745   1.062 -0.6894 -0.0624 -0.4062
 4952TIP3   OH236270   3.732   0.348   3.800 -0.2983 -0.3337 -0.1323
 4952TIP3    H136271   3.772   0.376   3.718  0.4343 -0.2718  0.2368
 4952TIP3    H236272   3.653   0.300   3.774 -0.3185  0.0949 -0.8463
 4953TIP3   OH236273   5.509   6.531   5.771 -0.2208 -0.3687  0.3772
 4953TIP3    H136274   5.458   6.607   5.746  1.6945  1.9725  3.2578
 4953TIP3    H236275   5.446   6.473   5.815 -1.2655  0.4232 -0.0634
 4954TIP3   OH236276   2.190   1.509  11.860  0.2728 -0.0121 -0.1252
 4954TIP3    H136277   2.249   1.501  11.935  1.6550 -2.4625 -1.4349
 4954TIP3    H236278   2.177   1.603  11.850 -0.7905  0.3603  3.8201
 4955TIP3   OH236279   4.816   4.237  16.829  0.4182  0.5890 -0.4198
 4955TIP3    H136280   4.890   4.271  16.879 -1.0813  0.0377  2.2670
 4955TIP3    H236281   4.830   4.143  16.827 -0.4667  0.4295  0.5584
 4956TIP3   OH236282   4.804   0.926  13.838 -0.3969 -0.1893  0.3146
 4956TIP3    H136283   4.788   0.916  13.744  1.8352 -0.6129 -0.0441
 4956TIP3    H236284   4.822   0.837  13.869  2.2659  0.3678  0.4670
 4957TIP3   OH236285   1.169   1.982   4.910  0.3687  0.0586  0.1915
 4957TIP3    H136286   1.195   1.915   4.974  5.6341  0.9106 -0.8319
 4957TIP3    H236287   1.173   1.937   4.826 -1.3008  0.3170 -0.0276
 4958TIP3   OH236288   3.820   2.638   3.076 -0.3535  0.3246  0.4352
 4958TIP3    H136289   3.812   2.733   3.087 -1.0409  0.4755 -1.1454
 4958TIP3    H236290   3.773   2.620   2.994  0.0003 -1.3433  0.5866
 4959TIP3   OH236291   6.137   3.693   4.522  0.0312 -0.3893 -0.2522
 4959TIP3    H136292   6.097   3.611   4.551  1.9424 -1.4937 -0.6870
 4959TIP3    H236293   6.096   3.711   4.437  0.9396 -1.8511 -0.9991
 4960TIP3   OH236294   3.946   4.548  15.474  0.1920  0.2594  0.5240
 4960TIP3    H136295   3.928   4.587  15.389  1.3984 -1.4223 -0.5284
 4960TIP3    H236296   3.860   4.541  15.516 -0.7239 -1.0010 -1.4845
 4961TIP3   OH236297   4.509   5.860  12.951  0.8077  0.2641 -0.8943
 4961TIP3    H136298   4.458   5.793  12.907  0.2847 -0.5589  0.9322
 4961TIP3    H236299   4.477   5.943  12.914 -0.5440 -0.3414 -1.1134
 4962TIP3   OH236300   6.599   4.562   2.736  0.6253 -0.1920 -0.1975
 4962TIP3    H136301   6.614   4.634   2.797 -0.8659 -1.8732  2.2867
 4962TIP3    H236302   6.526   4.590   2.681 -0.4440 -0.0842  1.2587
 4963TIP3   OH236303   1.465   0.734   4.983 -0.8987  0.4477 -0.1890
 4963TIP3    H136304   1.508   0.651   4.964  1.5988  1.8220 -0.6399
 4963TIP3    H236305   1.491   0.756   5.073  0.6403  2.0383 -0.9958
 4964TIP3   OH236306   1.590   6.172  14.122  0.0971  0.3504  0.0182
 4964TIP3    H136307   1.552   6.093  14.161  0.4320  0.2260  0.0969
 4964TIP3    H236308   1.648   6.207  14.190  2.3880 -1.0853 -1.1201
 4965TIP3   OH236309   2.742   3.904  11.707 -0.2054  0.3171  0.0746
 4965TIP3    H136310   2.767   3.865  11.791  0.5395  0.5291 -0.0460
 4965TIP3    H236311   2.659   3.948  11.725  0.0278  0.4941  0.7411
 4966TIP3   OH236312   2.070   1.718   2.873  0.0597  0.3082 -0.3782
 4966TIP3    H136313   2.045   1.770   2.797 -0.1603  0.1398 -0.4228
 4966TIP3    H236314   1.997   1.728   2.933 -0.7707 -1.3493 -1.0941
 4967TIP3   OH236315   0.553   5.568  13.182 -0.4539  0.3965 -0.1263
 4967TIP3    H136316   0.617   5.639  13.178  1.6354 -1.4700 -0.7820
 4967TIP3    H236317   0.504   5.575  13.100  0.1485  0.7121 -0.4638
 4968TIP3   OH236318   4.203   1.812   2.376  0.4749  0.2228  0.3588
 4968TIP3    H136319   4.221   1.774   2.290  0.7204 -2.3568  1.5009
 4968TIP3    H236320   4.186   1.904   2.358 -0.8396 -0.5349 -2.6052
 4969TIP3   OH236321   2.967   1.342  15.801 -0.1522 -0.0058  0.4957
 4969TIP3    H136322   2.902   1.412  15.795 -0.4378 -0.3320 -0.2328
 4969TIP3    H236323   3.004   1.352  15.889 -0.5465  0.7434  0.5807
 4970TIP3   OH236324   5.031   2.986   3.397 -0.4765  0.0850  0.5832
 4970TIP3    H136325   4.967   3.011   3.464 -0.7111  0.6245  0.1659
 4970TIP3    H236326   4.979   2.976   3.317 -0.0314  0.5863  0.2266
 4971TIP3   OH236327   5.897   4.980  14.462  0.7360 -0.2118  0.1729
 4971TIP3    H136328   5.872   5.023  14.381  1.0453  0.1415  0.2613
 4971TIP3    H236329   5.828   4.915  14.478 -0.6025  1.3233  0.8566
 4972TIP3   OH236330   5.593   0.422  15.812 -0.6167  0.1457  0.2243
 4972TIP3    H136331   5.583   0.495  15.751 -1.1877  0.5469  0.7946
 4972TIP3    H236332   5.687   0.417  15.828 -0.5037  0.2990 -0.3742
 4973TIP3   OH236333   5.981   0.424  16.718  0.3773  0.0626 -0.3609
 4973TIP3    H136334   6.071   0.417  16.751 -0.0978 -1.3392  0.6729
 4973TIP3    H236335   5.967   0.342  16.670 -0.3885  0.2109 -0.3942
 4974TIP3   OH236336   4.907   3.331   4.658 -0.2772 -0.1321 -0.4741
 4974TIP3    H136337   4.918   3.244   4.696 -0.7728  0.5174  1.2012
 4974TIP3    H236338   4.812   3.346   4.660 -0.2148  0.3671 -0.9601
 4975TIP3   OH236339   0.087   4.526   2.711 -0.2578 -0.0102 -0.1323
 4975TIP3    H136340   0.118   4.616   2.716 -1.4660  0.3919  0.4439
 4975TIP3    H236341  -0.008   4.534   2.700 -0.5710 -1.2166  1.5632
 4976TIP3   OH236342   2.273   2.410   1.207  0.0542  0.1599  0.0380
 4976TIP3    H136343   2.363   2.398   1.237  0.9233 -1.4052 -2.9364
 4976TIP3    H236344   2.276   2.488   1.152 -0.9509  1.5241  1.8884
 4977TIP3   OH236345   3.938   2.502   1.745  0.2398 -0.3326  0.2609
 4977TIP3    H136346   3.934   2.442   1.820 -0.5568  0.0567  0.5308
 4977TIP3    H236347   3.970   2.447   1.673 -0.6347 -1.1224  0.4693
 4978TIP3   OH236348   2.468   6.317   0.258  0.3751  0.2933 -0.5115
 4978TIP3    H136349   2.523   6.374   0.203 -1.6688 -0.0155 -2.9997
 4978TIP3    H236350   2.493   6.228   0.232 -0.5433  0.1417 -0.8845
 4979TIP3   OH236351   3.282   6.235  15.762 -0.2597 -0.2491 -0.1258
 4979TIP3    H136352   3.262   6.290  15.686  2.3898 -2.9624 -2.9664
 4979TIP3    H236353   3.205   6.178  15.771  0.8384 -2.3433 -3.1742
 4980TIP3   OH236354   1.541   0.598   5.226 -0.3472  0.3559  0.2652
 4980TIP3    H136355   1.474   0.540   5.190  1.7094 -0.9552 -1.5866
 4980TIP3    H236356   1.571   0.553   5.305 -1.4788  0.8317  0.9703
 4981TIP3   OH236357   2.756   2.308  15.972 -0.2775  0.6090 -0.1128
 4981TIP3    H136358   2.675   2.357  15.967  0.3786  1.7664  0.4446
 4981TIP3    H236359   2.748   2.241  15.904 -1.5249  0.9490 -0.3106
 4982TIP3   OH236360   0.922   4.544   5.686  0.1220  0.7277 -0.2789
 4982TIP3    H136361   0.944   4.466   5.737  0.4153  0.4606 -0.8088
 4982TIP3    H236362   0.975   4.614   5.724 -0.3039  0.7164  0.3366
 4983TIP3   OH236363   1.702   6.743   4.696  0.0515 -0.0389  0.0530
 4983TIP3    H136364   1.756   6.687   4.641 -0.1915  0.7525 -1.0143
 4983TIP3    H236365   1.615   6.702   4.694  0.0272  0.0183 -0.2308
 4984TIP3   OH236366   0.049   5.196  12.974  0.0926 -0.4972 -0.5339
 4984TIP3    H136367   0.108   5.262  13.011 -1.1662 -1.2912  3.1542
 4984TIP3    H236368   0.103   5.147  12.911  2.7763  0.1674  1.1720
 4985TIP3   OH236369   3.798   6.192  14.492  0.2261 -0.0738 -0.0481
 4985TIP3    H136370   3.847   6.149  14.563 -1.1602  0.2121  1.0973
 4985TIP3    H236371   3.852   6.268  14.469  2.0582 -1.6615 -1.2143
 4986TIP3   OH236372   5.103   0.975   5.729  0.6062 -0.3924  0.2209
 4986TIP3    H136373   5.135   1.043   5.788  1.4178  1.0953 -1.9133
 4986TIP3    H236374   5.062   0.911   5.788  0.9717  1.2715  2.3617
 4987TIP3   OH236375   4.875   2.335  12.531  0.7261  0.5262 -0.2654
 4987TIP3    H136376   4.813   2.283  12.480  0.1393  0.8219  0.1435
 4987TIP3    H236377   4.959   2.289  12.520  0.0809 -0.9508  0.6886
 4988TIP3   OH236378   5.465   2.085  12.724 -0.1998  0.4287 -0.1311
 4988TIP3    H136379   5.420   2.028  12.785  0.3030 -1.4157 -1.4447
 4988TIP3    H236380   5.423   2.068  12.639  0.5856  1.3202 -0.7185
 4989TIP3   OH236381   6.735   1.120   3.931  0.2224  0.4902 -0.4112
 4989TIP3    H136382   6.650   1.148   3.963  0.3788  0.8397 -0.3036
 4989TIP3    H236383   6.797   1.149   3.998  0.4705  0.5913 -0.6850
 4990TIP3   OH236384   6.501   2.208   4.269 -0.1405 -0.5371  0.1168
 4990TIP3    H136385   6.482   2.164   4.352 -0.1920 -0.3635  0.1965
 4990TIP3    H236386   6.429   2.270   4.257 -1.2625 -2.0372 -1.0928
 4991TIP3   OH236387   3.946   6.455  14.447  0.2135 -0.5137 -0.0686
 4991TIP3    H136388   3.988   6.526  14.398 -0.8559 -0.5918 -1.1073
 4991TIP3    H236389   3.997   6.377  14.425 -0.5240 -0.6329 -1.4415
 4992TIP3   OH236390   4.817   2.751  11.396 -0.4639 -0.2345 -0.0921
 4992TIP3    H136391   4.893   2.714  11.442  1.0218  1.3154 -1.2402
 4992TIP3    H236392   4.826   2.720  11.306 -0.8313  0.4753 -0.3772
 4993TIP3   OH236393   4.901   5.036   2.910 -0.1254  0.2873 -0.1330
 4993TIP3    H136394   4.860   5.052   2.825  1.6961 -1.0924 -1.3036
 4993TIP3    H236395   4.993   5.059   2.898  0.4360 -1.2136  1.0586
 4994TIP3   OH236396   5.698   2.723   2.402 -0.0619  0.5919  0.4060
 4994TIP3    H136397   5.739   2.642   2.370 -2.9669 -0.3484 -1.0774
 4994TIP3    H236398   5.739   2.792   2.350 -0.4733 -0.3449 -1.2178
 4995TIP3   OH236399   4.004   1.417  13.205  0.1811  0.7151  0.3708
 4995TIP3    H136400   4.027   1.333  13.167 -0.0026  0.8867 -0.1218
 4995TIP3    H236401   3.949   1.460  13.140 -1.6277  0.2807  1.5791
 4996TIP3   OH236402   3.754   0.091  11.385 -0.0592 -0.1155 -0.2063
 4996TIP3    H136403   3.676   0.106  11.438 -0.0293 -1.0456  0.0997
 4996TIP3    H236404   3.749  -0.000  11.359  1.6379 -0.5789  0.9935
 4997TIP3   OH236405   3.037   6.233  13.674 -0.2178 -0.4611 -0.4241
 4997TIP3    H136406   2.991   6.316  13.660 -2.7051 -1.4815  1.4704
 4997TIP3    H236407   2.994   6.171  13.616 -0.0221 -1.0117  0.0162
 4998TIP3   OH236408   5.692   3.337   5.913  0.2241 -0.0805  0.5196
 4998TIP3    H136409   5.746   3.392   5.857  1.1431 -0.1978  1.2687
 4998TIP3    H236410   5.618   3.393   5.938  0.5725  0.4518  0.3735
 4999TIP3   OH236411   0.063   3.538   1.314 -0.0588  0.2034 -0.0675
 4999TIP3    H136412   0.118   3.463   1.292 -0.3775 -0.1847  0.4269
 4999TIP3    H236413   0.006   3.549   1.238 -1.0437 -1.0280  0.4569
 5000TIP3   OH236414   3.099   3.538   4.892  0.0491  0.1726 -0.3759
 5000TIP3    H136415   3.067   3.453   4.862 -0.9830  0.2172  0.5848
 5000TIP3    H236416   3.183   3.518   4.933 -0.3725 -0.4438  0.2044
 5001TIP3   OH236417   3.931   1.072   1.070  0.3591  0.5273  0.0592
 5001TIP3    H136418   3.957   1.164   1.070 -0.4665  0.7758  1.9812
 5001TIP3    H236419   4.013   1.024   1.086  0.7620  0.9209 -0.7847
 5002TIP3   OH236420   5.487   1.160   3.283 -0.5885  0.3416 -0.4215
 5002TIP3    H136421   5.464   1.251   3.267  0.7733  0.6113 -0.9032
 5002TIP3    H236422   5.531   1.131   3.202 -0.3597 -0.5148 -0.0030
 5003TIP3   OH236423   6.781   0.819  14.951 -0.1067 -0.6100  0.1508
 5003TIP3    H136424   6.821   0.762  14.885  0.7286 -0.4653  0.5183
 5003TIP3    H236425   6.730   0.882  14.900  0.2024 -0.7511 -0.3423
 5004TIP3   OH236426   3.512   0.340   5.868  0.7518 -0.7952  0.4680
 5004TIP3    H136427   3.525   0.427   5.906 -0.5947 -0.3060 -0.1554
 5004TIP3    H236428   3.573   0.337   5.795 -0.3094  0.2467 -0.4818
 5005TIP3   OH236429   2.277   1.475  14.375 -0.1112  0.1456  0.0055
 5005TIP3    H136430   2.191   1.490  14.414 -0.3545  0.6722 -0.7138
 5005TIP3    H236431   2.294   1.382  14.388 -0.4929  0.1743  0.7424
 5006TIP3   OH236432   1.263   5.326   5.391 -0.1679 -0.4936 -0.1336
 5006TIP3    H136433   1.338   5.375   5.358 -1.1012 -0.1036 -1.7340
 5006TIP3    H236434   1.300   5.247   5.429  1.2221  0.6881  1.0040
 5007TIP3   OH236435   2.888   2.335   5.024  0.1378  0.2874 -0.1183
 5007TIP3    H136436   2.946   2.386   4.968 -1.8720  0.3287 -2.2433
 5007TIP3    H236437   2.819   2.396   5.049 -1.2547 -0.8365 -1.1223
 5008TIP3   OH236438   0.590   5.222   1.976  0.1942  0.3218 -0.3547
 5008TIP3    H136439   0.652   5.150   1.963  0.8210  0.7897  0.0010
 5008TIP3    H236440   0.513   5.181   2.014  0.8573 -0.0483  0.6220
 5009TIP3   OH236441   1.632   5.566  12.439  0.5432 -0.0729 -0.5507
 5009TIP3    H136442   1.574   5.631  12.478  0.6576 -0.0787 -0.3742
 5009TIP3    H236443   1.706   5.617  12.405 -0.2096  0.0951 -1.9918
 5010TIP3   OH236444   5.456   2.866  11.459  0.3011  0.1860  0.5306
 5010TIP3    H136445   5.510   2.795  11.493  2.3668  1.0757 -0.7847
 5010TIP3    H236446   5.413   2.829  11.382  0.3388 -0.0356  0.6165
 5011TIP3   OH236447   3.838   1.055   6.493  0.4310 -0.1934 -0.0744
 5011TIP3    H136448   3.905   1.119   6.472 -1.4511  2.2433  1.1439
 5011TIP3    H236449   3.886   0.984   6.537  2.5446  0.3164 -1.4900
 5012TIP3   OH236450   4.501   4.633   4.715 -0.0710  0.4776  0.0749
 5012TIP3    H136451   4.466   4.655   4.802 -0.0850  0.5124  0.0608
 5012TIP3    H236452   4.427   4.647   4.656  0.3600  1.9394 -0.1419
 5013TIP3   OH236453   5.288   0.354   4.228  0.1411  0.1156  0.2369
 5013TIP3    H136454   5.294   0.392   4.141  1.4580 -0.0090  0.2662
 5013TIP3    H236455   5.284   0.260   4.213  0.9568  0.0624  0.3272
 5014TIP3   OH236456   6.198   0.568  10.822  0.4834 -0.6867  0.0481
 5014TIP3    H136457   6.158   0.640  10.870  1.6660 -0.3629  0.5832
 5014TIP3    H236458   6.215   0.501  10.888  1.3927 -0.5581 -0.0392
 5015TIP3   OH236459   0.086   0.861   0.519 -0.3060  0.5218  0.3752
 5015TIP3    H136460   0.100   0.947   0.557 -0.1003  0.7090 -0.1214
 5015TIP3    H236461   0.106   0.872   0.426 -0.3361 -0.0463  0.2989
 5016TIP3   OH236462   6.678   1.185  16.609 -0.4458  0.3461  0.6053
 5016TIP3    H136463   6.743   1.190  16.539  0.0380 -1.3057  0.9139
 5016TIP3    H236464   6.610   1.246  16.583  0.7486  1.3428 -0.2303
 5017TIP3   OH236465   5.542   1.118   5.218  0.7255  0.4966 -0.6829
 5017TIP3    H136466   5.534   1.052   5.150  1.5250  0.1465 -0.4374
 5017TIP3    H236467   5.601   1.184   5.182 -0.3487  1.2588 -1.0654
 5018TIP3   OH236468   3.124   1.543  13.577  0.8108  0.0042  0.0813
 5018TIP3    H136469   3.108   1.572  13.487 -0.9770  0.6224  0.5738
 5018TIP3    H236470   3.111   1.448  13.575 -2.0109  0.3233  0.2036
 5019TIP3   OH236471   4.402   3.916   4.216  0.5690 -0.1834  0.0844
 5019TIP3    H136472   4.326   3.971   4.233  0.3089 -0.4400 -0.2411
 5019TIP3    H236473   4.478   3.973   4.233  0.3031  0.3700 -0.5695
 5020TIP3   OH236474   2.792   3.370  11.618 -0.0586  0.1332 -0.1278
 5020TIP3    H136475   2.766   3.461  11.604  0.5460  0.2267 -0.6713
 5020TIP3    H236476   2.769   3.352  11.709 -0.4974  0.7223 -0.1195
 5021TIP3   OH236477   0.909   0.465   3.579 -0.7621  0.0089 -0.0514
 5021TIP3    H136478   0.875   0.541   3.531 -1.3176 -1.1256 -1.4674
 5021TIP3    H236479   0.952   0.411   3.513  1.6857  0.1889  1.3059
 5022TIP3   OH236480   3.216   1.249  15.607  0.2501  0.6376  0.0674
 5022TIP3    H136481   3.193   1.317  15.543  0.4668  0.9031  0.2732
 5022TIP3    H236482   3.280   1.194  15.562 -1.1360 -0.4123 -0.7064
 5023TIP3   OH236483   2.058   1.119   5.534 -0.1384 -0.0923 -0.7002
 5023TIP3    H136484   2.072   1.181   5.605  2.3372 -1.7462  0.3442
 5023TIP3    H236485   1.986   1.063   5.565 -2.5898  2.3504 -1.7844
 5024TIP3   OH236486   3.695   3.896  13.935  0.1492  0.7732 -0.2745
 5024TIP3    H136487   3.707   3.964  13.870  1.2989  1.4798  0.6465
 5024TIP3    H236488   3.689   3.815  13.885 -0.0163  1.4239 -1.3093
 5025TIP3   OH236489   2.704   3.231   5.662 -0.1261  0.4195 -0.5527
 5025TIP3    H136490   2.746   3.248   5.578  1.3889  2.3415  0.5500
 5025TIP3    H236491   2.734   3.301   5.719 -1.0407 -0.8981  1.6479
 5026TIP3   OH236492   1.558   3.270   2.542  1.0824  0.3933  0.0326
 5026TIP3    H136493   1.572   3.364   2.532 -0.3505  0.6774  0.5617
 5026TIP3    H236494   1.612   3.230   2.474  1.6386  1.5993 -0.2480
 5027TIP3   OH236495   4.692   1.257   3.608  0.4650  0.2477  0.1464
 5027TIP3    H136496   4.647   1.274   3.526  1.3998 -0.3677 -0.5106
 5027TIP3    H236497   4.784   1.244   3.583  0.9474  1.1166  1.4097
 5028TIP3   OH236498   4.346   2.872  13.662 -0.0810 -0.3539  0.2249
 5028TIP3    H136499   4.393   2.825  13.594  0.8524 -0.1004  0.6823
 5028TIP3    H236500   4.262   2.895  13.622  0.7075  0.3590 -1.0486
 5029TIP3   OH236501   2.452   6.378   2.731 -0.0326 -0.6789  0.1802
 5029TIP3    H136502   2.401   6.380   2.650  0.5766  2.9368 -0.2103
 5029TIP3    H236503   2.392   6.413   2.797  0.8693  0.4928  0.3862
 5030TIP3   OH236504   3.132   4.854  12.076  0.0680  0.4249 -0.6281
 5030TIP3    H136505   3.160   4.904  11.999  3.0699  0.5030  0.4480
 5030TIP3    H236506   3.124   4.919  12.145 -0.1893  0.0075 -0.2638
 5031TIP3   OH236507   0.013   1.219  16.062 -0.0541  0.7511 -0.3171
 5031TIP3    H136508  -0.032   1.160  16.002 -0.3678  0.7068 -0.0338
 5031TIP3    H236509   0.106   1.200  16.048 -0.0909  1.3083 -1.3788
 5032TIP3   OH236510   2.568   5.397  11.143  0.2173 -0.4723 -0.1137
 5032TIP3    H136511   2.500   5.390  11.077  1.0334  0.0479 -1.0214
 5032TIP3    H236512   2.640   5.442  11.099  0.0677  1.5872  1.6797
 5033TIP3   OH236513   0.837   2.660   0.735 -0.0433 -0.2680  0.0387
 5033TIP3    H136514   0.847   2.566   0.720  0.3640 -0.1786 -0.2702
 5033TIP3    H236515   0.796   2.667   0.821 -1.0550 -0.7512 -0.3980
 5034TIP3   OH236516   2.486   4.326  12.716  0.2548 -0.2802  0.5538
 5034TIP3    H136517   2.559   4.344  12.776  0.1906  0.6216  0.3739
 5034TIP3    H236518   2.525   4.276  12.645  1.2653  2.2918 -0.7964
 5035TIP3   OH236519   2.359   2.435  12.389  0.0871  0.2487  0.2572
 5035TIP3    H136520   2.433   2.475  12.343 -0.3473  1.0316  0.2228
 5035TIP3    H236521   2.379   2.448  12.482  1.6523 -2.5813  0.3623
 5036TIP3   OH236522   5.612   0.583   2.309  0.4533 -0.0508  0.0433
 5036TIP3    H136523   5.527   0.606   2.347  1.0894 -0.7251  1.9632
 5036TIP3    H236524   5.648   0.666   2.278 -1.1822  0.1365 -1.4046
 5037TIP3   OH236525   2.170   2.381   3.962 -0.5418 -0.3490 -0.0776
 5037TIP3    H136526   2.225   2.313   4.002 -3.1326 -4.0903 -2.5134
 5037TIP3    H236527   2.095   2.389   4.020 -0.9858 -0.7188 -0.5969
 5038TIP3   OH236528   1.159   3.077   3.426  0.2956 -0.2969  0.1749
 5038TIP3    H136529   1.140   3.116   3.511  1.4947  0.4025  0.1351
 5038TIP3    H236530   1.254   3.068   3.424  0.4914  1.5235 -1.8594
 5039TIP3   OH236531   4.241   3.464  14.875 -0.2263  0.1674 -0.4085
 5039TIP3    H136532   4.306   3.501  14.935 -0.1537  1.8603 -1.4711
 5039TIP3    H236533   4.257   3.370  14.876  2.1312  0.5386 -0.5129
 5040TIP3   OH236534   1.861   3.421  10.915 -0.5476  0.0350 -0.0985
 5040TIP3    H136535   1.849   3.326  10.907 -0.4795  0.0722 -0.6358
 5040TIP3    H236536   1.904   3.432  11.000 -0.1290 -0.4495 -0.2425
 5041TIP3   OH236537   2.400   2.395  14.939 -0.4688 -0.4462 -0.4522
 5041TIP3    H136538   2.350   2.475  14.928  1.7990  0.8129 -2.1216
 5041TIP3    H236539   2.460   2.414  15.012 -0.1243 -0.7091 -0.6622
 5042TIP3   OH236540   4.195   4.021  16.028 -0.3881  0.1415  0.3890
 5042TIP3    H136541   4.206   3.928  16.008  1.2992  0.6576 -1.2103
 5042TIP3    H236542   4.164   4.059  15.946 -1.0781  1.0186  1.0394
 5043TIP3   OH236543   2.993   1.780  16.966 -0.5757 -0.0602  0.1293
 5043TIP3    H136544   2.988   1.835  17.044  0.8436 -0.5933  0.6250
 5043TIP3    H236545   2.961   1.695  16.995 -2.2870  0.3697 -0.5023
 5044TIP3   OH236546   3.693   0.135  14.028  0.0873 -0.5199  0.1095
 5044TIP3    H136547   3.665   0.087  13.951  0.3425 -0.9373  0.2780
 5044TIP3    H236548   3.788   0.128  14.027  0.1136 -0.1839  0.2412
 5045TIP3   OH236549   1.528   5.034   5.996  0.0016  0.3021  0.1479
 5045TIP3    H136550   1.605   4.980   6.012  0.8990  1.4609 -0.2133
 5045TIP3    H236551   1.558   5.124   6.010 -1.7582  0.6512  1.8448
 5046TIP3   OH236552   3.114   6.008   3.966 -0.3250 -0.1227  0.0879
 5046TIP3    H136553   3.203   6.008   4.002 -0.4468 -0.9815  0.4035
 5046TIP3    H236554   3.113   5.933   3.906 -0.5928  0.3731 -0.5319
 5047TIP3   OH236555   1.588   4.167  13.624 -0.2356 -0.2116  0.4635
 5047TIP3    H136556   1.630   4.233  13.569 -2.5655  2.0841  1.3435
 5047TIP3    H236557   1.600   4.085  13.575 -0.5448  1.4389 -2.5296
 5048TIP3   OH236558   3.576   5.298  12.574  0.0420  0.9474 -0.4063
 5048TIP3    H136559   3.586   5.245  12.653  0.8793  2.3106  0.4351
 5048TIP3    H236560   3.491   5.272  12.538  0.3946 -0.8757  0.0231
 5049TIP3   OH236561   3.894   6.111  15.981 -0.1936  0.0584  0.3925
 5049TIP3    H136562   3.950   6.179  16.018  0.6835 -1.9033  2.8652
 5049TIP3    H236563   3.928   6.098  15.893  1.7603  0.5560  1.0358
 5050TIP3   OH236564   6.434   4.223  10.762  0.3422  0.1705  0.4280
 5050TIP3    H136565   6.397   4.136  10.769  0.2711  0.2230  0.7094
 5050TIP3    H236566   6.364   4.277  10.725 -0.1077  0.4287  1.6439
 5051TIP3   OH236567   5.311   5.609  16.680 -0.2207  0.9562 -0.0908
 5051TIP3    H136568   5.222   5.625  16.648 -0.6404  0.4078  0.7868
 5051TIP3    H236569   5.299   5.551  16.755  0.7117  2.4922  1.2637
 5052TIP3   OH236570   0.859   3.693   2.936  0.2700 -0.0108  0.4328
 5052TIP3    H136571   0.776   3.661   2.971 -0.4278  1.4711  0.1656
 5052TIP3    H236572   0.903   3.615   2.904 -1.8427 -0.6167 -1.1223
 5053TIP3   OH236573   6.637   0.674   0.215  0.4766  0.0941  0.0260
 5053TIP3    H136574   6.718   0.721   0.238  0.3289  0.3563  0.0111
 5053TIP3    H236575   6.579   0.742   0.180  0.8659 -0.3812 -1.5704
 5054TIP3   OH236576   4.775   1.633   3.240 -0.5119  0.6979 -0.0932
 5054TIP3    H136577   4.796   1.593   3.156  1.6992  1.5584  0.0142
 5054TIP3    H236578   4.686   1.605   3.259 -0.2079 -1.3750 -1.6347
 5055TIP3   OH236579   2.316   5.652  11.342 -0.3810  0.3007 -0.1334
 5055TIP3    H136580   2.362   5.641  11.426 -0.0943 -0.0551 -0.3342
 5055TIP3    H236581   2.253   5.722  11.358 -0.9202 -0.3488  0.6242
 5056TIP3   OH236582   3.191   2.216   6.327 -0.1305 -0.6997 -0.5098
 5056TIP3    H136583   3.190   2.235   6.420  1.2736 -1.0109 -0.4345
 5056TIP3    H236584   3.098   2.202   6.305 -0.5667  0.2774  0.6333
 5057TIP3   OH236585   5.813   0.225   2.015 -0.3392 -0.0231 -0.0695
 5057TIP3    H136586   5.754   0.239   1.941  0.2848  2.9540 -0.0535
 5057TIP3    H236587   5.845   0.312   2.038  1.9154 -1.2545  1.7192
 5058TIP3   OH236588   6.626   2.898   1.650  0.1968 -0.7346  0.0701
 5058TIP3    H136589   6.646   2.977   1.700 -0.9516 -1.3477  1.5184
 5058TIP3    H236590   6.555   2.926   1.591 -2.3032 -1.4148  2.6661
 5059TIP3   OH236591   4.163   2.237  13.123  0.0109  0.8677  0.2057
 5059TIP3    H136592   4.080   2.208  13.085  0.0225  0.2032  0.6828
 5059TIP3    H236593   4.137   2.289  13.199  0.0545 -0.2019  0.9545
 5060TIP3   OH236594   3.133   1.552   2.919  0.1911 -0.5544  0.3886
 5060TIP3    H136595   3.042   1.534   2.939  0.6141 -2.7505  0.4762
 5060TIP3    H236596   3.173   1.572   3.004 -0.3483  1.1229  0.2561
 5061TIP3   OH236597   5.607   1.446   5.865 -0.0649 -0.0235 -0.3300
 5061TIP3    H136598   5.578   1.355   5.859  1.5700 -0.5847 -0.1153
 5061TIP3    H236599   5.613   1.475   5.774  0.0874 -0.3589 -0.4287
 5062TIP3   OH236600   4.908   6.454  13.206 -0.0829  0.3275 -0.2325
 5062TIP3    H136601   4.899   6.534  13.154 -1.9797  1.5499  1.9184
 5062TIP3    H236602   4.987   6.469  13.259  0.8829 -0.2188 -1.4840
 5063TIP3   OH236603   5.536   2.806   2.037 -0.6187 -0.1106  0.3320
 5063TIP3    H136604   5.539   2.902   2.034 -2.5375 -0.0832 -1.5228
 5063TIP3    H236605   5.478   2.786   2.110 -3.1892  0.2298 -1.5681
 5064TIP3   OH236606   4.789   2.364  15.579 -0.0222 -0.0145 -0.0228
 5064TIP3    H136607   4.702   2.325  15.573 -0.1444  0.2694 -0.1442
 5064TIP3    H236608   4.793   2.424  15.504  0.3894 -0.2529 -0.1921
 5065TIP3   OH236609   2.068   4.313   2.624 -0.6521  0.0696 -0.1421
 5065TIP3    H136610   2.032   4.364   2.551 -1.2330 -0.8987 -0.5461
 5065TIP3    H236611   1.997   4.252   2.648 -1.4185  2.0184  2.8671
 5066TIP3   OH236612   5.144   0.281  11.909  0.3370  0.0640 -0.3345
 5066TIP3    H136613   5.049   0.276  11.912  0.4310 -1.1386  0.7417
 5066TIP3    H236614   5.162   0.355  11.850 -1.2598  1.0212  0.3453
 5067TIP3   OH236615   0.304   2.960   1.752 -0.1095 -0.3276 -0.2429
 5067TIP3    H136616   0.279   2.892   1.690  2.9125 -1.1280 -0.6895
 5067TIP3    H236617   0.400   2.957   1.752 -0.0231  1.1458  2.8252
 5068TIP3   OH236618   0.131   4.879  12.480  0.3234 -0.3510 -0.0870
 5068TIP3    H136619   0.207   4.906  12.429  0.7793 -0.1702  0.6859
 5068TIP3    H236620   0.110   4.792  12.447  0.4013 -0.0992 -0.8225
 5069TIP3   OH236621   4.608   0.271  14.928  0.2801 -0.2036 -0.1508
 5069TIP3    H136622   4.652   0.274  14.844 -1.5483 -1.5452 -1.2009
 5069TIP3    H236623   4.576   0.360  14.942  0.2058 -0.0843 -1.0751
 5070TIP3   OH236624   1.313   3.341  11.923 -0.2528  0.0590  0.2352
 5070TIP3    H136625   1.365   3.421  11.926 -0.4253  0.1249  2.7753
 5070TIP3    H236626   1.372   3.273  11.957 -0.7085 -0.5226 -0.1169
 5071TIP3   OH236627   5.906   5.733  12.222 -0.0982 -0.0843 -0.1062
 5071TIP3    H136628   5.927   5.700  12.135  0.6263 -0.4360  0.1960
 5071TIP3    H236629   5.876   5.823  12.207 -2.6568 -1.0543 -0.9855
 5072TIP3   OH236630   4.655   3.520  11.850 -0.0483  0.2735  0.3246
 5072TIP3    H136631   4.563   3.496  11.838  0.2271  0.0065 -1.4802
 5072TIP3    H236632   4.690   3.452  11.907 -1.2588  1.0904  2.0746
 5073TIP3   OH236633   3.742   0.118   5.994  0.0802  0.4041 -0.4038
 5073TIP3    H136634   3.684   0.174   5.943  0.4942  2.0852  0.9004
 5073TIP3    H236635   3.706   0.120   6.083  0.2384 -1.2339 -0.2780
 5074TIP3   OH236636   4.993   1.732   4.892 -0.4996 -0.2625 -0.0359
 5074TIP3    H136637   4.938   1.655   4.909  0.5049 -0.6277  1.7302
 5074TIP3    H236638   5.060   1.701   4.832 -1.4372 -0.1588 -1.1481
 5075TIP3   OH236639   1.900   2.843   5.494  0.1060 -0.3066  0.0233
 5075TIP3    H136640   1.962   2.842   5.568  0.5206 -0.1800 -0.3210
 5075TIP3    H236641   1.823   2.887   5.529 -0.1241 -1.2341  0.7252
 5076TIP3   OH236642   5.904   2.812   0.470  0.2309 -0.2456  0.3934
 5076TIP3    H136643   5.817   2.850   0.466  0.7942  1.1753  1.4412
 5076TIP3    H236644   5.889   2.717   0.462 -1.3649  0.0058  0.2552
 5077TIP3   OH236645   4.893   1.254   3.971 -0.2615 -0.2096 -0.4015
 5077TIP3    H136646   4.973   1.202   3.983  0.6639  1.1964 -0.4319
 5077TIP3    H236647   4.826   1.189   3.948  1.1054 -1.2852 -1.4506
 5078TIP3   OH236648   4.496   4.660   1.636  0.7957 -0.3598 -0.9183
 5078TIP3    H136649   4.553   4.595   1.594  0.6782 -1.2511  0.2837
 5078TIP3    H236650   4.407   4.629   1.619  0.7142 -0.0904 -0.9946
 5079TIP3   OH236651   4.879   6.131   3.905 -0.0144  0.0428  0.1559
 5079TIP3    H136652   4.912   6.162   3.820  1.7710 -0.1737  0.7367
 5079TIP3    H236653   4.795   6.091   3.885  1.3315 -1.9367 -1.9162
 5080TIP3   OH236654   0.240   2.812   4.974 -0.2778  0.0246  0.7690
 5080TIP3    H136655   0.307   2.819   4.906  1.2680  0.5158  2.3085
 5080TIP3    H236656   0.158   2.800   4.926  0.9843 -1.2241 -1.1360
 5081TIP3   OH236657   4.734   1.683  15.665 -0.2848  0.3165  0.1075
 5081TIP3    H136658   4.744   1.592  15.637  0.4795  0.8472 -1.3897
 5081TIP3    H236659   4.823   1.716  15.674 -0.5594  1.1230 -0.0694
 5082TIP3   OH236660   6.554   0.282  14.770  0.8405 -0.1735  0.1520
 5082TIP3    H136661   6.479   0.301  14.713 -0.2343 -0.6376  1.3995
 5082TIP3    H236662   6.546   0.344  14.842  1.0254 -0.9488  0.8496
 5083TIP3   OH236663   2.148   0.614  13.070  0.3164  0.5860 -0.3325
 5083TIP3    H136664   2.235   0.611  13.030  0.2785 -0.5025 -0.3301
 5083TIP3    H236665   2.099   0.544  13.028 -0.0753  0.1677  0.7945
 5084TIP3   OH236666   4.805   6.701  13.121 -0.0131 -0.1738 -0.2560
 5084TIP3    H136667   4.760   6.748  13.191  1.9905  3.5341 -1.3216
 5084TIP3    H236668   4.789   6.754  13.042  1.1757 -2.0561 -1.8125
 5085TIP3   OH236669   2.625   1.126   5.791  0.1310  0.0992 -0.0913
 5085TIP3    H136670   2.707   1.084   5.816  0.4379  0.3963 -0.5861
 5085TIP3    H236671   2.642   1.220   5.799 -0.5909  0.1248  1.1244
 5086TIP3   OH236672   1.681   4.765  16.365  0.2778 -0.3140 -0.0243
 5086TIP3    H136673   1.729   4.842  16.335 -0.5716 -0.5095 -1.9264
 5086TIP3    H236674   1.750   4.706  16.398  1.2731 -0.1796 -1.7999
 5087TIP3   OH236675   1.695   0.339  11.374 -0.5732 -0.2235 -0.0453
 5087TIP3    H136676   1.660   0.273  11.434 -0.3327  0.8414  1.2921
 5087TIP3    H236677   1.617   0.383  11.339 -0.7082 -0.7203 -0.3641
 5088TIP3   OH236678   5.583   2.881  13.794 -0.8048 -0.1370 -0.0817
 5088TIP3    H136679   5.612   2.967  13.826  0.0208 -1.3311  2.4647
 5088TIP3    H236680   5.576   2.893  13.699  0.1376  2.5087  0.1236
 5089TIP3   OH236681   1.997   5.116  15.081 -0.6468  0.1267  0.3334
 5089TIP3    H136682   1.992   5.212  15.079  0.7708  0.2611  1.9646
 5089TIP3    H236683   1.909   5.088  15.107 -1.3057  0.9394 -0.9820
 5090TIP3   OH236684   6.039   3.167   3.882  0.1650  0.4754 -0.6578
 5090TIP3    H136685   6.039   3.259   3.854 -0.6355 -0.0731 -2.4792
 5090TIP3    H236686   6.061   3.171   3.976 -0.9504  2.5951 -0.4577
 5091TIP3   OH236687   2.509   6.424   3.090 -0.1195  0.5062  0.0406
 5091TIP3    H136688   2.526   6.460   3.177 -0.4805  1.3411 -0.2341
 5091TIP3    H236689   2.594   6.429   3.046 -0.3041  1.6037 -0.2067
 5092TIP3   OH236690   4.354   5.652   4.065  0.0888 -0.2119 -0.1458
 5092TIP3    H136691   4.347   5.559   4.048 -0.5482 -0.2404  0.2593
 5092TIP3    H236692   4.377   5.658   4.158  0.9002  0.0161 -0.3535
 5093TIP3   OH236693   5.090   0.589  11.413 -0.2914 -0.3270  0.0179
 5093TIP3    H136694   5.183   0.609  11.403 -0.4041 -0.2202 -0.8202
 5093TIP3    H236695   5.055   0.591  11.324 -1.4788  1.5100  0.4970
 5094TIP3   OH236696   3.996   6.403   2.127 -0.0446 -0.1623  0.3892
 5094TIP3    H136697   3.958   6.450   2.053  1.4645  2.2534  1.1050
 5094TIP3    H236698   4.078   6.448   2.145  1.2006 -2.7444  1.4696
 5095TIP3   OH236699   3.758   1.097  16.779 -0.5622 -0.0330 -0.2390
 5095TIP3    H136700   3.797   1.122  16.695  2.3440  1.2678  1.4025
 5095TIP3    H236701   3.792   1.008  16.795 -1.6836 -0.5563 -0.7713
 5096TIP3   OH236702   1.487   1.434  13.672 -0.1643 -0.1292 -0.5130
 5096TIP3    H136703   1.532   1.511  13.708 -2.4269  0.7530  0.5520
 5096TIP3    H236704   1.453   1.464  13.588  0.8694 -0.6805 -1.1401
 5097TIP3   OH236705   5.000   4.771  13.347  0.3260  0.1127  0.0304
 5097TIP3    H136706   5.071   4.772  13.412  0.7714  0.1152 -0.4452
 5097TIP3    H236707   4.923   4.802  13.394  0.7325  0.4790  0.4576
 5098TIP3   OH236708   2.327   0.175  11.366  0.0582  0.3695 -0.0092
 5098TIP3    H136709   2.297   0.228  11.292 -0.1179 -0.6647 -0.7040
 5098TIP3    H236710   2.249   0.125  11.392 -0.5805  2.5910  2.5527
 5099TIP3   OH236711   4.000   0.469  11.899 -0.2417  0.1156  0.1906
 5099TIP3    H136712   3.949   0.547  11.875  0.3724  0.6692  0.6737
 5099TIP3    H236713   3.996   0.467  11.994 -0.1994 -0.4132  0.1778
 5100TIP3   OH236714   1.891   6.382   1.879 -0.3816 -0.1114 -0.3289
 5100TIP3    H136715   1.933   6.463   1.908  0.6060 -1.2938  1.7010
 5100TIP3    H236716   1.949   6.347   1.812 -0.3735  0.4257 -0.6071
 5101TIP3   OH236717   2.829   2.016   0.977 -0.2154 -0.6075  0.1822
 5101TIP3    H136718   2.808   2.109   0.974 -0.3857 -0.6181  0.9652
 5101TIP3    H236719   2.895   2.004   0.909  2.1081  0.7013  2.1150
 5102TIP3   OH236720   3.458   4.831   4.722  0.0376 -0.2403  0.0786
 5102TIP3    H136721   3.533   4.841   4.781  0.7849 -2.1106 -0.5124
 5102TIP3    H236722   3.384   4.815   4.780  0.4135 -0.1223  0.5974
 5103TIP3   OH236723   2.972   0.263  15.474 -0.6410  0.0055 -0.3291
 5103TIP3    H136724   3.060   0.301  15.470  0.2177 -2.0513 -1.9830
 5103TIP3    H236725   2.947   0.252  15.382 -1.9645 -0.8975  0.1353
 5104TIP3   OH236726   0.402   0.800   5.451  0.3667 -0.6487 -0.9455
 5104TIP3    H136727   0.359   0.715   5.464  1.1053 -0.9060 -0.1347
 5104TIP3    H236728   0.495   0.781   5.460  0.4256  0.6638  1.6473
 5105TIP3   OH236729   2.317   1.129   3.902  0.4912 -0.2775 -0.6410
 5105TIP3    H136730   2.402   1.134   3.857  0.0504 -0.4592 -1.5172
 5105TIP3    H236731   2.328   1.059   3.966  0.8750 -0.5906 -1.0405
 5106TIP3   OH236732   3.228   6.669  13.455  0.0573 -0.0606  0.0984
 5106TIP3    H136733   3.220   6.656  13.549 -0.9372  1.6851  0.2829
 5106TIP3    H236734   3.207   6.584  13.416 -0.9909 -0.3993  1.3921
 5107TIP3   OH236735   4.273   3.924  13.323  0.5414 -0.0280 -0.2106
 5107TIP3    H136736   4.357   3.965  13.342  0.8199 -0.7698  0.1920
 5107TIP3    H236737   4.215   3.996  13.301  1.3739  0.4515 -0.8124
 5108TIP3   OH236738   5.105   6.258  12.115  0.5666 -0.8695  0.0418
 5108TIP3    H136739   5.093   6.241  12.021  1.0191  0.1251 -0.2057
 5108TIP3    H236740   5.172   6.326  12.118  0.5807 -0.9297  1.0917
 5109TIP3   OH236741   5.854   0.891  14.858  0.4019  0.0320 -0.2053
 5109TIP3    H136742   5.828   0.854  14.774 -1.2022 -0.6219  0.5667
 5109TIP3    H236743   5.950   0.883  14.859  0.3506 -0.9117 -1.5089
 5110TIP3   OH236744   3.769   6.114   3.734  0.3940  0.4784  0.5026
 5110TIP3    H136745   3.733   6.137   3.819  1.2952  0.3390  0.9256
 5110TIP3    H236746   3.777   6.018   3.736  2.8871  0.6576  1.2894
 5111TIP3   OH236747   5.806   2.801  14.397 -0.3805 -0.2611 -0.0398
 5111TIP3    H136748   5.891   2.838  14.418 -0.6083  1.2814 -1.7363
 5111TIP3    H236749   5.744   2.849  14.452 -0.2162 -1.0485  0.8400
 5112TIP3   OH236750   6.264   2.824   4.238 -0.5906  0.4660  0.1493
 5112TIP3    H136751   6.197   2.765   4.206 -1.3198  0.8670  0.9083
 5112TIP3    H236752   6.228   2.860   4.319  0.1679  1.3499  0.1101
 5113TIP3   OH236753   3.659   4.010  12.150  0.1976 -0.6342  0.6839
 5113TIP3    H136754   3.685   4.102  12.155 -0.0603 -0.5162 -0.0494
 5113TIP3    H236755   3.695   3.971  12.229  1.1619 -0.1143  0.5054
 5114TIP3   OH236756   3.193   4.189  13.067  0.0051 -0.3172  0.1610
 5114TIP3    H136757   3.231   4.237  13.142  1.8793 -1.7337  0.1486
 5114TIP3    H236758   3.159   4.108  13.105 -0.9609 -0.0910 -0.2063
 5115TIP3   OH236759   5.130   4.085  12.445 -0.7734  0.2819  0.3913
 5115TIP3    H136760   5.062   4.152  12.447 -0.8371  0.1966  1.2082
 5115TIP3    H236761   5.197   4.120  12.386 -1.4937  0.3935 -0.3679
 5116TIP3   OH236762   3.387   1.424   4.218  0.2797  0.0958  0.3600
 5116TIP3    H136763   3.407   1.464   4.303  0.4982  0.2787  0.2232
 5116TIP3    H236764   3.300   1.386   4.229  0.8816 -1.0717  1.0849
 5117TIP3   OH236765   5.399   4.331   5.408 -0.0668  0.2810 -0.0970
 5117TIP3    H136766   5.395   4.243   5.445  2.4449  0.7745  1.5153
 5117TIP3    H236767   5.484   4.335   5.365 -1.5032  0.8995 -2.9837
 5118TIP3   OH236768   3.868   2.375  11.631 -0.1618 -0.6918  0.3129
 5118TIP3    H136769   3.809   2.303  11.610 -1.0244 -0.2748  1.2755
 5118TIP3    H236770   3.839   2.407  11.716  1.4967 -0.5244  0.8441
 5119TIP3   OH236771   2.255   1.273  12.942 -0.2975 -0.0368  0.1569
 5119TIP3    H136772   2.288   1.187  12.917 -0.1096  0.4449 -1.3006
 5119TIP3    H236773   2.316   1.303  13.009  0.4436 -0.4717 -0.3093
 5120TIP3   OH236774   2.313   1.638  14.884 -0.7537 -0.3126  0.4094
 5120TIP3    H136775   2.341   1.643  14.793  1.6631  2.0641  1.2289
 5120TIP3    H236776   2.222   1.668  14.884 -0.5558  0.2915 -1.1248
 5121TIP3   OH236777   5.329   0.122  17.180 -0.2427 -0.2365  0.1799
 5121TIP3    H136778   5.395   0.093  17.243  0.1116 -0.1468 -0.1544
 5121TIP3    H236779   5.360   0.091  17.096 -0.7340 -0.3800  0.0473
 5122TIP3   OH236780   4.313   1.260   0.725  0.5471 -0.6086 -0.1139
 5122TIP3    H136781   4.379   1.202   0.687  1.8544  0.0398  1.0761
 5122TIP3    H236782   4.351   1.286   0.809 -1.1099  0.0243  0.4470
 5123TIP3   OH236783   5.284   3.484  11.173  0.4646 -0.4192  0.4213
 5123TIP3    H136784   5.337   3.453  11.099  0.5318  2.1344 -0.6630
 5123TIP3    H236785   5.341   3.474  11.249  1.0893 -1.3178 -0.1583
 5124TIP3   OH236786   1.301   0.729  15.819 -0.1368  0.4751  0.5972
 5124TIP3    H136787   1.337   0.640  15.815  0.6166  0.7723  0.5957
 5124TIP3    H236788   1.377   0.784  15.839 -0.2495  1.3347 -1.2302
 5125TIP3   OH236789   2.137   5.967  13.505  0.2884 -0.0371  0.3487
 5125TIP3    H136790   2.197   5.915  13.451 -0.3491 -0.1323 -0.2630
 5125TIP3    H236791   2.195   6.023  13.557  0.8330  2.3242 -2.6740
 5126TIP3   OH236792   1.252   2.412   2.059  0.3154  0.8627 -0.1456
 5126TIP3    H136793   1.157   2.406   2.060  0.2693  1.5219  1.0034
 5126TIP3    H236794   1.278   2.396   2.150  1.2711  1.1596 -0.3561
 5127TIP3   OH236795   4.187   1.669  14.486  0.7695 -0.2010  0.2104
 5127TIP3    H136796   4.244   1.670  14.409 -1.9435  0.7321 -1.8564
 5127TIP3    H236797   4.189   1.760  14.518  1.2812 -0.4140  0.7980
 5128TIP3   OH236798   0.197   1.245  14.422 -0.0548 -0.5197  0.3128
 5128TIP3    H136799   0.277   1.193  14.431 -0.0709 -0.5779  0.1164
 5128TIP3    H236800   0.208   1.292  14.339  0.4326  0.6050  1.0080
 5129TIP3   OH236801   3.738   0.421  15.280  0.1386 -0.4194 -0.1711
 5129TIP3    H136802   3.798   0.475  15.332 -1.1883  0.8339  0.1076
 5129TIP3    H236803   3.774   0.425  15.191  0.5301  0.2307  0.0079
 5130TIP3   OH236804   0.560   3.470   1.029  0.3142  1.4872 -1.1161
 5130TIP3    H136805   0.582   3.378   1.047 -2.1566  0.7766 -1.5751
 5130TIP3    H236806   0.580   3.515   1.111  0.0887  0.2580 -0.3599
 5131TIP3   OH236807   1.995   1.546  12.431  0.2432 -0.0211 -0.3313
 5131TIP3    H136808   2.090   1.555  12.439 -0.0136  1.9960  0.5013
 5131TIP3    H236809   1.972   1.604  12.359 -0.4145 -0.2603 -0.3108
 5132TIP3   OH236810   6.197   5.050   3.720  0.1003 -0.0115  0.2260
 5132TIP3    H136811   6.261   5.010   3.778  0.3857 -0.4975 -0.4199
 5132TIP3    H236812   6.236   5.045   3.633  0.9605  3.3089  0.3441
 5133TIP3   OH236813   0.232   3.063  13.805  0.0978 -0.3039 -0.5791
 5133TIP3    H136814   0.210   3.109  13.724 -0.0679 -0.0492 -0.3932
 5133TIP3    H236815   0.272   2.981  13.777  3.2999  1.3104 -0.9220
 5134TIP3   OH236816   2.165   3.707   0.686  0.3387  0.1002 -0.8392
 5134TIP3    H136817   2.143   3.791   0.727 -0.8481 -0.9118  0.6604
 5134TIP3    H236818   2.232   3.729   0.622 -0.1454  2.2416 -0.6622
 5135TIP3   OH236819   2.591   4.856  15.893 -0.2147  0.1712  0.0562
 5135TIP3    H136820   2.501   4.823  15.898 -0.4314  0.8852  1.1727
 5135TIP3    H236821   2.582   4.951  15.902  0.6516  0.2502  0.1347
 5136TIP3   OH236822   1.588   3.243  16.184 -0.1083  0.3122  0.2790
 5136TIP3    H136823   1.551   3.323  16.147  0.3236  0.0735 -0.6841
 5136TIP3    H236824   1.512   3.189  16.206 -0.4049  1.0789  1.1519
 5137TIP3   OH236825   5.455   6.689   1.430  0.1587  0.0016  0.1764
 5137TIP3    H136826   5.535   6.641   1.452 -0.1698 -0.3367  0.6405
 5137TIP3    H236827   5.486   6.769   1.387  0.8227  0.6551  1.8295
 5138TIP3   OH236828   2.932   0.953  15.483 -0.0387  0.1880  0.0838
 5138TIP3    H136829   2.920   0.987  15.571  1.9539 -1.4249  1.0369
 5138TIP3    H236830   2.915   0.859  15.491  0.3391 -0.0029 -1.1859
 5139TIP3   OH236831   3.945   2.039  13.710 -0.4670 -0.0753 -0.3799
 5139TIP3    H136832   3.865   2.004  13.750 -0.5582 -0.2809 -0.7403
 5139TIP3    H236833   3.958   1.985  13.632  0.0648 -0.0893 -0.2806
 5140TIP3   OH236834   4.468   1.100  11.904 -0.2379 -0.2661 -0.0603
 5140TIP3    H136835   4.470   1.194  11.923 -0.2944  0.2164 -2.3273
 5140TIP3    H236836   4.476   1.095  11.809  1.5789 -2.6451  0.2046
 5141TIP3   OH236837   3.258   1.355   3.898 -0.6180  0.0035 -0.3710
 5141TIP3    H136838   3.348   1.338   3.926  0.0826 -0.1781 -2.6652
 5141TIP3    H236839   3.239   1.287   3.833 -2.2962  0.2405 -0.1614
 5142TIP3   OH236840   1.101   1.396  10.806  0.2136 -0.0087 -0.7439
 5142TIP3    H136841   1.087   1.321  10.748  0.7305  0.7502 -1.8842
 5142TIP3    H236842   1.060   1.371  10.889  0.2584 -1.4862 -1.1516
 5143TIP3   OH236843   4.836   4.759   1.298  0.4062  0.1535  0.2531
 5143TIP3    H136844   4.863   4.795   1.383 -1.0498  3.3180 -0.5403
 5143TIP3    H236845   4.911   4.776   1.241  0.6079 -0.1541  0.4251
 5144TIP3   OH236846   2.911   6.013  13.538  0.2597 -0.4066  0.0592
 5144TIP3    H136847   2.896   6.038  13.447  1.3348 -0.2104 -0.0694
 5144TIP3    H236848   2.861   5.932  13.549  0.2592 -0.5176 -0.7551
 5145TIP3   OH236849   6.246   4.077   2.879 -0.2177  0.2124  0.1668
 5145TIP3    H136850   6.256   4.110   2.790 -0.4555 -0.8414 -0.2598
 5145TIP3    H236851   6.331   4.038   2.900 -1.0520 -2.2266 -0.7411
 5146TIP3   OH236852   0.901   5.384   4.296  0.0500  0.0729 -0.1341
 5146TIP3    H136853   0.945   5.324   4.356 -0.7957 -0.4359 -0.0267
 5146TIP3    H236854   0.879   5.330   4.220  0.4033  0.5364 -0.5714
 5147TIP3   OH236855   6.225   3.226  12.822 -0.2482  0.0140  0.7652
 5147TIP3    H136856   6.229   3.222  12.726  0.8715 -0.0480  0.8134
 5147TIP3    H236857   6.134   3.205  12.843 -0.6050  0.4652 -0.3099
 5148TIP3   OH236858   2.557   5.066   0.697  0.4727  0.3321 -0.1425
 5148TIP3    H136859   2.643   5.057   0.657  0.8150  3.5299 -0.2886
 5148TIP3    H236860   2.499   5.093   0.626 -0.6998 -1.7790 -0.0447
 5149TIP3   OH236861   4.520   3.539   1.547  0.3340 -0.1132  0.0256
 5149TIP3    H136862   4.433   3.573   1.570  0.1781 -0.5596  0.0907
 5149TIP3    H236863   4.527   3.554   1.453 -0.5841 -1.7936 -0.3385
 5150TIP3   OH236864   5.560   1.026  16.081 -0.6285  0.0572 -0.2743
 5150TIP3    H136865   5.567   0.989  16.168  0.3106  0.0259 -0.3669
 5150TIP3    H236866   5.506   1.104  16.092  1.1983  1.2007  0.6760
 5151TIP3   OH236867   4.361   3.394   2.548 -0.5271  0.0612  0.4902
 5151TIP3    H136868   4.328   3.471   2.593 -0.6233  0.1813  0.2128
 5151TIP3    H236869   4.311   3.390   2.467 -0.7373 -0.4691  0.6469
 5152TIP3   OH236870   6.267   4.528   2.493  0.2636  0.5046  0.1245
 5152TIP3    H136871   6.226   4.614   2.486 -0.4381  0.3174  1.6963
 5152TIP3    H236872   6.273   4.497   2.403 -0.9663  1.5126 -0.3216
 5153TIP3   OH236873   1.041   3.580   1.758  0.5880 -0.3458 -0.6458
 5153TIP3    H136874   1.059   3.673   1.774  0.9389 -0.8219  1.9909
 5153TIP3    H236875   0.954   3.565   1.794  0.6856 -1.1024 -0.7069
 5154TIP3   OH236876   1.777   0.585  16.649  0.2443 -0.1295 -0.6755
 5154TIP3    H136877   1.683   0.585  16.629  0.5977 -0.6947 -2.3450
 5154TIP3    H236878   1.816   0.640  16.582  1.0053  0.9685  0.6345
 5155TIP3   OH236879   2.036   2.016  14.398 -0.5081 -0.0686 -0.2086
 5155TIP3    H136880   2.049   2.110  14.408  0.7286 -0.3241  0.7862
 5155TIP3    H236881   1.960   1.997  14.452 -0.5753  0.3143 -0.1652
 5156TIP3   OH236882   5.911   6.445  11.905 -0.6837 -0.6925  0.1371
 5156TIP3    H136883   5.887   6.368  11.854 -2.8924 -0.2950  0.5344
 5156TIP3    H236884   5.872   6.518  11.856 -0.3871 -0.0302  0.8864
 5157TIP3   OH236885   6.161   3.924   3.673 -0.1075  0.2303  0.1706
 5157TIP3    H136886   6.072   3.919   3.706 -0.6426  0.2078 -1.2480
 5157TIP3    H236887   6.159   3.877   3.590  1.1349  0.5521 -0.0589
 5158TIP3   OH236888   6.255   3.878  12.876  0.4100 -0.1727  0.3935
 5158TIP3    H136889   6.302   3.796  12.863  0.5620 -0.1065  0.5316
 5158TIP3    H236890   6.275   3.929  12.798 -0.3407 -0.5848 -0.0774
 5159TIP3   OH236891   3.084   2.159  17.114  0.0766 -0.0440  0.3064
 5159TIP3    H136892   3.165   2.109  17.128  0.8310  1.0888  0.0027
 5159TIP3    H236893   3.101   2.210  17.035 -0.6538  0.7801  0.6787
 5160TIP3   OH236894   2.620   6.710   1.726 -0.4064 -0.1377 -0.0702
 5160TIP3    H136895   2.695   6.651   1.731 -0.8263 -0.5641  1.1729
 5160TIP3    H236896   2.645   6.786   1.779 -0.6153 -0.0201 -0.1372
 5161TIP3   OH236897   5.006   0.790  13.185  0.2076  0.1822 -0.0904
 5161TIP3    H136898   5.044   0.828  13.264  0.9411  0.1071 -0.3953
 5161TIP3    H236899   4.969   0.707  13.214  0.7877 -0.0100  0.1102
 5162TIP3   OH236900   5.962   6.254  13.920  0.1471  0.0914  0.5838
 5162TIP3    H136901   5.922   6.338  13.944 -2.3642  0.1567 -3.3410
 5162TIP3    H236902   5.899   6.188  13.951  0.2574 -0.1629  0.2624
 5163TIP3   OH236903   6.751   5.923   1.334 -0.4442  0.3395  0.1465
 5163TIP3    H136904   6.659   5.936   1.313  0.2819  0.6965 -3.1492
 5163TIP3    H236905   6.787   6.012   1.340  0.2016  0.1819 -1.2168
 5164TIP3   OH236906   0.880   6.038  14.504  0.0073  0.1234  0.0280
 5164TIP3    H136907   0.935   6.052  14.581 -0.3729  1.5508  0.0602
 5164TIP3    H236908   0.793   6.020  14.540  0.2804 -1.3355 -0.0352
 5165TIP3   OH236909   1.672   1.313  15.862  0.0226  0.0141  0.4114
 5165TIP3    H136910   1.596   1.268  15.826  0.6325 -0.0135 -0.8686
 5165TIP3    H236911   1.736   1.244  15.877  0.9650  0.3996 -1.5658
 5166TIP3   OH236912   3.841   3.969   5.173 -0.7722  0.7539  0.0170
 5166TIP3    H136913   3.801   3.935   5.093  0.7178 -1.0145 -0.0101
 5166TIP3    H236914   3.929   3.994   5.147  0.5023 -1.9327  1.5144
 5167TIP3   OH236915   1.053   4.729  14.460 -0.1472 -0.3728 -0.0145
 5167TIP3    H136916   1.032   4.802  14.519  2.6890 -1.5016  2.5398
 5167TIP3    H236917   0.988   4.662  14.480  0.6894 -0.6789  1.7908
 5168TIP3   OH236918   3.896   3.710  15.233 -0.4833 -0.3620  0.3305
 5168TIP3    H136919   3.965   3.769  15.204 -0.6065 -0.2031  0.3613
 5168TIP3    H236920   3.832   3.711  15.161 -0.3454 -0.6811  0.2056
 5169TIP3   OH236921   0.103   4.805   2.687  0.2809 -0.5033 -0.0103
 5169TIP3    H136922   0.020   4.846   2.661  0.7260  0.5826  0.2365
 5169TIP3    H236923   0.133   4.858   2.761  1.2062 -0.8738 -0.1128
 5170TIP3   OH236924   1.980   6.625   0.365  0.1110  0.0464 -0.6892
 5170TIP3    H136925   1.984   6.638   0.459 -1.7610  0.7851 -0.6839
 5170TIP3    H236926   1.991   6.713   0.328 -1.0682  0.0507 -1.0711
 5171TIP3   OH236927   1.001   6.371   4.315 -0.3030 -0.1054  0.3926
 5171TIP3    H136928   1.071   6.338   4.372 -0.2987 -0.3538  0.2464
 5171TIP3    H236929   1.042   6.382   4.229 -0.6877 -1.2299  0.0515
 5172TIP3   OH236930   6.000   4.603  12.333 -0.0372  0.3045  0.5355
 5172TIP3    H136931   6.075   4.559  12.374  0.6710  1.6044  0.6703
 5172TIP3    H236932   6.004   4.577  12.241 -0.4724 -1.0482  0.8869
 5173TIP3   OH236933   1.754   3.361   3.998 -0.0711  0.5402  0.1251
 5173TIP3    H136934   1.684   3.335   4.057  1.0920 -0.0957  1.2240
 5173TIP3    H236935   1.756   3.457   4.004 -1.7502  0.6611 -0.9642
 5174TIP3   OH236936   3.109   2.908  11.995 -0.0099  0.1307 -0.2147
 5174TIP3    H136937   3.023   2.949  12.010  0.2391  1.2339 -1.6555
 5174TIP3    H236938   3.094   2.849  11.921 -0.0339 -1.3695  0.9656
 5175TIP3   OH236939   6.077   0.303   4.065  0.2153 -0.2328 -0.2852
 5175TIP3    H136940   6.053   0.394   4.084 -3.0266 -0.9841 -0.5512
 5175TIP3    H236941   6.053   0.291   3.973  0.7474 -1.3139 -0.2826
 5176TIP3   OH236942   2.700   6.207  11.728 -0.6555  0.1905  0.1352
 5176TIP3    H136943   2.638   6.164  11.668  1.2151 -0.1335 -1.6319
 5176TIP3    H236944   2.784   6.202  11.682  0.7197  0.4622  2.5598
 5177TIP3   OH236945   1.183   6.351  10.297  0.0794  0.0219 -0.3025
 5177TIP3    H136946   1.095   6.325  10.323 -1.0264  1.5896 -2.3331
 5177TIP3    H236947   1.223   6.270  10.265 -0.6569 -0.6724  0.5118
 5178TIP3   OH236948   1.259   6.690   5.441 -0.4666  0.0699 -0.0976
 5178TIP3    H136949   1.315   6.753   5.396 -1.5534  1.0140 -0.1582
 5178TIP3    H236950   1.318   6.622   5.472  0.6059  0.6798 -0.8071
 5179TIP3   OH236951   3.226   0.933   5.440 -0.9122 -0.3787 -0.4466
 5179TIP3    H136952   3.175   0.865   5.483 -1.3654  0.7663  0.8833
 5179TIP3    H236953   3.263   0.891   5.363 -0.0816 -2.4949  1.0499
 5180TIP3   OH236954   5.741   4.619  10.574 -0.3189 -0.1790 -0.4598
 5180TIP3    H136955   5.828   4.599  10.610 -0.1940 -0.1969 -0.7750
 5180TIP3    H236956   5.725   4.709  10.602  0.0166 -0.0024 -0.8304
 5181TIP3   OH236957   4.320   3.568  15.210  0.5580  0.0089  0.1309
 5181TIP3    H136958   4.258   3.594  15.142 -0.5691  0.9655  1.5072
 5181TIP3    H236959   4.310   3.473  15.217  0.3204 -0.0294 -0.6854
 5182TIP3   OH236960   5.296   6.468  12.071  0.4700 -0.2568 -0.2398
 5182TIP3    H136961   5.336   6.538  12.021 -0.3737  0.2882 -0.1651
 5182TIP3    H236962   5.293   6.501  12.161 -0.7350 -0.0163 -0.3574
 5183TIP3   OH236963   0.074   6.734  13.709 -0.2139 -0.3354 -0.5115
 5183TIP3    H136964   0.154   6.715  13.661  0.4423  2.0428 -0.4064
 5183TIP3    H236965   0.086   6.690  13.794  0.1101 -1.6316 -1.2140
 5184TIP3   OH236966   0.179   0.852  15.942 -0.4292  0.2802 -0.0406
 5184TIP3    H136967   0.250   0.830  15.882  0.0939 -0.9933  1.0047
 5184TIP3    H236968   0.223   0.881  16.022 -1.0951  0.2403  0.3491
 5185TIP3   OH236969   0.121   6.325   1.918  0.7635  0.3563  0.2152
 5185TIP3    H136970   0.104   6.274   1.838 -1.0744 -0.3228  1.0218
 5185TIP3    H236971   0.188   6.275   1.964  1.3030  0.3686 -0.5377
 5186TIP3   OH236972   0.046   5.365   3.327  0.2210  0.3361 -0.5756
 5186TIP3    H136973   0.028   5.367   3.421  2.1675 -0.7320 -0.1431
 5186TIP3    H236974   0.033   5.273   3.302  1.0297  0.3454 -1.0607
 5187TIP3   OH236975   1.045   5.741   0.720  0.1641  0.3980  0.0948
 5187TIP3    H136976   1.139   5.758   0.719  0.3067 -0.3977 -1.7360
 5187TIP3    H236977   1.016   5.772   0.806  2.0384  0.9204  0.5613
 5188TIP3   OH236978   3.798   4.692   3.053 -0.2295 -0.6831 -0.2495
 5188TIP3    H136979   3.814   4.781   3.084 -0.8154 -0.9558  0.8523
 5188TIP3    H236980   3.703   4.688   3.040 -0.3115 -1.4233  0.5658
 5189TIP3   OH236981   3.079   5.022  15.821 -0.2135 -0.6117  0.2345
 5189TIP3    H136982   3.003   5.042  15.766 -0.5806 -1.4469  0.4360
 5189TIP3    H236983   3.151   5.071  15.780 -0.7412 -0.2380 -0.2636
 5190TIP3   OH236984   0.021   0.641  11.769  0.1330 -0.3519  0.4313
 5190TIP3    H136985  -0.038   0.570  11.794  0.9557 -0.8694  0.9398
 5190TIP3    H236986   0.087   0.643  11.838  0.8115  0.1033 -0.2197
 5191TIP3   OH236987   1.984   4.691   2.082  0.2720  0.0814  0.1481
 5191TIP3    H136988   1.953   4.606   2.052  0.3760 -0.0903  0.5262
 5191TIP3    H236989   1.910   4.750   2.069  0.2497 -0.0312 -0.2566
 5192TIP3   OH236990   4.744   5.638   2.973  0.2849 -0.4106 -0.0451
 5192TIP3    H136991   4.786   5.673   2.894  0.4317 -1.0358 -0.2476
 5192TIP3    H236992   4.807   5.655   3.043  0.7722 -1.1155 -0.3042
 5193TIP3   OH236993   5.439   1.812   4.302 -0.3959  0.1971  0.1227
 5193TIP3    H136994   5.376   1.764   4.249 -0.7985 -2.5715  2.9218
 5193TIP3    H236995   5.497   1.744   4.338  2.7720  2.4432 -0.5221
 5194TIP3   OH236996   4.985   5.319   0.102 -0.6760 -0.5049  0.2384
 5194TIP3    H136997   5.017   5.230   0.089  1.3747  0.2169  0.1570
 5194TIP3    H236998   4.943   5.318   0.188 -0.3140 -1.4417  0.3980
 5195TIP3   OH236999   6.368   4.150  12.380  0.3461 -0.4956 -0.1518
 5195TIP3    H137000   6.376   4.240  12.410  0.7973 -0.6586  0.2209
 5195TIP3    H237001   6.448   4.107  12.409  0.3887 -0.8757 -0.8291
 5196TIP3   OH237002   4.975   0.857  16.867  0.2435 -0.0102  0.0416
 5196TIP3    H137003   4.918   0.779  16.868 -0.4355  0.4374 -1.5748
 5196TIP3    H237004   5.057   0.826  16.828 -0.9728  0.6657 -3.1815
 5197TIP3   OH237005   4.549   5.185   1.633  0.5635 -0.4188 -0.0583
 5197TIP3    H137006   4.460   5.189   1.597  0.1792  0.5094  0.9827
 5197TIP3    H237007   4.571   5.092   1.631 -0.2086 -0.5974 -0.8580
 5198TIP3   OH237008   3.124   4.832   1.026 -0.2760  0.0504  0.7862
 5198TIP3    H137009   3.103   4.779   1.102 -2.1035  0.0744  0.3376
 5198TIP3    H237010   3.113   4.923   1.056 -0.2767  0.0806  0.6970
 5199TIP3   OH237011   0.936   3.246  12.767 -0.0996  0.1349  0.5428
 5199TIP3    H137012   0.911   3.206  12.851 -0.5604 -1.2237 -0.2294
 5199TIP3    H237013   1.030   3.234  12.762 -0.0264  0.4755  0.9860
 5200TIP3   OH237014   5.028   2.823  12.697 -0.1302  0.0688 -0.0248
 5200TIP3    H137015   5.118   2.826  12.729 -0.0964 -0.7713 -0.0446
 5200TIP3    H237016   5.006   2.730  12.692 -0.5119  0.2127 -1.4049
 5201TIP3   OH237017   1.588   2.319  13.069  0.2105 -0.1145  0.4297
 5201TIP3    H137018   1.642   2.398  13.083 -0.7008  0.6034 -0.0378
 5201TIP3    H237019   1.646   2.258  13.024  0.4050  0.9561 -0.8131
 5202TIP3   OH237020   5.678   3.821   1.386 -0.1238 -0.6724  0.1748
 5202TIP3    H137021   5.645   3.783   1.467  0.0085 -0.1133  0.4964
 5202TIP3    H237022   5.663   3.915   1.397  1.2236 -0.4508  0.1661
 5203TIP3   OH237023   1.471   3.304  15.858 -0.2329  0.1836 -0.4509
 5203TIP3    H137024   1.469   3.214  15.891  1.4233  0.0493 -0.6744
 5203TIP3    H237025   1.554   3.310  15.812 -1.8676  0.7738 -3.4706
 5204TIP3   OH237026   4.054   3.590   0.370  0.2259 -0.5978  0.2998
 5204TIP3    H137027   3.967   3.630   0.369  0.1321 -0.8008  0.3951
 5204TIP3    H237028   4.111   3.656   0.330  0.2140 -0.0321  1.1909
 5205TIP3   OH237029   0.041   1.147   1.763 -0.0479 -0.4838  0.3988
 5205TIP3    H137030   0.092   1.067   1.775 -1.5903 -1.1912  2.4284
 5205TIP3    H237031  -0.050   1.119   1.773 -0.5576  1.7237  2.2249
 5206TIP3   OH237032   6.779   1.851  15.377  0.3651 -0.0827  0.0549
 5206TIP3    H137033   6.854   1.795  15.354 -0.2462 -1.3628  1.1004
 5206TIP3    H237034   6.816   1.919  15.432  0.5629 -1.5227  1.7502
 5207TIP3   OH237035   2.071   1.635   4.185 -0.2908  0.1031  1.0113
 5207TIP3    H137036   2.094   1.727   4.169 -1.0622  0.3112  1.0376
 5207TIP3    H237037   2.019   1.611   4.108  0.9088 -0.6792  0.4294
 5208TIP3   OH237038   6.745   5.246  14.176  0.4301  0.0704 -0.1226
 5208TIP3    H137039   6.654   5.255  14.147 -0.2278  2.3158  2.3847
 5208TIP3    H237040   6.743   5.176  14.241  0.0159  1.5967  1.5581
 5209TIP3   OH237041   5.095   4.264   4.055 -0.3925 -0.6251  0.7480
 5209TIP3    H137042   5.099   4.326   3.982  0.1231 -0.2644  1.0786
 5209TIP3    H237043   5.185   4.262   4.089  0.2955 -3.6613 -1.0203
 5210TIP3   OH237044   6.221   6.363   3.385 -0.1725  0.0648  0.5695
 5210TIP3    H137045   6.290   6.297   3.392  0.2854  0.2022 -1.9336
 5210TIP3    H237046   6.140   6.313   3.384  0.1255 -0.4257 -0.3912
 5211TIP3   OH237047   1.751   5.344  14.793  0.3672  0.1795  0.0549
 5211TIP3    H137048   1.794   5.381  14.870  0.2668 -1.9127  1.1611
 5211TIP3    H237049   1.815   5.283  14.757  0.1263  0.5977 -1.0918
 5212TIP3   OH237050   5.152   6.319   0.085  0.3387  0.6299 -0.9893
 5212TIP3    H137051   5.170   6.268   0.164  0.7163 -0.4479 -1.7671
 5212TIP3    H237052   5.133   6.254   0.018 -0.3659  1.5580 -1.6977
 5213TIP3   OH237053   3.179   0.773   4.412 -0.3122 -0.2755 -0.2171
 5213TIP3    H137054   3.215   0.695   4.455 -0.3675 -0.2453 -0.1165
 5213TIP3    H237055   3.085   0.767   4.430 -0.5745 -1.1950 -1.7958
 5214TIP3   OH237056   5.573   3.386  15.291 -0.5964  0.5853 -0.0192
 5214TIP3    H137057   5.646   3.422  15.341 -0.1639 -0.1639 -0.1098
 5214TIP3    H237058   5.496   3.435  15.323 -0.2486  0.4576  1.0191
 5215TIP3   OH237059   1.024   1.038  13.334  0.4401  0.5349 -0.6877
 5215TIP3    H137060   0.977   1.057  13.253  0.8053  0.9057 -0.8186
 5215TIP3    H237061   1.094   0.978  13.307 -0.4729 -0.7013 -0.3446
 5216TIP3   OH237062   6.315   4.814   5.019 -0.6439 -0.1288 -0.3350
 5216TIP3    H137063   6.305   4.894   5.070 -3.3033 -1.3250  1.0919
 5216TIP3    H237064   6.325   4.745   5.085 -1.8943 -1.4131 -1.4652
 5217TIP3   OH237065   4.439   4.659  16.836  0.2273  0.0418  0.1333
 5217TIP3    H137066   4.489   4.652  16.755 -1.8629  1.0562 -1.2974
 5217TIP3    H237067   4.493   4.713  16.894  0.5327  1.6471 -1.5995
 5218TIP3   OH237068   5.787   2.152  16.570  0.1808 -0.0767  0.0582
 5218TIP3    H137069   5.781   2.115  16.658  1.5769 -0.3792  0.0452
 5218TIP3    H237070   5.706   2.124  16.527 -0.2348 -0.4391  1.0478
 5219TIP3   OH237071   1.434   6.741  13.966  0.5849  0.2633 -0.1682
 5219TIP3    H137072   1.494   6.704  13.902  0.5276 -1.0126  0.5146
 5219TIP3    H237073   1.482   6.817  14.002  0.7615  0.7632 -1.4287
 5220TIP3   OH237074   1.342   3.915   3.021  0.1778  0.0862 -0.3024
 5220TIP3    H137075   1.297   3.831   3.011  0.0080  0.2705 -1.1979
 5220TIP3    H237076   1.381   3.930   2.935 -0.3954  1.2628 -0.3600
 5221TIP3   OH237077   5.336   0.197   3.359  0.4708 -0.5327  0.3729
 5221TIP3    H137078   5.327   0.231   3.270  0.3788 -0.1187  0.5414
 5221TIP3    H237079   5.363   0.272   3.411  1.8966 -1.0730  0.4481
 5222TIP3   OH237080   0.507   1.765  15.878 -0.1736  0.8388  0.5497
 5222TIP3    H137081   0.417   1.775  15.911 -0.1912  1.9834  0.1758
 5222TIP3    H237082   0.562   1.804  15.946  0.2496 -1.9106  1.8693
 5223TIP3   OH237083   6.383   6.486   5.121  0.0029  0.5722  0.3179
 5223TIP3    H137084   6.332   6.471   5.041  2.4592 -1.0153 -1.0179
 5223TIP3    H237085   6.355   6.418   5.181  0.4700 -0.2608 -0.3903
 5224TIP3   OH237086   5.061   2.679  15.740 -0.4491  0.3266 -0.5014
 5224TIP3    H137087   5.072   2.739  15.666  2.1932 -0.0291 -0.4389
 5224TIP3    H237088   5.001   2.725  15.799 -0.5943  1.7237 -1.6981
 5225TIP3   OH237089   4.984   2.872  14.084 -0.1366  0.1140  0.0926
 5225TIP3    H137090   4.894   2.858  14.113 -0.2552  2.3084  0.9060
 5225TIP3    H237091   5.023   2.784  14.082 -1.4557 -0.5629  2.5698
 5226TIP3   OH237092   4.906   5.620  14.593  0.2153 -0.4486  0.1744
 5226TIP3    H137093   4.937   5.706  14.564  0.7874 -1.1431 -1.3285
 5226TIP3    H237094   4.811   5.629  14.597  0.0674 -0.4639 -2.4581
 5227TIP3   OH237095   5.845   6.562   5.379  1.3776 -0.3340  0.5254
 5227TIP3    H137096   5.750   6.574   5.374  1.5803  0.5821 -1.7262
 5227TIP3    H237097   5.865   6.565   5.472 -0.7800 -0.3161  1.0090
 5228TIP3   OH237098   2.570   1.831  11.510  0.5375  0.5543  0.1856
 5228TIP3    H137099   2.556   1.910  11.563  0.8896  0.3521  0.5798
 5228TIP3    H237100   2.569   1.863  11.420 -0.8934  0.7743  0.2671
 5229TIP3   OH237101   0.935   1.548  15.088  0.4411  0.3700 -0.6073
 5229TIP3    H137102   0.925   1.473  15.029  1.5247 -0.1443 -0.1535
 5229TIP3    H237103   1.028   1.569  15.084  0.5271  0.3282  0.9209
 5230TIP3   OH237104   3.909   1.784  16.591 -0.1739 -0.3425  0.5217
 5230TIP3    H137105   3.944   1.756  16.506 -1.9307  0.5169 -0.4999
 5230TIP3    H237106   3.862   1.707  16.625 -0.5928 -0.2657  0.1125
 5231TIP3   OH237107   6.746   5.682  11.205 -0.4841 -0.4100  0.0452
 5231TIP3    H137108   6.686   5.756  11.213 -0.1558  0.0392 -1.3822
 5231TIP3    H237109   6.701   5.622  11.145  0.0463 -0.5182 -0.2454
 5232TIP3   OH237110   4.400   5.694   5.140 -0.4909  0.5877  0.3878
 5232TIP3    H137111   4.426   5.761   5.076  0.1397 -0.5873 -0.6035
 5232TIP3    H237112   4.459   5.708   5.214  0.6474  0.1968 -0.4232
 5233TIP3   OH237113   5.155   4.472  16.610  0.0711  0.1263  0.4937
 5233TIP3    H137114   5.229   4.533  16.616  0.2059 -0.0823  0.9784
 5233TIP3    H237115   5.135   4.450  16.701  0.3725 -0.9712  0.3015
 5234TIP3   OH237116   2.338   6.521   3.476 -0.5664  0.1786  0.3812
 5234TIP3    H137117   2.335   6.507   3.571 -0.7923 -1.0487  0.1966
 5234TIP3    H237118   2.249   6.504   3.446 -0.4294  0.2925 -0.0915
 5235TIP3   OH237119   5.444   1.668   0.688  1.2625 -0.1918 -0.0837
 5235TIP3    H137120   5.492   1.603   0.739 -0.3554 -0.4409  1.1561
 5235TIP3    H237121   5.454   1.640   0.597  0.5428 -2.2345  0.4378
 5236TIP3   OH237122   6.581   5.724   6.331  0.4553 -0.4228  0.2675
 5236TIP3    H137123   6.630   5.644   6.309 -0.7724 -1.2080  0.3416
 5236TIP3    H237124   6.490   5.703   6.308  0.0537  0.7882  0.7434
 5237TIP3   OH237125   3.717   6.179  11.469 -0.1393 -0.4446 -0.2351
 5237TIP3    H137126   3.645   6.117  11.455  0.6445 -1.8467  1.7457
 5237TIP3    H237127   3.730   6.221  11.383  0.6453 -4.4664 -2.1882
 5238TIP3   OH237128   0.147   4.304  12.247 -0.0003 -0.6837  0.2542
 5238TIP3    H137129   0.087   4.294  12.173 -1.0651  1.0993  0.8325
 5238TIP3    H237130   0.101   4.263  12.320  0.8909 -2.1121  0.0433
 5239TIP3   OH237131   1.917   1.521  11.182 -0.5604  0.1093  0.1912
 5239TIP3    H137132   1.886   1.610  11.168 -1.1260 -0.2588 -0.9470
 5239TIP3    H237133   1.985   1.508  11.117 -0.4270 -0.2683  0.4013
 5240TIP3   OH237134   1.938   1.761   4.418 -0.8951 -0.3265 -0.0075
 5240TIP3    H137135   1.998   1.697   4.381  1.2779  2.1373 -0.9437
 5240TIP3    H237136   1.922   1.823   4.347 -0.3324  1.9441  1.7829
 5241TIP3   OH237137   1.859   3.772   5.354  0.5682 -0.0874 -0.0490
 5241TIP3    H137138   1.770   3.804   5.338  0.1921 -1.6169 -1.1483
 5241TIP3    H237139   1.910   3.851   5.372 -0.8515  0.8772 -0.1745
 5242TIP3   OH237140   2.307   3.012  15.771 -0.0772 -0.3204 -0.2775
 5242TIP3    H137141   2.255   2.965  15.835 -1.3360 -1.0734 -1.8002
 5242TIP3    H237142   2.270   2.986  15.686 -0.5554  3.0486 -1.1947
 5243TIP3   OH237143   3.619   2.743  15.833  0.1865 -0.0691  0.1538
 5243TIP3    H137144   3.637   2.675  15.898 -2.5260 -2.3905 -1.4435
 5243TIP3    H237145   3.681   2.726  15.762  0.4727  0.0472  0.3707
 5244TIP3   OH237146   6.291   0.142  12.694  0.1356  0.6334 -0.0914
 5244TIP3    H137147   6.318   0.214  12.637  1.3867  0.3868  0.1643
 5244TIP3    H237148   6.238   0.086  12.637 -1.3232  2.0250 -0.1448
 5245TIP3   OH237149   2.804   0.200  11.369  0.2981  0.8977 -0.7415
 5245TIP3    H137150   2.806   0.195  11.274  0.0302  0.7013 -0.7411
 5245TIP3    H237151   2.885   0.244  11.394  0.4399  0.8096 -1.0514
 5246TIP3   OH237152   0.680   4.775  12.869 -0.3979  0.3563  0.3224
 5246TIP3    H137153   0.642   4.690  12.895  1.6221 -0.6912 -0.0863
 5246TIP3    H237154   0.715   4.759  12.781 -0.5603  1.8206 -0.0212
 5247TIP3   OH237155   6.232   0.031   4.183  0.9290 -0.9826  0.0313
 5247TIP3    H137156   6.164   0.099   4.181  1.7070 -0.2114 -0.6085
 5247TIP3    H237157   6.245   0.006   4.091  0.8859 -1.7628  0.2322
 5248TIP3   OH237158   5.363   2.922  14.349  0.2985  0.5115 -0.0957
 5248TIP3    H137159   5.354   2.846  14.406 -1.2348  0.1958 -0.7352
 5248TIP3    H237160   5.429   2.896  14.285  0.0294 -0.1742 -0.1075
 5249TIP3   OH237161   2.887   2.689   0.585  0.3666 -0.6360  0.2404
 5249TIP3    H137162   2.970   2.721   0.621  1.3049 -1.3477 -1.2528
 5249TIP3    H237163   2.867   2.751   0.514 -0.2737 -0.5801  0.4718
 5250TIP3   OH237164   2.438   1.244   1.661  0.0508  0.2366 -0.6557
 5250TIP3    H137165   2.506   1.305   1.632  0.5912  0.1779  0.4383
 5250TIP3    H237166   2.486   1.166   1.687 -0.3807  0.3923  0.6536
 5251TIP3   OH237167   5.787   4.669   0.920  0.5800  0.1782 -0.3030
 5251TIP3    H137168   5.723   4.601   0.940  1.0617 -0.5040 -1.0693
 5251TIP3    H237169   5.828   4.690   1.004  0.0835 -0.1167  0.0142
 5252TIP3   OH237170   2.885   3.433   2.487  0.1582 -0.5386  0.0426
 5252TIP3    H137171   2.821   3.504   2.494 -0.1456 -0.7254 -0.8325
 5252TIP3    H237172   2.907   3.413   2.578 -1.7649 -1.1286  0.4058
 5253TIP3   OH237173   2.412   4.476   4.143  0.1069 -0.1085 -0.4337
 5253TIP3    H137174   2.483   4.507   4.200  0.8561  0.7445 -1.7926
 5253TIP3    H237175   2.343   4.541   4.153 -0.3949 -0.7926  0.6797
 5254TIP3   OH237176   5.366   3.315   2.556 -0.4817  0.2969  0.2793
 5254TIP3    H137177   5.417   3.313   2.475 -1.1897  0.8374 -0.1896
 5254TIP3    H237178   5.345   3.407   2.570  1.4508  0.4786  2.2611
 5255TIP3   OH237179   5.197   2.543   1.900 -0.4821  0.2370 -0.2395
 5255TIP3    H137180   5.154   2.508   1.978  1.1868 -0.6220  0.3299
 5255TIP3    H237181   5.262   2.605   1.933  1.0512 -1.0078 -0.8396
 5256TIP3   OH237182   5.541   5.867  16.670  0.5689  0.3409  0.7684
 5256TIP3    H137183   5.494   5.824  16.599 -2.2150  0.1559  2.6426
 5256TIP3    H237184   5.597   5.932  16.626 -0.6876 -0.1221 -1.5836
 5257TIP3   OH237185   0.426   5.063  11.328 -0.1519 -0.4514 -1.0661
 5257TIP3    H137186   0.455   5.030  11.243  2.6688 -0.5115 -0.1208
 5257TIP3    H237187   0.412   5.157  11.314 -0.3729 -0.5883 -1.7637
 5258TIP3   OH237188   5.159   2.755  14.525 -0.1141  0.0664  0.5664
 5258TIP3    H137189   5.099   2.712  14.587  0.3338  1.2852  1.8912
 5258TIP3    H237190   5.102   2.814  14.476 -0.3042 -0.1457  0.5281
 5259TIP3   OH237191   6.370   3.875  15.219  0.1147  0.2143  0.0750
 5259TIP3    H137192   6.463   3.857  15.209  0.0061 -1.2016  1.3952
 5259TIP3    H237193   6.354   3.950  15.162  1.2841 -1.8435 -3.0994
 5260TIP3   OH237194   3.161   1.491   0.668  0.2166  0.0554 -0.3917
 5260TIP3    H137195   3.252   1.509   0.692  0.4330  0.8664 -1.8093
 5260TIP3    H237196   3.162   1.403   0.631  0.1672 -0.5237  0.9595
 5261TIP3   OH237197   3.914   1.464  11.135 -0.1606 -0.1121  0.2249
 5261TIP3    H137198   3.921   1.554  11.167  1.2783 -0.0817 -0.1541
 5261TIP3    H237199   4.004   1.439  11.113 -0.4136 -1.9538  1.1900
 5262TIP3   OH237200   5.249   0.877  15.252  0.4429 -0.7505 -0.1849
 5262TIP3    H137201   5.192   0.941  15.209  0.8112  0.3441  0.9221
 5262TIP3    H237202   5.319   0.860  15.189  0.3097 -0.1114 -0.5053
 5263TIP3   OH237203   5.025   4.640  13.752  0.1198 -0.1228  0.7674
 5263TIP3    H137204   5.108   4.682  13.728 -0.4487  0.0043 -1.0561
 5263TIP3    H237205   4.962   4.711  13.756 -0.4731 -0.5561 -0.5921
 5264TIP3   OH237206   5.054   2.588  10.950  0.0338  0.3631  0.0646
 5264TIP3    H137207   5.018   2.599  11.037  1.4632  0.4672  0.6556
 5264TIP3    H237208   5.106   2.667  10.935  0.0734  0.1916 -0.7408
 5265TIP3   OH237209   5.585   4.575   1.201 -0.2432 -0.2235  0.4244
 5265TIP3    H137210   5.539   4.644   1.153  2.7259 -0.5501 -3.0807
 5265TIP3    H237211   5.633   4.621   1.270 -0.8328  0.8236  0.1445
 5266TIP3   OH237212   0.902   3.930  13.023  0.4223 -0.2709 -0.4745
 5266TIP3    H137213   0.953   3.854  13.051  0.4290 -0.9495 -2.2885
 5266TIP3    H237214   0.815   3.916  13.062  0.8426 -0.4594  0.4117
 5267TIP3   OH237215   1.619   2.598   3.923  0.3271  0.0594 -0.6301
 5267TIP3    H137216   1.567   2.678   3.930  1.5164  0.9461 -1.7807
 5267TIP3    H237217   1.588   2.555   3.843  0.8744  0.2294 -0.9328
 5268TIP3   OH237218   5.127   6.786   3.636 -0.1456 -0.1074  0.2187
 5268TIP3    H137219   5.183   6.710   3.645 -0.7504 -0.5511  0.2507
 5268TIP3    H237220   5.040   6.755   3.660 -0.2594  0.7761  0.9903
 5269TIP3   OH237221   4.426   6.063   5.477 -0.9040 -0.3544 -0.1712
 5269TIP3    H137222   4.349   6.061   5.533 -0.4963 -1.3349  0.3730
 5269TIP3    H237223   4.491   6.112   5.528 -0.4807 -1.3873  0.2955
 5270TIP3   OH237224   1.578   5.959  16.367  0.3351  0.5620 -0.4148
 5270TIP3    H137225   1.508   5.896  16.383  1.7950 -1.8935 -3.0980
 5270TIP3    H237226   1.533   6.040  16.346 -1.6244  0.0409  1.5432
 5271TIP3   OH237227   5.151   6.704   2.101  0.3656  0.0026  0.6466
 5271TIP3    H137228   5.191   6.734   2.182  0.2583 -0.0466  0.7171
 5271TIP3    H237229   5.221   6.656   2.056  1.1167  1.9843 -0.3530
 5272TIP3   OH237230   4.483   5.689  15.228 -0.4326  0.2598  0.1605
 5272TIP3    H137231   4.542   5.624  15.189 -1.3890 -0.6951  0.2642
 5272TIP3    H237232   4.508   5.772  15.188  0.0906 -0.3459 -0.7959
 5273TIP3   OH237233   6.566   2.953  13.213  0.9432 -0.3359 -0.2763
 5273TIP3    H137234   6.508   2.913  13.278  1.5534 -1.6994 -0.5631
 5273TIP3    H237235   6.532   2.923  13.129  0.1351  1.4538 -0.6218
 5274TIP3   OH237236   5.021   0.223   0.409 -0.3030  0.0661 -0.7201
 5274TIP3    H137237   5.027   0.162   0.482 -1.4657 -1.7635 -2.1076
 5274TIP3    H237238   5.049   0.171   0.333 -0.9334  1.3802 -1.8587
 5275TIP3   OH237239   3.209   3.323  13.141 -0.6206 -0.0224  0.5775
 5275TIP3    H137240   3.279   3.369  13.187 -0.8170  0.5552  0.3015
 5275TIP3    H237241   3.148   3.392  13.116  0.1121 -0.1663 -1.6793
 5276TIP3   OH237242   5.566   2.391   0.787 -0.8996  0.3628  0.1739
 5276TIP3    H137243   5.554   2.297   0.771  0.2548  0.2987 -0.3523
 5276TIP3    H237244   5.548   2.433   0.703 -3.2476  0.8116  0.8402
 5277TIP3   OH237245   3.798   1.803   4.399  0.4736  0.2998 -0.2376
 5277TIP3    H137246   3.720   1.847   4.365  0.3055  1.3139  1.4111
 5277TIP3    H237247   3.868   1.831   4.340 -0.4431 -0.8596 -1.9092
 5278TIP3   OH237248   2.934   0.402  12.329 -0.1178  0.3617 -0.3967
 5278TIP3    H137249   2.897   0.446  12.252 -0.2711  0.2616 -0.3803
 5278TIP3    H237250   2.866   0.341  12.357 -0.1046  0.4759 -0.1172
 5279TIP3   OH237251   5.582   6.369   4.789  0.0102  0.6910  0.3496
 5279TIP3    H137252   5.519   6.419   4.840 -0.8413  0.5578 -0.5669
 5279TIP3    H237253   5.606   6.426   4.717 -0.9735 -0.1910 -0.7092
 5280TIP3   OH237254   3.386   2.359  12.808  0.5749 -0.0408 -0.3009
 5280TIP3    H137255   3.351   2.432  12.860  0.2874 -0.0311 -0.5095
 5280TIP3    H237256   3.338   2.363  12.725  0.5387 -0.4865 -0.3006
 5281TIP3   OH237257   6.127   4.658  14.582 -0.3848 -0.0374  0.1567
 5281TIP3    H137258   6.111   4.706  14.663  0.7811  0.5653  0.0519
 5281TIP3    H237259   6.135   4.727  14.515  2.6073 -0.2646  0.2287
 5282TIP3   OH237260   5.023   5.370  11.207  0.2703  0.9533 -0.6295
 5282TIP3    H137261   4.928   5.379  11.195 -0.2049 -2.4201  0.1337
 5282TIP3    H237262   5.037   5.394  11.299 -0.4299 -1.9485  0.2999
 5283TIP3   OH237263   4.475   2.109  13.532  0.3360 -0.4287 -0.3456
 5283TIP3    H137264   4.472   2.193  13.577  0.9693 -1.2585  1.2944
 5283TIP3    H237265   4.384   2.092  13.506 -0.2339 -0.4723  1.6461
 5284TIP3   OH237266   2.870   6.032   0.140 -0.0778  0.0364 -0.2496
 5284TIP3    H137267   2.834   5.995   0.221 -0.2472  0.5796 -0.0740
 5284TIP3    H237268   2.958   5.997   0.134  0.4497  1.1106  0.9170
 5285TIP3   OH237269   4.509   3.590   3.264  0.0912 -0.3627 -0.1602
 5285TIP3    H137270   4.524   3.673   3.308 -2.8705 -1.1058  2.4484
 5285TIP3    H237271   4.424   3.601   3.221 -0.1193 -1.8722 -0.1549
 5286TIP3   OH237272   4.368   4.253   3.194  0.2572 -0.0554 -0.1972
 5286TIP3    H137273   4.333   4.222   3.277 -1.9101 -0.2741 -1.1588
 5286TIP3    H237274   4.460   4.272   3.212  0.1066 -1.2343  1.9296
 5287TIP3   OH237275   2.480   2.174  17.073  0.1050 -0.2048 -0.2938
 5287TIP3    H137276   2.414   2.160  17.141 -1.7724  0.0121 -2.0337
 5287TIP3    H237277   2.438   2.232  17.010  2.0501  0.1263 -1.3301
 5288TIP3   OH237278   5.822   5.991   4.313  0.9242  0.1165  0.2819
 5288TIP3    H137279   5.876   6.010   4.389  0.0696 -4.4254  2.1808
 5288TIP3    H237280   5.747   5.943   4.348 -0.4805 -0.3923 -3.1984
 5289TIP3   OH237281   2.230   4.097  14.351  0.5177  0.0157 -0.0825
 5289TIP3    H137282   2.289   4.057  14.414  0.4893 -0.3364 -0.2764
 5289TIP3    H237283   2.239   4.044  14.272 -0.4887 -0.4061  0.0727
 5290TIP3   OH237284   4.361   2.175  14.131  0.2285 -0.3906  0.0983
 5290TIP3    H137285   4.370   2.156  14.037  0.6981  0.6534 -0.0661
 5290TIP3    H237286   4.267   2.189  14.143  0.5052  2.5306 -0.8114
 5291TIP3   OH237287   4.185   2.046   0.433 -0.0283  0.3211  0.1550
 5291TIP3    H137288   4.265   1.995   0.438 -0.4177 -0.3080  0.1027
 5291TIP3    H237289   4.120   1.994   0.481 -0.6570  0.3176 -0.6763
 5292TIP3   OH237290   3.841   4.796   0.813 -0.1437 -0.0405  0.0209
 5292TIP3    H137291   3.831   4.707   0.847 -0.3422 -0.2116 -0.4810
 5292TIP3    H237292   3.767   4.845   0.850 -0.3184 -0.2084 -0.1068
 5293TIP3   OH237293   2.061   3.988  11.865 -0.2496  0.8154 -0.2419
 5293TIP3    H137294   2.120   4.062  11.849 -1.9063  1.4837 -3.8450
 5293TIP3    H237295   1.985   4.026  11.908  0.3551  0.5957  1.0322
 5294TIP3   OH237296   4.280   1.716  11.679  0.4100  0.1156 -0.5102
 5294TIP3    H137297   4.298   1.810  11.673  0.4508  0.1782  0.5407
 5294TIP3    H237298   4.186   1.710  11.693  0.5626  0.0472  0.5142
 5295TIP3   OH237299   5.824   6.254  14.706  0.2258 -0.1314  0.5360
 5295TIP3    H137300   5.914   6.265  14.675  0.4670 -1.3617  0.7839
 5295TIP3    H237301   5.777   6.215  14.632  0.5129 -1.9147  1.2698
 5296TIP3   OH237302   5.272   2.172  16.059  0.0168  0.5718  0.1779
 5296TIP3    H137303   5.365   2.194  16.072  0.1724 -0.8397  1.5981
 5296TIP3    H237304   5.271   2.120  15.978  0.5737  0.0235  0.5148
 5297TIP3   OH237305   0.905   0.644  15.313  0.1025 -0.2072  0.4152
 5297TIP3    H137306   0.957   0.625  15.234  0.5394 -4.5338  1.6376
 5297TIP3    H237307   0.817   0.616  15.291  0.4481 -2.4890  1.7699
 5298TIP3   OH237308   2.140   1.546   5.882  0.5735 -0.4242  0.5845
 5298TIP3    H137309   2.134   1.569   5.975 -0.8321 -0.1331  0.4381
 5298TIP3    H237310   2.049   1.526   5.857  0.9703 -0.6644 -0.6810
 5299TIP3   OH237311   3.901   0.255   2.791 -0.0144  0.5356  0.0157
 5299TIP3    H137312   3.972   0.192   2.802 -0.6034 -0.3895 -1.2493
 5299TIP3    H237313   3.898   0.271   2.696 -1.6826  0.3296  0.0194
 5300TIP3   OH237314   5.605   5.329  11.621 -0.2153 -0.6054  0.4110
 5300TIP3    H137315   5.613   5.240  11.655 -0.3361 -0.0401  1.9608
 5300TIP3    H237316   5.530   5.326  11.562 -0.4265 -1.4511  0.7166
 5301TIP3   OH237317   3.155   2.214  16.844  0.0978  0.4712  0.1802
 5301TIP3    H137318   3.230   2.273  16.838  1.5181 -1.3106 -0.1385
 5301TIP3    H237319   3.194   2.129  16.863 -1.6942 -0.8836 -2.0523
 5302TIP3   OH237320   2.565   6.439  13.052 -0.3444  0.4504  0.0289
 5302TIP3    H137321   2.660   6.453  13.050 -0.0770 -1.4550 -1.5097
 5302TIP3    H237322   2.530   6.502  12.989 -0.0247  0.4712 -0.1267
 5303TIP3   OH237323   4.603   3.359   1.282  0.6658  0.1215  0.4205
 5303TIP3    H137324   4.558   3.285   1.321  0.9804  1.3233  3.1930
 5303TIP3    H237325   4.543   3.433   1.292  1.1054  0.6332 -0.6210
 5304TIP3   OH237326   3.796   4.047   0.874  0.0098  0.2716  0.0319
 5304TIP3    H137327   3.857   4.106   0.917 -0.7924  2.1008 -1.2976
 5304TIP3    H237328   3.841   4.022   0.792  0.6661 -1.5942  0.9207
 5305TIP3   OH237329   3.711   0.752  12.155 -0.0992  0.5931 -0.3960
 5305TIP3    H137330   3.658   0.716  12.226  0.8329  1.7742  0.9346
 5305TIP3    H237331   3.675   0.839  12.140  0.8988  1.0747 -0.0623
 5306TIP3   OH237332   3.928   0.295   0.771  0.3232 -0.0097  0.3854
 5306TIP3    H137333   3.944   0.389   0.760  2.7472 -0.3225  0.9476
 5306TIP3    H237334   3.985   0.270   0.844 -1.2475 -1.6760  1.0476
 5307TIP3   OH237335   3.153   1.822   5.268  0.1094 -0.0486 -0.1391
 5307TIP3    H137336   3.079   1.876   5.295 -0.9795 -0.8610 -1.4153
 5307TIP3    H237337   3.151   1.825   5.173  0.8446 -1.2556 -0.2025
 5308TIP3   OH237338   5.789   5.744  16.913  0.1233 -0.3149 -0.2485
 5308TIP3    H137339   5.820   5.787  16.834  0.6742 -2.6346 -1.3384
 5308TIP3    H237340   5.869   5.714  16.957 -0.3013 -1.3099 -0.1385
 5309TIP3   OH237341   0.879   3.760  16.987  0.1935  0.1844 -0.3519
 5309TIP3    H137342   0.934   3.683  16.972  0.0120  0.3801 -2.2486
 5309TIP3    H237343   0.792   3.732  16.959  0.0849  1.0001 -0.8523
 5310TIP3   OH237344   5.405   1.302   3.721  0.1921 -0.7015  0.2438
 5310TIP3    H137345   5.336   1.305   3.786 -1.5128  2.6619 -1.5875
 5310TIP3    H237346   5.464   1.374   3.744  0.2045 -0.2151 -1.2226
 5311TIP3   OH237347   2.637   1.173  16.840 -0.4839 -0.0841  0.2933
 5311TIP3    H137348   2.685   1.244  16.797  0.3340  0.0902  1.4671
 5311TIP3    H237349   2.627   1.106  16.772  1.0571  0.0523 -0.0834
 5312TIP3   OH237350   5.471   3.872   4.411  0.3282  0.4985 -0.1378
 5312TIP3    H137351   5.476   3.841   4.502  0.7075  1.0325  0.0268
 5312TIP3    H237352   5.378   3.875   4.391  0.3033 -1.6221 -0.4607
 5313TIP3   OH237353   6.381   5.881   4.089 -0.0732  0.4187  0.4936
 5313TIP3    H137354   6.333   5.803   4.060  0.1267  0.2231  0.6843
 5313TIP3    H237355   6.314   5.937   4.128 -0.0788 -0.0556  1.1809
 5314TIP3   OH237356   3.300   4.513   0.663  0.3369 -0.1200  0.1809
 5314TIP3    H137357   3.258   4.592   0.699  1.7914  0.5254  0.5194
 5314TIP3    H237358   3.320   4.536   0.572 -1.5359 -1.0332 -0.4830
 5315TIP3   OH237359   5.472   2.112  17.231  0.1107 -0.0275 -0.2870
 5315TIP3    H137360   5.560   2.134  17.202  0.5454 -1.1979  0.0939
 5315TIP3    H237361   5.455   2.026  17.190 -1.0932  0.4790 -0.8746
 5316TIP3   OH237362   2.582   6.043  15.135 -0.1483 -0.1958  0.5399
 5316TIP3    H137363   2.499   5.996  15.145  0.2700 -1.6363 -2.2434
 5316TIP3    H237364   2.648   5.984  15.169  0.1062 -0.5754 -0.5955
 5317TIP3   OH237365   1.093   5.937  16.796  0.1830  0.1036 -0.2761
 5317TIP3    H137366   1.104   5.843  16.812  0.5970  0.4710  1.6880
 5317TIP3    H237367   1.182   5.971  16.791  0.0414  0.2807 -1.7496
 5318TIP3   OH237368   1.056   3.201   6.609 -0.5240  0.5339  0.7808
 5318TIP3    H137369   1.071   3.138   6.680 -2.5407 -0.0338  0.7234
 5318TIP3    H237370   1.027   3.147   6.535  1.3796  1.1333 -0.4545
 5319TIP3   OH237371   0.539   3.611  17.196 -0.0844 -0.2228 -0.2625
 5319TIP3    H137372   0.447   3.591  17.210 -0.3300  1.3504  0.4546
 5319TIP3    H237373   0.586   3.532  17.223 -1.2369 -1.1710 -0.9992
 5320TIP3   OH237374   1.355   5.811   5.964  0.5703 -0.3012 -0.3059
 5320TIP3    H137375   1.293   5.875   5.999 -0.3199 -0.0983 -2.2031
 5320TIP3    H237376   1.402   5.779   6.041 -2.2212 -0.8377  1.2555
 5321TIP3   OH237377   2.337   0.542  12.049  0.5175 -0.1945 -0.2839
 5321TIP3    H137378   2.385   0.459  12.045 -1.6203 -1.5143  0.6161
 5321TIP3    H237379   2.249   0.520  12.018  0.1742  1.9394 -0.8670
 5322TIP3   OH237380   0.767   2.857   1.334 -0.2084  0.8193  0.1336
 5322TIP3    H137381   0.830   2.916   1.374 -0.8621  0.7781  1.2564
 5322TIP3    H237382   0.751   2.790   1.401 -1.8410  1.1287  0.0714
 5323TIP3   OH237383   3.380   0.872  12.645  0.2522  0.3342 -0.2056
 5323TIP3    H137384   3.381   0.865  12.741 -1.5913  1.3422 -0.0867
 5323TIP3    H237385   3.447   0.810  12.616  1.6610  0.8509  1.7811
 5324TIP3   OH237386   0.542   0.743  13.491  0.2454 -0.1251  0.2558
 5324TIP3    H137387   0.628   0.783  13.504 -0.2400  0.6074  1.1844
 5324TIP3    H237388   0.490   0.770  13.566 -0.7541 -0.7173 -0.2033
 5325TIP3   OH237389   3.571   3.755  15.638  0.1671  0.0928  0.3911
 5325TIP3    H137390   3.581   3.837  15.687 -0.4250  0.0089  0.6538
 5325TIP3    H237391   3.570   3.687  15.706 -3.3498  0.1642  0.5001
 5326TIP3   OH237392   3.710   1.239  14.244 -0.0978 -0.2157 -0.6104
 5326TIP3    H137393   3.714   1.264  14.336 -0.7545  0.7566 -0.8427
 5326TIP3    H237394   3.784   1.179  14.232 -0.3750 -0.8298  0.6912
 5327TIP3   OH237395   0.835   5.184   0.121 -0.2122  0.1162 -0.0066
 5327TIP3    H137396   0.913   5.203   0.173  0.4671  0.5735 -1.1879
 5327TIP3    H237397   0.834   5.251   0.053 -1.6858  0.1574  0.0452
 5328TIP3   OH237398   2.710   0.773  13.670  0.2334  0.4568 -0.2117
 5328TIP3    H137399   2.705   0.864  13.698  2.6607  0.4064  0.5690
 5328TIP3    H237400   2.640   0.729  13.718 -0.7138  1.8285 -0.3066
 5329TIP3   OH237401   1.826   5.240  11.965 -0.1019  0.4537 -0.2024
 5329TIP3    H137402   1.836   5.161  12.019 -0.7303  1.2932  1.1734
 5329TIP3    H237403   1.910   5.251  11.922  0.2916 -0.4407  0.3285
 5330TIP3   OH237404   2.797   2.524  16.853 -0.4949 -0.3566 -0.5429
 5330TIP3    H137405   2.793   2.530  16.758  0.1274 -0.8534 -0.6020
 5330TIP3    H237406   2.870   2.581  16.878 -0.1837 -0.8095 -0.4183
 5331TIP3   OH237407   5.332   6.107  11.932  0.3426  0.0519 -0.1223
 5331TIP3    H137408   5.396   6.045  11.895  0.4095  1.2794 -2.1090
 5331TIP3    H237409   5.386   6.178  11.967  0.1684 -0.0564  0.3704
 5332TIP3   OH237410   5.601   1.998   2.461  0.0514 -0.4050  0.2264
 5332TIP3    H137411   5.559   2.082   2.441 -0.2440 -0.8842 -1.2010
 5332TIP3    H237412   5.662   2.018   2.532 -2.1740  0.4126  1.9605
 5333TIP3   OH237413   0.196   1.069  15.137  0.6532 -0.4672 -0.4665
 5333TIP3    H137414   0.157   0.982  15.132 -0.4735  0.0573 -1.2159
 5333TIP3    H237415   0.126   1.128  15.107  1.1141  0.7726  0.8455
 5334TIP3   OH237416   3.959   4.733   3.301 -0.1826 -0.3991 -0.5353
 5334TIP3    H137417   4.033   4.737   3.361 -0.7732 -0.5176  0.2058
 5334TIP3    H237418   3.999   4.741   3.214  0.4123  3.3004 -0.0341
 5335TIP3   OH237419   1.932   4.903  13.065 -0.3681  0.2657  0.4373
 5335TIP3    H137420   1.948   4.961  13.139 -1.0672  0.4204  0.4628
 5335TIP3    H237421   1.917   4.817  13.105 -1.3461  0.4700  0.5031
 5336TIP3   OH237422   2.397   1.556   2.405  0.4807 -0.3112  0.1960
 5336TIP3    H137423   2.318   1.539   2.457 -1.3468 -1.9400 -2.9127
 5336TIP3    H237424   2.463   1.496   2.441 -1.3012 -2.7638 -0.4617
 5337TIP3   OH237425   3.959   1.724   5.955 -0.6837  0.0836  0.5315
 5337TIP3    H137426   4.022   1.796   5.947 -1.4528  0.5039 -2.2199
 5337TIP3    H237427   4.013   1.647   5.972  0.1706  1.2241  3.2978
 5338TIP3   OH237428   6.332   3.768  11.319 -0.2978 -0.1165 -0.8222
 5338TIP3    H137429   6.393   3.796  11.387 -0.0732 -0.8098 -0.7353
 5338TIP3    H237430   6.250   3.810  11.342 -0.4407 -1.0204  0.3606
 5339TIP3   OH237431   3.997   3.768   2.709 -0.2358 -0.2566 -0.0332
 5339TIP3    H137432   4.007   3.808   2.622 -1.0485  0.4984  0.2129
 5339TIP3    H237433   3.905   3.784   2.732  0.0522 -0.1866  1.0980
 5340TIP3   OH237434   4.093   5.387  14.407 -0.2871  0.9599 -0.3555
 5340TIP3    H137435   4.122   5.444  14.479 -1.1720  1.8403 -0.6766
 5340TIP3    H237436   3.999   5.376  14.423 -0.8047  2.4421 -2.2285
 5341TIP3   OH237437   5.659   1.504   1.517  0.1979 -0.4924 -0.9363
 5341TIP3    H137438   5.745   1.535   1.544 -0.7864  2.3329 -0.8443
 5341TIP3    H237439   5.632   1.444   1.586  1.2258  0.2022  0.0805
 5342TIP3   OH237440   3.120   0.167  14.866  0.4999 -0.1762  0.6685
 5342TIP3    H137441   3.200   0.121  14.842  0.4934 -0.0714  0.4509
 5342TIP3    H237442   3.146   0.223  14.940  0.5879 -0.2666  0.7060
 5343TIP3   OH237443   6.618   3.823   4.974  0.3163 -0.1810  0.8502
 5343TIP3    H137444   6.696   3.781   4.937  1.0560  1.5517  0.3656
 5343TIP3    H237445   6.555   3.823   4.903 -0.4023 -2.2098  1.4523
 5344TIP3   OH237446   5.193   1.994  14.131 -0.7437 -0.1119  0.2923
 5344TIP3    H137447   5.136   2.067  14.155  1.0674  1.9520 -1.4622
 5344TIP3    H237448   5.280   2.022  14.161  0.0165 -1.4169 -0.6929
 5345TIP3   OH237449   1.644   1.461   6.419  0.2873 -0.0112 -0.3117
 5345TIP3    H137450   1.690   1.450   6.336 -0.0342 -0.4692 -0.4322
 5345TIP3    H237451   1.616   1.553   6.419 -0.5874 -0.2636 -1.1693
 5346TIP3   OH237452   1.274   1.175  13.549  0.1963  0.3152 -0.0188
 5346TIP3    H137453   1.367   1.180  13.573  0.4435 -2.1396 -0.3846
 5346TIP3    H237454   1.228   1.218  13.621  1.3769 -1.6115  1.9381
 5347TIP3   OH237455   3.175   0.855   1.063  0.2143  0.1488  0.5600
 5347TIP3    H137456   3.142   0.866   1.152 -2.1291 -3.6763  0.3003
 5347TIP3    H237457   3.256   0.805   1.073 -0.8413 -1.6267  0.5377
 5348TIP3   OH237458   6.071   4.658   4.466 -0.0811 -0.1350 -0.2801
 5348TIP3    H137459   6.121   4.587   4.508 -0.4913  0.3316  1.0366
 5348TIP3    H237460   6.052   4.626   4.378 -1.4412 -2.2391  0.7510
 5349TIP3   OH237461   4.707   2.490  13.626  0.3864  0.4986  0.7578
 5349TIP3    H137462   4.680   2.447  13.545  0.0457  0.8190  0.6989
 5349TIP3    H237463   4.802   2.495  13.620  0.4449 -0.4302  0.8632
 5350TIP3   OH237464   0.506   5.040   3.239  0.3980  0.8341 -0.1796
 5350TIP3    H137465   0.500   5.004   3.327  1.1848  0.6676 -0.1925
 5350TIP3    H237466   0.461   5.124   3.245 -1.8971 -0.3440 -0.2736
 5351TIP3   OH237467   4.092   0.507   5.073  1.1117  0.1096 -0.0986
 5351TIP3    H137468   4.169   0.465   5.110  1.5142 -0.9434 -2.0872
 5351TIP3    H237469   4.118   0.534   4.985 -0.5044  0.5816 -0.4610
 5352TIP3   OH237470   4.934   1.408  13.196  0.1594 -0.1207  0.1809
 5352TIP3    H137471   5.003   1.407  13.261  1.3581  1.0021 -1.0444
 5352TIP3    H237472   4.857   1.440  13.243  0.9749  0.5310  1.0861
 5353TIP3   OH237473   3.441   3.336  12.165  0.0007 -0.2484 -0.2946
 5353TIP3    H137474   3.479   3.408  12.115  0.4689  0.4578  1.0631
 5353TIP3    H237475   3.388   3.288  12.101 -0.9515  1.7501 -1.0288
 5354TIP3   OH237476   0.899   2.305   3.949 -0.0594  0.0930  0.1721
 5354TIP3    H137477   0.993   2.320   3.958  0.0959 -0.3545 -0.6890
 5354TIP3    H237478   0.891   2.243   3.877 -1.0095  0.0201  0.3310
 5355TIP3   OH237479   0.684   4.633  10.685 -0.2149  0.0329 -0.3803
 5355TIP3    H137480   0.640   4.567  10.632  0.3999 -0.6216 -0.0922
 5355TIP3    H237481   0.716   4.585  10.762 -0.3858  0.8028  0.1878
 5356TIP3   OH237482   0.194   6.576  11.819  0.2022 -0.0641 -0.2120
 5356TIP3    H137483   0.216   6.485  11.797 -1.5588 -0.3855 -0.7695
 5356TIP3    H237484   0.225   6.627  11.744 -0.0733 -0.3941 -0.5567
 5357TIP3   OH237485   1.693   2.938  12.017 -0.5665 -0.0448  0.3000
 5357TIP3    H137486   1.621   2.882  12.045 -0.9677  0.3421  0.0458
 5357TIP3    H237487   1.765   2.917  12.077  0.8314 -4.1744 -2.5663
 5358TIP3   OH237488   5.630   2.897  12.962  0.0466 -0.1214 -0.0144
 5358TIP3    H137489   5.715   2.905  13.005  0.4314  1.4774 -1.0472
 5358TIP3    H237490   5.582   2.976  12.987 -1.4210 -1.3468  1.1385
 5359TIP3   OH237491   0.383   2.144  15.708  0.2360  0.1391 -0.1849
 5359TIP3    H137492   0.412   2.227  15.669 -1.7389  0.0306 -2.0135
 5359TIP3    H237493   0.318   2.170  15.773  1.8115  0.1829  1.3848
 5360TIP3   OH237494   4.075   6.360  15.308  0.6052  0.7102  0.1739
 5360TIP3    H137495   4.095   6.271  15.337  1.3706  0.8508  0.0786
 5360TIP3    H237496   4.126   6.372  15.228 -0.2784  0.8864 -0.3721
 5361TIP3   OH237497   1.701   5.988   4.673  0.0139  0.0665  0.2265
 5361TIP3    H137498   1.666   6.047   4.740 -1.3912 -0.4789 -0.0169
 5361TIP3    H237499   1.766   6.041   4.626 -0.3367  1.0226  0.8091
 5362TIP3   OH237500   1.802   3.322   4.806 -0.0745  0.4156 -0.3336
 5362TIP3    H137501   1.821   3.256   4.739  0.9263  1.0188 -0.6593
 5362TIP3    H237502   1.707   3.333   4.804 -0.2713 -1.1370 -0.1618
 5363TIP3   OH237503   4.955   1.936   4.694 -0.4940 -0.2288  0.0736
 5363TIP3    H137504   4.868   1.925   4.733 -0.5706  0.4937  0.1054
 5363TIP3    H237505   5.003   1.858   4.722 -1.3560 -1.0007 -0.5558
 5364TIP3   OH237506   3.943   3.745   1.486  0.2093  0.4632  0.2848
 5364TIP3    H137507   3.850   3.726   1.474  0.8795 -2.9403 -0.0262
 5364TIP3    H237508   3.957   3.737   1.581  0.5467 -0.9852  0.1248
 5365TIP3   OH237509   0.775   0.475  14.864  0.0972 -0.0216 -0.2461
 5365TIP3    H137510   0.697   0.419  14.857 -0.1381  0.2679  0.0403
 5365TIP3    H237511   0.789   0.484  14.958 -0.8813  1.7930 -0.2360
 5366TIP3   OH237512   3.497   5.667  16.592  0.5711 -0.4164  0.4800
 5366TIP3    H137513   3.502   5.662  16.688 -1.0079 -0.1094  0.5950
 5366TIP3    H237514   3.577   5.624  16.562  1.3920  0.0536  1.9473
 5367TIP3   OH237515   3.801   6.589   5.605 -0.6300 -0.2179  0.1379
 5367TIP3    H137516   3.764   6.647   5.671 -0.2644  0.0911  0.0683
 5367TIP3    H237517   3.877   6.549   5.648  0.2115  0.7527 -0.4378
 5368TIP3   OH237518   0.618   1.020  16.687  0.0762 -0.0546  0.2468
 5368TIP3    H137519   0.595   1.045  16.776  1.3805 -0.7274  0.7750
 5368TIP3    H237520   0.626   1.104  16.640  0.7447  0.3542  1.0881
 5369TIP3   OH237521   4.042   5.618  11.760 -0.1578 -0.3479  0.3612
 5369TIP3    H137522   3.947   5.607  11.766 -0.3050  0.9591  0.6084
 5369TIP3    H237523   4.064   5.592  11.671 -1.3160  3.0993 -1.0177
 5370TIP3   OH237524   2.565   1.048   0.627 -0.2266 -0.0285  0.1653
 5370TIP3    H137525   2.524   1.034   0.541  1.4680 -1.7310 -0.3967
 5370TIP3    H237526   2.608   1.134   0.618 -0.1227 -0.1592 -0.6639
 5371TIP3   OH237527   6.003   4.447  11.314 -0.0364  0.1378  0.1158
 5371TIP3    H137528   5.951   4.447  11.394  1.1520 -3.1825  0.9615
 5371TIP3    H237529   5.985   4.362  11.273 -1.0119  1.9436 -3.4375
 5372TIP3   OH237530   6.649   5.369  12.337 -0.2579  0.1973 -0.0670
 5372TIP3    H137531   6.587   5.336  12.401 -0.6223  1.5316  0.2829
 5372TIP3    H237532   6.617   5.337  12.253 -1.0760  0.3783  0.1784
 5373TIP3   OH237533   0.500   5.921  15.031 -0.7503  0.5514 -0.1665
 5373TIP3    H137534   0.572   5.910  14.968 -0.5069  0.0790  0.1872
 5373TIP3    H237535   0.507   6.013  15.059  0.3198  0.2613  0.5775
 5374TIP3   OH237536   1.367   6.199   3.709  0.1227  0.1256  0.2711
 5374TIP3    H137537   1.461   6.213   3.709  0.0466  0.6982  1.1853
 5374TIP3    H237538   1.353   6.121   3.762 -0.0256  0.9497  1.4764
 5375TIP3   OH237539   4.924   1.219   2.710 -0.0433 -0.2320  0.1382
 5375TIP3    H137540   4.870   1.252   2.638  0.2862 -1.1338 -0.5337
 5375TIP3    H237541   5.012   1.248   2.688 -0.2769  1.4832  1.3795
 5376TIP3   OH237542   4.066   3.971  11.255  0.1790  0.0192 -0.2518
 5376TIP3    H137543   4.094   4.011  11.338 -0.2178  0.8324 -0.5035
 5376TIP3    H237544   4.100   3.882  11.259  1.2579  0.4463  0.2307
 5377TIP3   OH237545   0.631   6.447  16.603 -0.4747  0.2925  0.5426
 5377TIP3    H137546   0.538   6.422  16.602 -0.6731  0.9582  1.5688
 5377TIP3    H237547   0.670   6.397  16.531 -1.5068 -0.4714  0.4989
 5378TIP3   OH237548   3.446   5.541  16.005  0.4919 -0.1449  0.0817
 5378TIP3    H137549   3.471   5.633  15.992 -0.5687 -0.0729 -1.5750
 5378TIP3    H237550   3.504   5.493  15.946 -0.7487 -0.2931 -1.0405
 5379TIP3   OH237551   0.215   4.036  14.696  0.5332 -0.2266  0.5602
 5379TIP3    H137552   0.234   3.995  14.780 -0.1799  0.2360  0.9586
 5379TIP3    H237553   0.146   3.981  14.658  0.6514 -0.2698  0.4084
 5380TIP3   OH237554   3.292   1.216  15.107 -0.2656 -0.0853  1.2043
 5380TIP3    H137555   3.298   1.257  15.021 -1.0774 -0.2639  1.0547
 5380TIP3    H237556   3.367   1.158  15.112 -1.2640 -1.5233 -0.1616
 5381TIP3   OH237557   5.745   1.684   0.130  0.4819  0.0916 -0.4118
 5381TIP3    H137558   5.714   1.594   0.143 -0.6716  0.5932  0.4108
 5381TIP3    H237559   5.693   1.717   0.057 -1.1554  0.9981  1.0930
 5382TIP3   OH237560   3.134   1.854   4.990  0.7868  0.3076 -0.6373
 5382TIP3    H137561   3.165   1.801   4.916  1.5119 -0.4965  0.2394
 5382TIP3    H237562   3.092   1.930   4.948 -1.1687 -1.4177 -1.9292
 5383TIP3   OH237563   6.568   0.876   2.372  0.0084  0.6851 -0.0306
 5383TIP3    H137564   6.514   0.876   2.451 -0.7295 -1.5990 -0.4885
 5383TIP3    H237565   6.551   0.961   2.331 -1.5415  0.8841  0.9834
 5384TIP3   OH237566   2.541   6.731   3.668 -0.1004 -0.6680  0.3016
 5384TIP3    H137567   2.609   6.788   3.704 -0.4872 -0.2316  0.3543
 5384TIP3    H237568   2.585   6.678   3.602  0.9237 -2.4583  2.3721
 5385TIP3   OH237569   2.384   1.199  12.635  0.4264 -0.6972 -0.5306
 5385TIP3    H137570   2.444   1.183  12.562 -0.1330 -0.6799 -0.9968
 5385TIP3    H237571   2.387   1.118  12.687  1.2610 -0.4967 -0.2513
 5386TIP3   OH237572   5.603   5.542  16.669  0.6437 -0.2317  0.1195
 5386TIP3    H137573   5.516   5.580  16.661  0.9073  0.9002  2.1808
 5386TIP3    H237574   5.661   5.617  16.681  1.6133 -1.0790  0.8699
 5387TIP3   OH237575   6.292   5.097   1.203 -1.1905 -0.0711 -0.0945
 5387TIP3    H137576   6.237   5.155   1.150  0.9582  0.2939 -2.0471
 5387TIP3    H237577   6.354   5.155   1.246  0.2512 -0.7724 -1.1643
 5388TIP3   OH237578   2.460   6.306  10.658  0.4909 -0.0015  0.3382
 5388TIP3    H137579   2.431   6.386  10.614 -1.1605 -0.6535  0.2265
 5388TIP3    H237580   2.546   6.288  10.620  0.1124  0.7573 -0.8971
 5389TIP3   OH237581   4.936   1.050   4.613  0.3498  0.4687 -0.4770
 5389TIP3    H137582   4.945   1.073   4.520  1.3925  1.5242 -0.1277
 5389TIP3    H237583   4.944   0.955   4.614  3.0837  0.6442 -1.2039
 5390TIP3   OH237584   5.723   0.756  12.851  0.1440 -0.3025  0.1056
 5390TIP3    H137585   5.760   0.806  12.778  0.6862 -0.4852  0.2566
 5390TIP3    H237586   5.731   0.665  12.825  0.3333 -0.3680  0.3936
 5391TIP3   OH237587   6.203   2.495  16.943  0.2934  0.2887 -0.4267
 5391TIP3    H137588   6.131   2.559  16.935  0.5392  0.5196 -0.8478
 5391TIP3    H237589   6.275   2.545  16.981  0.3396  0.1415 -0.3222
 5392TIP3   OH237590   5.459   5.203   4.161  0.4075 -0.4471 -0.3615
 5392TIP3    H137591   5.441   5.247   4.244 -1.0771  0.2511 -1.0283
 5392TIP3    H237592   5.419   5.116   4.171  0.8332 -0.6161 -0.1008
 5393TIP3   OH237593   4.566   5.077  15.231 -0.2532 -0.2437  0.1910
 5393TIP3    H137594   4.503   5.148  15.216 -0.5100 -0.6626 -0.7976
 5393TIP3    H237595   4.591   5.050  15.142 -1.8389 -2.8794  0.5159
 5394TIP3   OH237596   2.473   0.850   3.907 -0.7379  0.2072  0.3711
 5394TIP3    H137597   2.416   0.814   3.976 -1.7496  0.3083 -0.3888
 5394TIP3    H237598   2.518   0.923   3.949 -0.8506 -0.1373  1.1102
 5395TIP3   OH237599   2.975   0.958  14.777 -0.5337 -0.0428  0.7103
 5395TIP3    H137600   3.041   0.970  14.846  0.4795  0.9896 -0.4193
 5395TIP3    H237601   2.960   0.863  14.775 -0.3667 -0.1157  2.1440
 5396TIP3   OH237602   5.381   4.393   0.351 -0.3259 -1.2623 -0.1069
 5396TIP3    H137603   5.454   4.456   0.344 -1.5531  0.0282 -1.8539
 5396TIP3    H237604   5.420   4.316   0.392  2.2735 -0.9335 -1.7995
 5397TIP3   OH237605   2.989   0.429  14.545  0.0221 -0.7067  0.5073
 5397TIP3    H137606   2.980   0.521  14.522  1.7902 -0.3481  1.2239
 5397TIP3    H237607   2.990   0.428  14.641 -1.3825 -1.6173  0.5307
 5398TIP3   OH237608   0.773   1.286   1.951  0.2129  0.2530 -0.8105
 5398TIP3    H137609   0.841   1.219   1.939 -0.7782 -0.5766 -1.8182
 5398TIP3    H237610   0.706   1.264   1.887 -1.8874 -0.0254  1.3907
 5399TIP3   OH237611   6.186   3.566  13.591  0.4859  0.5493  0.2955
 5399TIP3    H137612   6.226   3.582  13.505 -0.9073 -0.8796 -0.6340
 5399TIP3    H237613   6.193   3.472  13.603 -0.7440  0.5575  1.0745
 5400TIP3   OH237614   3.323   4.078  12.758  0.5038 -0.3772  0.5885
 5400TIP3    H137615   3.239   4.082  12.714  0.9032 -1.6033 -0.3248
 5400TIP3    H237616   3.347   4.169  12.773 -1.9394 -0.0316  2.7498
 5401TIP3   OH237617   2.530   5.902   5.037  0.1260  0.3126  0.2154
 5401TIP3    H137618   2.598   5.840   5.012  0.2570  0.8212 -0.6674
 5401TIP3    H237619   2.448   5.859   5.012  0.1837  0.2231  0.1810
 5402TIP3   OH237620   2.991   3.850  15.672 -0.4254  0.0479  0.0214
 5402TIP3    H137621   3.081   3.881  15.674  0.0142 -1.2425  0.7102
 5402TIP3    H237622   2.943   3.918  15.624  0.6046  1.5186  1.0245
 5403TIP3   OH237623   3.684   0.413  13.408 -0.0752 -0.3787 -0.6395
 5403TIP3    H137624   3.648   0.471  13.341  0.0576 -2.2238 -2.3780
 5403TIP3    H237625   3.647   0.444  13.490  0.1633  2.2746 -1.5005
 5404TIP3   OH237626   1.728   5.625   1.045  0.4244 -0.1438  0.1513
 5404TIP3    H137627   1.637   5.637   1.072  1.0078  0.0124  2.1471
 5404TIP3    H237628   1.730   5.651   0.953 -1.5714 -0.2788  0.0652
 5405TIP3   OH237629   0.519   3.384  13.623 -0.4202 -0.4402 -0.4082
 5405TIP3    H137630   0.440   3.417  13.664  0.5758 -0.2584  1.3874
 5405TIP3    H237631   0.555   3.459  13.576  0.4318  0.3604  1.4854
 5406TIP3   OH237632   2.430   6.725  10.721  0.5346  0.3202  0.2789
 5406TIP3    H137633   2.495   6.793  10.737  1.4641 -0.1159 -1.5351
 5406TIP3    H237634   2.462   6.678  10.643 -0.4489 -1.7276  1.0563
 5407TIP3   OH237635   0.251   3.311  16.124 -0.1690  0.1144 -0.6198
 5407TIP3    H137636   0.280   3.271  16.042  0.5941 -1.5896  0.4446
 5407TIP3    H237637   0.239   3.236  16.183 -2.8716  1.1066  0.1621
 5408TIP3   OH237638   3.084   2.688  11.811 -0.4267  0.5802  0.2595
 5408TIP3    H137639   3.142   2.707  11.738  0.0872  1.8914  0.9830
 5408TIP3    H237640   3.079   2.593  11.814 -0.0358  0.5045 -1.1415
 5409TIP3   OH237641   6.251   1.167   6.437  0.2435 -0.1433  0.2765
 5409TIP3    H137642   6.196   1.245   6.436  0.3257 -0.0624  1.3081
 5409TIP3    H237643   6.332   1.195   6.480  1.1574 -0.2291 -1.3274
 5410TIP3   OH237644   4.811   2.784  12.491  0.1430  0.0187 -0.2024
 5410TIP3    H137645   4.745   2.742  12.436 -0.2546  1.0260 -0.5080
 5410TIP3    H237646   4.799   2.878  12.476  2.3248  0.1922 -1.0575
 5411TIP3   OH237647   5.769   3.884   0.441 -0.1141  0.4838 -0.4891
 5411TIP3    H137648   5.792   3.946   0.511 -1.5269 -2.1134  2.4114
 5411TIP3    H237649   5.717   3.817   0.485  2.0449 -3.2515 -3.3080
 5412TIP3   OH237650   5.773   4.849  10.751  0.9780  0.3345 -0.7872
 5412TIP3    H137651   5.783   4.803  10.835 -0.4947 -0.2798 -0.9464
 5412TIP3    H237652   5.816   4.934  10.766 -0.5986  0.8580  1.0993
 5413TIP3   OH237653   0.764   5.429  11.988 -0.4768  0.1777  0.1783
 5413TIP3    H137654   0.721   5.361  12.040  0.3439 -0.1650  0.4082
 5413TIP3    H237655   0.857   5.421  12.009 -0.2193  0.5065 -0.7925
 5414TIP3   OH237656   5.310   5.237  13.673 -0.3033 -0.2991  0.5085
 5414TIP3    H137657   5.265   5.277  13.747 -0.5236 -1.4628  1.0214
 5414TIP3    H237658   5.332   5.149  13.704  2.3883  0.2518  0.3017
 5415TIP3   OH237659   0.725   4.567   1.606 -0.0997  0.2650  0.3041
 5415TIP3    H137660   0.720   4.500   1.538  2.2597 -1.4961  1.7933
 5415TIP3    H237661   0.638   4.566   1.647 -0.6005 -0.7199 -0.7600
 5416TIP3   OH237662   0.345   1.864   5.388  0.1695 -0.1206 -0.0592
 5416TIP3    H137663   0.418   1.900   5.338  0.1979 -1.0372 -0.6873
 5416TIP3    H237664   0.268   1.884   5.335  0.1938 -1.0524 -0.4499
 5417TIP3   OH237665   5.284   2.273  15.746  0.0293  0.2548 -0.4651
 5417TIP3    H137666   5.325   2.343  15.796 -0.2717 -0.4918  0.8468
 5417TIP3    H237667   5.192   2.275  15.771 -0.6152  1.3751 -2.7567
 5418TIP3   OH237668   3.969   0.019   1.385  0.0292  0.2572  0.2349
 5418TIP3    H137669   3.883   0.033   1.346  0.1717 -0.2063 -0.2557
 5418TIP3    H237670   4.017  -0.030   1.319  0.7989  0.8514  0.3524
 5419TIP3   OH237671   1.885   3.087  12.534  0.3078  0.2281 -0.1451
 5419TIP3    H137672   1.938   3.029  12.479 -0.1768 -0.5270  0.1744
 5419TIP3    H237673   1.811   3.033  12.561  1.0228  0.3063  2.0207
 5420TIP3   OH237674   6.033   5.535  16.137  0.0405  0.4489 -0.2754
 5420TIP3    H137675   6.106   5.493  16.183  2.1491  1.2235 -2.7573
 5420TIP3    H237676   5.988   5.587  16.204  2.3843  0.7592  1.1076
 5421TIP3   OH237677   4.668   4.232  11.780  0.5359  0.2164 -0.4453
 5421TIP3    H137678   4.738   4.172  11.807 -0.1778 -0.1423  0.6601
 5421TIP3    H237679   4.677   4.238  11.685  0.3731 -1.9599 -0.6325
 5422TIP3   OH237680   4.679   3.598   3.047 -0.5480  0.4185 -0.3116
 5422TIP3    H137681   4.739   3.672   3.054 -1.8609  1.5400 -0.5330
 5422TIP3    H237682   4.628   3.602   3.128 -0.6831 -0.1981 -0.3641
 5423TIP3   OH237683   0.588   2.275   2.566 -0.3079 -0.1956  0.2664
 5423TIP3    H137684   0.618   2.223   2.492 -1.3964 -0.3940 -0.0534
 5423TIP3    H237685   0.492   2.276   2.557 -0.2879  2.3627 -0.0799
 5424TIP3   OH237686   5.876   4.763  12.551  0.3412 -0.4969 -0.1030
 5424TIP3    H137687   5.784   4.761  12.524  0.2270 -1.6626  0.3257
 5424TIP3    H237688   5.924   4.749  12.469  0.1403  0.2467 -0.3485
 5425TIP3   OH237689   0.414   6.568  16.053  0.0659  0.0331 -0.2665
 5425TIP3    H137690   0.426   6.487  16.004 -0.6892 -0.0914 -0.2556
 5425TIP3    H237691   0.448   6.549  16.140  1.1855  0.1744 -0.6614
 5426TIP3   OH237692   3.018   1.572   4.605 -0.0565  0.3006  0.2640
 5426TIP3    H137693   2.986   1.657   4.633 -0.4221  0.6569 -1.1844
 5426TIP3    H237694   2.961   1.548   4.532  0.9957 -0.5032 -0.3054
 5427TIP3   OH237695   0.275   5.543   1.959  0.1738 -0.3241  0.4251
 5427TIP3    H137696   0.342   5.517   1.896 -0.2342  1.2057 -0.6550
 5427TIP3    H237697   0.304   5.628   1.991 -0.2856 -0.5089  1.3749
 5428TIP3   OH237698   2.840   1.237  14.405  0.0461  0.4370  0.0579
 5428TIP3    H137699   2.861   1.327  14.430  0.8363  0.2185  0.2003
 5428TIP3    H237700   2.745   1.236  14.393  0.0947  1.4058 -0.4244
 5429TIP3   OH237701   3.515   4.916   5.762 -0.2378  0.2064  0.1652
 5429TIP3    H137702   3.534   4.833   5.718 -1.1221  0.8729 -1.5123
 5429TIP3    H237703   3.601   4.951   5.785  0.1902 -0.6617 -0.0659
 5430TIP3   OH237704   4.559   1.837   2.590  0.0796  0.1591  0.4272
 5430TIP3    H137705   4.596   1.918   2.553  0.4326  0.2615  0.9876
 5430TIP3    H237706   4.465   1.850   2.587  0.1596  1.4697  2.4021
 5431TIP3   OH237707   4.722   1.018   3.913  0.6559 -0.2953 -0.3003
 5431TIP3    H137708   4.787   0.997   3.846 -0.2268 -1.7647 -0.7272
 5431TIP3    H237709   4.639   0.988   3.876 -0.0142 -0.0411  0.9628
 5432TIP3   OH237710   0.849   3.686  11.263 -0.3121  0.0971 -0.1854
 5432TIP3    H137711   0.905   3.699  11.339  1.1440 -2.0169 -0.8420
 5432TIP3    H237712   0.907   3.649  11.196 -1.5719  1.8124 -2.3054
 5433TIP3   OH237713   5.691   3.754  15.296 -0.2795  0.4388  0.0744
 5433TIP3    H137714   5.702   3.821  15.228 -0.1209 -0.8263 -1.1721
 5433TIP3    H237715   5.605   3.773  15.333 -0.6630  0.7485 -0.9416
 5434TIP3   OH237716   2.855   2.191  15.633  0.6151 -0.2681  0.6806
 5434TIP3    H137717   2.841   2.176  15.540  0.8839 -0.2513  0.6366
 5434TIP3    H237718   2.882   2.283  15.639  0.8690 -0.3463  0.7463
 5435TIP3   OH237719   5.721   2.411   5.454  0.2402 -0.4027  0.2861
 5435TIP3    H137720   5.743   2.395   5.362  1.1907  0.2198  0.4048
 5435TIP3    H237721   5.789   2.365   5.503 -1.2720 -2.2766  0.7252
 5436TIP3   OH237722   2.826   4.146   3.448  0.4531 -0.3978  0.2279
 5436TIP3    H137723   2.735   4.154   3.422  1.0252 -1.4003 -2.2029
 5436TIP3    H237724   2.838   4.053   3.466  1.4661 -0.5983 -1.3880
 5437TIP3   OH237725   6.652   0.478   4.011  0.3819 -0.0995  0.3702
 5437TIP3    H137726   6.557   0.485   4.021  0.3502 -0.1893  0.1482
 5437TIP3    H237727   6.679   0.560   3.971  0.2176 -0.6007 -0.7918
 5438TIP3   OH237728   0.103   0.587  11.051 -0.0513 -0.8635  0.4024
 5438TIP3    H137729   0.080   0.496  11.033 -1.2181 -0.0840 -2.2888
 5438TIP3    H237730   0.041   0.638  10.999  1.1061  1.4489  1.2378
 5439TIP3   OH237731   0.276   6.021  13.380  0.8706 -0.2580 -0.0615
 5439TIP3    H137732   0.317   6.055  13.460 -0.2789  0.8262  0.0846
 5439TIP3    H237733   0.226   5.945  13.409  0.2907  0.2550  0.2845
 5440TIP3   OH237734   4.842   5.008   0.879 -0.1194 -0.6190  0.9458
 5440TIP3    H137735   4.830   4.995   0.973 -0.1832  2.9466  1.4810
 5440TIP3    H237736   4.917   5.067   0.873 -0.7339 -0.0335 -1.1965
 5441TIP3   OH237737   6.374   0.325   5.244 -0.3360  0.2448 -0.4659
 5441TIP3    H137738   6.331   0.408   5.223 -1.9085 -0.3587  0.2953
 5441TIP3    H237739   6.396   0.287   5.158 -1.4970  0.4859 -0.8846
 5442TIP3   OH237740   1.582   6.508  10.769  0.0836 -0.2095 -0.9229
 5442TIP3    H137741   1.583   6.534  10.677 -0.3669  1.5198 -0.4470
 5442TIP3    H237742   1.506   6.552  10.806 -0.0065 -1.2658  0.1776
 5443TIP3   OH237743   0.185   3.860  15.028 -0.2681 -0.3393 -1.0932
 5443TIP3    H137744   0.254   3.913  14.989 -2.0570  3.4084  0.5236
 5443TIP3    H237745   0.230   3.798  15.084  1.8511  0.9871 -1.2811
 5444TIP3   OH237746   5.356   2.426   5.573  0.0582 -0.3539  0.2412
 5444TIP3    H137747   5.389   2.354   5.519 -0.3262  0.8360 -1.6074
 5444TIP3    H237748   5.302   2.383   5.640  0.4232 -1.8322 -0.3954
 5445TIP3   OH237749   1.874   1.614  12.678 -0.9049 -0.5368  0.1238
 5445TIP3    H137750   1.912   1.545  12.732  1.2465  1.0823  0.7731
 5445TIP3    H237751   1.930   1.618  12.601 -0.9232  0.5413  0.1593
 5446TIP3   OH237752   2.250   4.308   5.828 -0.3235 -0.0590 -0.0324
 5446TIP3    H137753   2.335   4.351   5.831  0.1016 -0.8870 -0.0879
 5446TIP3    H237754   2.235   4.277   5.918 -0.1342 -0.7300 -0.2257
 5447TIP3   OH237755   1.005   0.395   4.107  0.0667 -0.0405 -0.0761
 5447TIP3    H137756   1.085   0.364   4.150 -0.9746 -0.4533  1.6235
 5447TIP3    H237757   0.979   0.322   4.051 -0.0280 -0.5928  0.6677
 5448TIP3   OH237758   3.337   5.836  12.267 -0.1330 -0.0265  0.1166
 5448TIP3    H137759   3.332   5.924  12.230 -0.2763 -0.2017 -0.2767
 5448TIP3    H237760   3.342   5.778  12.191  1.2160 -0.2828  0.3767
 5449TIP3   OH237761   5.254   0.963  16.138 -0.2072 -0.0896 -0.0702
 5449TIP3    H137762   5.305   1.008  16.205  0.9082 -0.8087 -0.4075
 5449TIP3    H237763   5.262   1.018  16.060 -0.4993  0.1333  0.0589
 5450TIP3   OH237764   6.313   3.652  12.144  0.3672  0.4257 -0.1991
 5450TIP3    H137765   6.261   3.675  12.068  0.3386  0.4131 -0.1822
 5450TIP3    H237766   6.307   3.729  12.201  1.5141  0.9808 -0.8097
 5451TIP3   OH237767   1.148   2.507  11.151 -0.3695 -0.4923  0.3794
 5451TIP3    H137768   1.235   2.498  11.110 -1.8979 -0.9613 -2.9063
 5451TIP3    H237769   1.162   2.568  11.223  2.2406  1.2682 -1.5212
 5452TIP3   OH237770   3.718   1.625   2.136 -0.2161  0.3810 -0.3069
 5452TIP3    H137771   3.648   1.666   2.187 -1.2690 -0.2616 -1.2271
 5452TIP3    H237772   3.789   1.689   2.139  0.1425 -0.0418  2.8000
 5453TIP3   OH237773   4.217   2.545   1.963  0.0852 -0.4311  0.0839
 5453TIP3    H137774   4.218   2.639   1.980 -0.3225 -0.4273  0.0840
 5453TIP3    H237775   4.243   2.537   1.871 -1.9933 -0.1755 -0.5518
 5454TIP3   OH237776   6.233   6.388   4.755 -0.1629  0.3677 -0.7579
 5454TIP3    H137777   6.288   6.466   4.745  1.2624 -0.5893 -0.4931
 5454TIP3    H237778   6.162   6.401   4.692 -0.2771  2.1482 -0.3025
 5455TIP3   OH237779   4.658   2.103  14.076  0.2610 -0.2997  0.1041
 5455TIP3    H137780   4.575   2.076  14.115  0.1797  1.1455  0.9660
 5455TIP3    H237781   4.632   2.168  14.010  0.7550  0.7964  0.9726
 5456TIP3   OH237782   4.857   4.244   1.480  0.2040  0.0156  0.2941
 5456TIP3    H137783   4.851   4.265   1.387  1.4324 -1.1233 -0.0489
 5456TIP3    H237784   4.893   4.156   1.483  2.5428  0.9659  1.8906
 5457TIP3   OH237785   3.546   5.307  13.018 -0.0723 -0.0096 -0.6044
 5457TIP3    H137786   3.618   5.348  12.970  0.2306 -2.1854 -2.0906
 5457TIP3    H237787   3.469   5.360  12.994  0.7010  1.2102 -0.4651
 5458TIP3   OH237788   2.943   3.075   1.539 -0.0776 -0.8054  0.3790
 5458TIP3    H137789   3.031   3.051   1.511 -0.0521  0.1049 -0.3398
 5458TIP3    H237790   2.949   3.083   1.634  1.2047  1.5765  0.1438
 5459TIP3   OH237791   1.591   2.000  12.184  0.1151 -0.2706 -0.1878
 5459TIP3    H137792   1.626   1.978  12.097  0.4713  1.8365 -0.6023
 5459TIP3    H237793   1.664   2.043  12.229  0.2480 -2.1948  1.5478
 5460TIP3   OH237794   0.233   1.747  17.134 -0.2894  0.3922  0.7125
 5460TIP3    H137795   0.190   1.662  17.138  0.2289 -0.0110 -1.4749
 5460TIP3    H237796   0.306   1.734  17.074 -0.2824  2.4085  0.2359
 5461TIP3   OH237797   3.742   6.703   0.359 -0.2205  0.0443 -0.3468
 5461TIP3    H137798   3.700   6.634   0.308 -0.4698 -0.7935  0.9782
 5461TIP3    H237799   3.795   6.656   0.423 -0.6102  1.0936  0.7494
 5462TIP3   OH237800   0.195   4.170  16.293  1.1492 -0.7361 -0.2688
 5462TIP3    H137801   0.152   4.121  16.222  3.1905 -1.5796 -0.9558
 5462TIP3    H237802   0.187   4.114  16.370 -1.3773  0.3298  0.3133
 5463TIP3   OH237803   2.828   4.313  16.901  0.3660 -0.7539 -0.2955
 5463TIP3    H137804   2.776   4.335  16.823  0.1606 -2.2426 -0.6050
 5463TIP3    H237805   2.901   4.374  16.899 -0.5325  0.3308 -0.7291
 5464TIP3   OH237806   2.134   3.824   1.239 -0.1054  0.0288  0.0453
 5464TIP3    H137807   2.042   3.808   1.219 -0.6133  0.2962  2.0101
 5464TIP3    H237808   2.151   3.912   1.207 -0.1684 -0.5235 -1.5130
 5465TIP3   OH237809   5.512   5.882   5.365 -0.3694 -0.2351 -0.3517
 5465TIP3    H137810   5.588   5.899   5.421 -0.4072 -0.1369 -0.3313
 5465TIP3    H237811   5.549   5.873   5.277 -0.3581  0.0148 -0.3720
 5466TIP3   OH237812   5.799   5.354  14.260 -0.1821  0.1978 -0.0282
 5466TIP3    H137813   5.829   5.348  14.169  1.8690 -0.0411  0.6457
 5466TIP3    H237814   5.729   5.289  14.266  2.0404 -2.3110 -0.5274
 5467TIP3   OH237815   1.196   5.603   2.034 -0.2166  0.1258 -0.7862
 5467TIP3    H137816   1.188   5.681   1.979 -1.8559  0.5350 -0.0142
 5467TIP3    H237817   1.138   5.620   2.109  1.4006 -0.7311  0.7042
 5468TIP3   OH237818   4.558   6.425   2.349 -0.1248  0.2600  0.4329
 5468TIP3    H137819   4.595   6.494   2.293 -0.8041  0.3162  0.0493
 5468TIP3    H237820   4.519   6.472   2.422 -0.7189  0.3027  0.0968
 5469TIP3   OH237821   0.380   0.332   3.556 -0.0747 -0.2116  0.2445
 5469TIP3    H137822   0.322   0.377   3.617  0.1837  0.6012 -0.1117
 5469TIP3    H237823   0.468   0.360   3.582  0.4273 -3.6402  2.6386
 5470TIP3   OH237824   3.346   4.738   2.091  0.1527 -0.5965  0.6344
 5470TIP3    H137825   3.268   4.727   2.036  0.6900  1.1479 -0.5451
 5470TIP3    H237826   3.419   4.725   2.031  0.8002 -2.3680  1.7661
 5471TIP3   OH237827   5.425   6.711   2.684  0.0730 -0.2340  0.3414
 5471TIP3    H137828   5.372   6.741   2.610 -0.7741  0.6326  1.2835
 5471TIP3    H237829   5.512   6.745   2.665 -0.0918 -0.1835 -0.3559
 5472TIP3   OH237830   5.573   4.973  13.204  0.3444 -0.1840  0.5568
 5472TIP3    H137831   5.579   4.882  13.175  0.4051 -0.0660  0.1992
 5472TIP3    H237832   5.659   4.993  13.242  2.0233  1.2176 -3.7173
 5473TIP3   OH237833   6.601   4.879  15.309  0.0162  0.0241 -0.7068
 5473TIP3    H137834   6.537   4.839  15.368  0.5430 -0.1970 -0.2768
 5473TIP3    H237835   6.571   4.969  15.298  0.3899  0.3134  0.5995
 5474TIP3   OH237836   4.887   0.229   3.223  0.4855 -0.4567  0.0606
 5474TIP3    H137837   4.955   0.174   3.260 -0.9566 -1.9673  0.5364
 5474TIP3    H237838   4.842   0.267   3.298 -1.1669 -1.9579 -0.1061
 5475TIP3   OH237839   6.514   4.589  14.184  0.2004 -0.0767 -0.1955
 5475TIP3    H137840   6.577   4.570  14.254  0.4421 -0.0582 -0.4050
 5475TIP3    H237841   6.430   4.561  14.220  0.4879 -1.1715 -0.3332
 5476TIP3   OH237842   5.712   1.817   4.075  0.1683 -0.2839 -0.4374
 5476TIP3    H137843   5.741   1.752   4.011 -0.8998 -0.4770 -0.7416
 5476TIP3    H237844   5.619   1.797   4.088  1.0570 -2.2470  3.5157
 5477TIP3   OH237845   0.086   4.607  13.521 -0.1175 -0.1241  0.7256
 5477TIP3    H137846  -0.007   4.628  13.509  0.3111  2.1734  1.0881
 5477TIP3    H237847   0.117   4.672  13.585  1.9702 -0.1715 -0.1946
 5478TIP3   OH237848   0.873   3.288  11.625 -0.2610  0.3064  0.2866
 5478TIP3    H137849   0.891   3.364  11.679 -0.4293  0.9554 -0.5641
 5478TIP3    H237850   0.905   3.312  11.538 -1.2371 -0.2025 -0.2190
 5479TIP3   OH237851   1.773   4.646   5.526 -0.1575  0.5146 -0.6788
 5479TIP3    H137852   1.684   4.637   5.558  0.5134 -0.7217  0.9086
 5479TIP3    H237853   1.802   4.731   5.558  0.2885 -0.4357  1.5075
 5480TIP3   OH237854   1.414   5.961   4.119  0.0802  0.2839 -0.3528
 5480TIP3    H137855   1.377   5.873   4.125 -1.9595  1.2143  1.2540
 5480TIP3    H237856   1.438   5.983   4.209 -1.6310  2.2844 -0.3655
 5481TIP3   OH237857   2.967   2.078  15.023 -0.0311  0.3561 -0.3027
 5481TIP3    H137858   2.932   2.167  15.022 -0.5854  0.1580  0.9316
 5481TIP3    H237859   2.914   2.030  14.960  0.7004  1.0602 -1.4587
 5482TIP3   OH237860   4.373   4.536  13.114 -0.0310  0.1681 -0.0186
 5482TIP3    H137861   4.312   4.569  13.180 -0.1708  0.1422 -0.1355
 5482TIP3    H237862   4.429   4.475  13.162 -0.2449  0.0151  0.0387
 5483TIP3   OH237863   1.669   6.408  13.980  0.4659  0.5506  0.3847
 5483TIP3    H137864   1.632   6.347  14.044 -0.3868 -0.6930 -1.2251
 5483TIP3    H237865   1.739   6.358  13.937  0.7307  1.2041  0.0475
 5484TIP3   OH237866   5.889   0.090  16.180  0.3158 -0.6981 -0.3795
 5484TIP3    H137867   5.855   0.095  16.269  0.8685  1.2049 -0.2546
 5484TIP3    H237868   5.813   0.106  16.124  0.1076 -1.1585 -0.2270
 5485TIP3   OH237869   6.204   1.439  14.141 -0.1918 -0.3252 -0.4745
 5485TIP3    H137870   6.222   1.349  14.169  0.0889 -0.3829 -0.8352
 5485TIP3    H237871   6.259   1.451  14.064 -2.0343 -0.6552 -1.8585
 5486TIP3   OH237872   6.331   6.766  13.978 -0.2793  0.5559  0.1502
 5486TIP3    H137873   6.333   6.707  13.902  0.3672  1.3220 -0.4360
 5486TIP3    H237874   6.294   6.848  13.943 -4.2031 -0.4612  1.6515
 5487TIP3   OH237875   2.618   2.310  11.707  0.2903 -0.0308 -0.4948
 5487TIP3    H137876   2.589   2.284  11.794  2.5331 -1.5837 -0.1433
 5487TIP3    H237877   2.563   2.384  11.684 -1.3382 -0.5261  1.6205
 5488TIP3   OH237878   6.039   2.455   4.946  0.9409 -0.4329 -0.1530
 5488TIP3    H137879   6.098   2.528   4.926 -1.2160  1.6412  0.8453
 5488TIP3    H237880   6.071   2.420   5.029 -1.0272  2.7465  2.0785
 5489TIP3   OH237881   4.677   0.701  16.022 -0.2275  0.0445 -0.3000
 5489TIP3    H137882   4.597   0.669  15.981 -0.0742 -0.1059 -0.4889
 5489TIP3    H237883   4.681   0.794  15.998  0.0257 -0.1156 -0.9056
 5490TIP3   OH237884   4.608   2.101  10.974 -0.1145 -0.4648 -0.0369
 5490TIP3    H137885   4.602   2.066  10.886 -1.1206  1.3053 -0.6914
 5490TIP3    H237886   4.519   2.129  10.996  0.6208  1.5161  0.5107
 5491TIP3   OH237887   0.404   4.784   4.064 -0.6490 -0.2481  0.8428
 5491TIP3    H137888   0.386   4.705   4.013  0.2665  1.5267 -2.3242
 5491TIP3    H237889   0.336   4.785   4.132 -0.9444 -3.4773  0.6585
 5492TIP3   OH237890   3.782   5.930   2.989 -0.2134 -0.1019  0.1638
 5492TIP3    H137891   3.687   5.937   3.000 -0.0933 -0.1150  1.2977
 5492TIP3    H237892   3.816   5.932   3.078  0.7748 -1.2223 -0.1789
 5493TIP3   OH237893   0.743   3.772   5.329 -0.0339 -0.5106  0.4687
 5493TIP3    H137894   0.729   3.850   5.275  0.4606 -0.5985  0.2082
 5493TIP3    H237895   0.656   3.733   5.338  0.0143 -0.9345 -0.9313
 5494TIP3   OH237896   0.144   0.244  16.395 -0.3134  0.1125 -0.7124
 5494TIP3    H137897   0.066   0.296  16.380  0.3864  0.6505 -2.7000
 5494TIP3    H237898   0.210   0.307  16.424 -0.1026 -0.0331 -0.8737
 5495TIP3   OH237899   1.011   3.569  11.080  0.0094  0.3310  0.9657
 5495TIP3    H137900   1.087   3.611  11.040 -0.1691  1.1488  1.4633
 5495TIP3    H237901   1.046   3.493  11.125  0.0282 -1.5417 -2.0425
 5496TIP3   OH237902   6.192   5.330  13.488 -0.4025 -0.3331  0.5791
 5496TIP3    H137903   6.148   5.339  13.572  0.0771  0.3628  0.7653
 5496TIP3    H237904   6.246   5.409  13.481  0.1181 -0.7370 -0.0508
 5497TIP3   OH237905   1.288   0.330  14.732 -0.2887  0.5712  0.1369
 5497TIP3    H137906   1.231   0.310  14.806 -0.0293 -0.6398  0.0196
 5497TIP3    H237907   1.228   0.356  14.662 -0.5664  1.2268  0.6222
 5498TIP3   OH237908   6.440   6.347  12.172 -0.2137 -0.2921 -0.0837
 5498TIP3    H137909   6.390   6.347  12.090  1.0543 -1.6372 -0.8706
 5498TIP3    H237910   6.474   6.258  12.179 -0.3564 -0.1964  1.9437
 5499TIP3   OH237911   6.010   4.819   3.838  0.1657 -0.6041 -0.4460
 5499TIP3    H137912   5.975   4.812   3.750  1.0354 -0.5753 -0.8004
 5499TIP3    H237913   6.006   4.912   3.859 -1.2029 -0.7616  0.0323
 5500TIP3   OH237914   5.899   2.108   3.137  0.3375 -0.5619  0.6911
 5500TIP3    H137915   5.806   2.088   3.142  0.4699 -0.8289  2.5823
 5500TIP3    H237916   5.903   2.196   3.099 -0.6917 -0.4312  0.8723
 5501TIP3   OH237917   3.382   2.529  14.142  0.5431  0.2293 -0.6502
 5501TIP3    H137918   3.419   2.449  14.106  1.2201  0.8224 -1.2881
 5501TIP3    H237919   3.370   2.587  14.066 -1.9265 -0.0262 -0.5095
 5502TIP3   OH237920   2.075   4.610  12.113  0.1644  0.2368 -0.4094
 5502TIP3    H137921   2.073   4.704  12.129  0.1177 -0.0406  1.2538
 5502TIP3    H237922   2.143   4.598  12.046  0.8878  1.3277  0.1235
 5503TIP3   OH237923   6.526   5.683  17.169 -0.0866 -0.6885  0.1526
 5503TIP3    H137924   6.580   5.718  17.098 -1.0626 -0.7924 -0.6553
 5503TIP3    H237925   6.454   5.638  17.124 -0.9500 -0.3862  1.2178
 5504TIP3   OH237926   1.880   3.379  11.229  0.2982  0.3097 -0.1990
 5504TIP3    H137927   1.826   3.384  11.307  0.1959  0.2298 -0.2646
 5504TIP3    H237928   1.953   3.322  11.255  0.0752 -0.0136 -0.2696
 5505TIP3   OH237929   1.165   5.912  13.892 -0.8000 -0.7028  0.4769
 5505TIP3    H137930   1.174   5.828  13.938  0.7073 -0.4062  0.7428
 5505TIP3    H237931   1.185   5.977  13.959 -2.5934 -0.1009  0.4273
 5506TIP3   OH237932   5.334   0.289   3.057  0.6604 -0.1465  0.3954
 5506TIP3    H137933   5.258   0.321   3.008  0.2450  0.1471  1.2227
 5506TIP3    H237934   5.395   0.259   2.989  0.5186  1.1985 -0.3625
 5507TIP3   OH237935   0.289   2.605  16.135  0.8492 -0.2018 -0.1238
 5507TIP3    H137936   0.286   2.513  16.107  0.7837 -0.3421  0.3441
 5507TIP3    H237937   0.328   2.603  16.222  1.9893  0.3383 -0.6066
 5508TIP3   OH237938   1.606   0.888   3.278  0.6396  0.3062  0.1476
 5508TIP3    H137939   1.630   0.894   3.370  0.6776  0.7586  0.1111
 5508TIP3    H237940   1.519   0.848   3.278  1.5714 -1.8233  0.2567
 5509TIP3   OH237941   2.261   3.947   5.848 -0.3699  0.0460 -0.5917
 5509TIP3    H137942   2.187   3.977   5.900  0.1082  1.0818 -0.4914
 5509TIP3    H237943   2.222   3.899   5.775 -1.0196 -2.7403  1.4860
 5510TIP3   OH237944   1.049   3.351  13.772  0.2457  0.1025  0.5213
 5510TIP3    H137945   1.015   3.386  13.690 -1.0175 -0.4043  0.8275
 5510TIP3    H237946   1.049   3.426  13.831  0.4704  0.2995  0.2735
 5511TIP3   OH237947   5.270   3.075   0.506  0.3567  0.2336 -0.0754
 5511TIP3    H137948   5.205   3.144   0.497 -0.2050 -0.2805  0.0207
 5511TIP3    H237949   5.257   3.042   0.595  2.0666  1.4561  0.6633
 5512TIP3   OH237950   2.885   5.213   2.471 -0.1994 -0.5354 -0.0178
 5512TIP3    H137951   2.800   5.257   2.460 -0.4468 -0.3244  2.3174
 5512TIP3    H237952   2.906   5.180   2.384 -2.1099  0.4362 -0.9048
 5513TIP3   OH237953   6.581   0.561  15.231  0.2208  0.0458  0.2190
 5513TIP3    H137954   6.559   0.653  15.215  0.9472 -0.0198 -1.2484
 5513TIP3    H237955   6.614   0.560  15.321 -0.5771  1.0796  0.5296
 5514TIP3   OH237956   6.728   3.916  13.652 -0.1578  0.8738  0.3793
 5514TIP3    H137957   6.714   3.871  13.736  2.1869 -2.6744 -0.9906
 5514TIP3    H237958   6.640   3.929  13.617 -1.0273 -0.7018  1.8625
 5515TIP3   OH237959   0.294   3.409  12.780  0.2126  0.0158  0.2140
 5515TIP3    H137960   0.243   3.464  12.838  1.6879  1.4691  0.1785
 5515TIP3    H237961   0.230   3.370  12.720 -0.9385  1.0253  0.7778
 5516TIP3   OH237962   0.715   5.255   1.149  0.2067  0.6532 -0.4068
 5516TIP3    H137963   0.694   5.170   1.188  0.4458  0.8442  0.1350
 5516TIP3    H237964   0.784   5.291   1.204  0.6773  0.8463 -1.1090
 5517TIP3   OH237965   5.234   2.905  16.841 -0.3350 -0.3705  0.4273
 5517TIP3    H137966   5.246   2.841  16.771  0.7826 -0.1297  0.3974
 5517TIP3    H237967   5.315   2.955  16.843 -1.4389  1.5101 -0.0190
 5518TIP3   OH237968   2.080   1.132  12.004  0.2065  0.1149 -0.4228
 5518TIP3    H137969   2.130   1.173  12.074  3.8659  0.2054 -2.9389
 5518TIP3    H237970   2.141   1.068  11.966 -2.2507 -1.1049 -2.4502
 5519TIP3   OH237971   2.077   4.920   4.547  0.4302 -0.0084  0.6594
 5519TIP3    H137972   2.075   4.827   4.522  0.9032 -0.2600  1.5503
 5519TIP3    H237973   2.116   4.963   4.470  0.0928 -0.5281  0.1901
 5520TIP3   OH237974   5.505   4.384   0.014 -0.4531 -0.2099 -0.4060
 5520TIP3    H137975   5.446   4.376   0.090 -1.4474  2.2367 -0.8671
 5520TIP3    H237976   5.553   4.465   0.030  2.0983 -1.6358 -0.5693
 5521TIP3   OH237977   3.933   2.851  16.318 -0.1475  0.0091  0.1640
 5521TIP3    H137978   3.976   2.896  16.391  2.3851  0.0301 -1.2689
 5521TIP3    H237979   3.845   2.831  16.350  1.3695 -1.2945  3.7147
 5522TIP3   OH237980   2.428   2.342  16.807  0.5763  0.1708 -0.3694
 5522TIP3    H137981   2.489   2.416  16.807  1.2983 -0.3602  1.8554
 5522TIP3    H237982   2.346   2.379  16.842  0.1627  0.4840 -1.6654
 5523TIP3   OH237983   1.733   5.804   2.519 -0.2528  0.4944  0.6279
 5523TIP3    H137984   1.811   5.849   2.551 -0.9053  0.7445  1.8928
 5523TIP3    H237985   1.767   5.734   2.464  0.9784 -0.8725  3.0467
 5524TIP3   OH237986   5.637   4.603  14.746 -0.1736 -0.9393  0.6450
 5524TIP3    H137987   5.654   4.650  14.828  0.6026 -0.1445  0.0289
 5524TIP3    H237988   5.621   4.671  14.681 -1.4623 -1.5775  0.2573
 5525TIP3   OH237989   2.832   3.987   2.520 -0.1468  0.2357 -0.1434
 5525TIP3    H137990   2.787   4.022   2.443  0.9912  0.1976 -0.8367
 5525TIP3    H237991   2.897   4.055   2.542  0.5759 -0.4428 -0.1636
 5526TIP3   OH237992   3.320   0.278  13.170  0.5881  0.0911 -0.0171
 5526TIP3    H137993   3.346   0.330  13.246  0.6163 -0.6192  0.4626
 5526TIP3    H237994   3.277   0.201  13.207  1.0845 -0.5238 -0.7083
 5527TIP3   OH237995   4.524   4.413  14.886  0.2956  0.4250 -0.2613
 5527TIP3    H137996   4.502   4.505  14.870  2.7631  0.9041 -1.0232
 5527TIP3    H237997   4.519   4.372  14.800 -2.8954 -0.6630  0.3816
 5528TIP3   OH237998   1.439   5.558   2.364  0.3737  0.5379  0.2080
 5528TIP3    H137999   1.414   5.467   2.382 -1.7670  1.2407  0.9644
 5528TIP3    H238000   1.399   5.608   2.435  0.5546  2.2138 -0.8458
 5529TIP3   OH238001   3.630   0.528  14.425  0.3356  0.7782  0.0718
 5529TIP3    H138002   3.580   0.492  14.498 -0.8490  0.3863 -0.9265
 5529TIP3    H238003   3.571   0.523  14.350  2.0937 -0.3885 -1.3021
 5530TIP3   OH238004   2.832   3.485   5.530 -0.0923  0.5660  0.9053
 5530TIP3    H138005   2.897   3.537   5.483  0.2038  1.5147  2.3096
 5530TIP3    H238006   2.747   3.523   5.505 -0.0473 -0.0533 -0.1869
 5531TIP3   OH238007   0.046   1.756  12.366 -0.1009  0.3464  0.1294
 5531TIP3    H138008   0.130   1.709  12.361 -0.5889 -0.3925 -1.3331
 5531TIP3    H238009  -0.015   1.700  12.318 -1.4528  0.8647  1.2253
 5532TIP3   OH238010   4.968   1.599  12.380  0.1858  0.2253 -0.2610
 5532TIP3    H138011   4.999   1.574  12.467 -0.2970 -2.0813 -0.6965
 5532TIP3    H238012   4.943   1.516  12.339 -1.6581  1.4954 -1.8038
 5533TIP3   OH238013   5.719   5.268   2.017 -0.3997 -0.3377 -0.1750
 5533TIP3    H138014   5.699   5.325   1.943  1.5029 -0.4965 -0.8165
 5533TIP3    H238015   5.711   5.326   2.094  1.9367  0.9423 -0.8517
 5534TIP3   OH238016   0.665   2.332   3.717  0.1464 -0.0213 -0.4856
 5534TIP3    H138017   0.626   2.249   3.747  0.6161 -0.4355 -1.0219
 5534TIP3    H238018   0.742   2.306   3.667  0.0862  0.7297 -0.9696
 5535TIP3   OH238019   2.831   3.585   3.284  0.0403 -0.6439 -0.4975
 5535TIP3    H138020   2.759   3.623   3.334 -1.1211 -2.0118 -1.0792
 5535TIP3    H238021   2.873   3.523   3.344  0.6727  0.0699 -0.1954
 5536TIP3   OH238022   2.494   6.552  12.531  0.4161  0.2029  0.0436
 5536TIP3    H138023   2.399   6.559  12.538  0.0761 -2.6605 -1.1465
 5536TIP3    H238024   2.527   6.603  12.605 -2.1088 -0.8374  1.9768
 5537TIP3   OH238025   5.341   5.869   1.867  0.0216 -0.6180 -0.2575
 5537TIP3    H138026   5.391   5.850   1.947 -2.8745 -2.5797  1.2033
 5537TIP3    H238027   5.397   5.837   1.796  1.8584 -0.5489  1.1023
 5538TIP3   OH238028   0.651   4.822   2.204 -0.1142  0.1145  0.2927
 5538TIP3    H138029   0.597   4.771   2.265  0.8722  0.1731  1.2500
 5538TIP3    H238030   0.693   4.756   2.149  0.6178 -0.0825  1.0692
 5539TIP3   OH238031   2.818   4.686  16.406 -0.1363 -0.0861 -0.2484
 5539TIP3    H138032   2.734   4.730  16.418 -0.5877 -1.1484  0.5295
 5539TIP3    H238033   2.871   4.748  16.356 -1.4829  0.4701 -1.0111
 5540TIP3   OH238034   3.263   1.392  16.653  0.2325 -0.0557 -0.6475
 5540TIP3    H138035   3.315   1.463  16.689 -0.4859 -0.0690  0.4516
 5540TIP3    H238036   3.282   1.317  16.710 -0.9876 -0.0541 -0.2259
 5541TIP3   OH238037   6.276   5.541   3.103  0.4112  0.4744  0.2129
 5541TIP3    H138038   6.348   5.586   3.059 -1.7716  2.9724 -0.9063
 5541TIP3    H238039   6.275   5.454   3.063  2.9272  0.2998  0.4378
 5542TIP3   OH238040   4.980   1.687  13.954  0.3070 -0.5821  1.0448
 5542TIP3    H138041   4.998   1.621  13.886 -1.0633  0.6842 -0.6020
 5542TIP3    H238042   5.032   1.762  13.927 -0.6667  0.1113  1.0790
 5543TIP3   OH238043   1.377   1.396  10.895 -0.0038 -0.2826 -0.0301
 5543TIP3    H138044   1.331   1.337  10.954  0.8584 -1.5873 -0.6271
 5543TIP3    H238045   1.308   1.443  10.848 -0.7001 -0.9132  0.3661
 5544TIP3   OH238046   1.912   5.336  11.276 -0.3759 -0.7091 -0.5734
 5544TIP3    H138047   2.000   5.358  11.309 -0.5544 -3.6728  2.2213
 5544TIP3    H238048   1.858   5.411  11.301  0.9096  0.1128 -0.1848
 5545TIP3   OH238049   3.897   2.428   4.981  0.4735 -0.5155 -0.0707
 5545TIP3    H138050   3.915   2.338   4.954 -1.1450 -0.3509 -1.7709
 5545TIP3    H238051   3.883   2.475   4.899 -0.7179  0.8401  0.8968
 5546TIP3   OH238052   5.596   3.991   5.227  0.0993 -0.1612 -0.1982
 5546TIP3    H138053   5.560   4.029   5.307 -0.3166 -0.4459 -0.2468
 5546TIP3    H238054   5.535   4.017   5.158  1.2938  1.4129 -0.6957
 5547TIP3   OH238055   0.189   2.300   6.296  0.3235  0.8571 -0.4853
 5547TIP3    H138056   0.206   2.245   6.372  0.5076  1.8650  0.2197
 5547TIP3    H238057   0.094   2.313   6.296 -0.4496 -3.5749 -3.5842
 5548TIP3   OH238058   0.481   4.457  17.152 -0.5635  0.5699 -0.4561
 5548TIP3    H138059   0.532   4.493  17.225 -0.4751 -1.8418  0.7066
 5548TIP3    H238060   0.525   4.491  17.074  0.2705  1.9411  0.5820
 5549TIP3   OH238061   6.529   1.172   4.086 -0.5215  0.2673 -0.4984
 5549TIP3    H138062   6.552   1.140   4.173  1.1764  1.4085 -0.5077
 5549TIP3    H238063   6.439   1.204   4.095 -1.0779 -1.4268  0.3198
 5550TIP3   OH238064   0.553   5.698  12.536  0.1335 -0.1291  0.5444
 5550TIP3    H138065   0.531   5.631  12.471  0.2605  0.8292 -0.5029
 5550TIP3    H238066   0.477   5.702  12.594 -1.0146  0.6872 -0.9810
 5551TIP3   OH238067   1.271   2.618  13.319 -0.2891  0.6191 -0.3163
 5551TIP3    H138068   1.323   2.613  13.399 -1.1861  1.1066  0.3180
 5551TIP3    H238069   1.204   2.684  13.339 -2.4835 -1.5161 -0.3214
 5552TIP3   OH238070   1.235   1.738   6.376 -0.0641 -0.1310 -0.5594
 5552TIP3    H138071   1.230   1.653   6.331  0.1476 -0.2488 -0.3587
 5552TIP3    H238072   1.299   1.725   6.446  0.1136  0.2536 -0.6506
 5553TIP3   OH238073   4.346   3.908  16.355 -0.4416  0.1393 -0.3924
 5553TIP3    H138074   4.267   3.863  16.326 -1.3803  2.0105 -0.8014
 5553TIP3    H238075   4.406   3.903  16.281  0.4550 -2.6447  0.4576
 5554TIP3   OH238076   2.922   0.694  14.744  0.9569 -0.0268 -0.4266
 5554TIP3    H138077   2.971   0.612  14.753 -1.3187 -1.5149 -1.1581
 5554TIP3    H238078   2.839   0.677  14.787  0.4537  1.9340 -0.5768
 5555TIP3   OH238079   5.166   0.264  11.555  0.2312  0.2297  0.3225
 5555TIP3    H138080   5.159   0.172  11.578  0.9201 -0.0795 -0.6811
 5555TIP3    H238081   5.157   0.266  11.460 -1.8681  1.4278  0.5099
 5556TIP3   OH238082   0.136   3.821   0.980 -0.3949 -0.1312  0.7556
 5556TIP3    H138083   0.172   3.750   1.033 -0.2625 -0.0077  0.8281
 5556TIP3    H238084   0.105   3.777   0.900 -0.1689 -0.2483  0.7317
 5557TIP3   OH238085   5.770   0.553  11.228 -1.1781  0.9663 -0.1799
 5557TIP3    H138086   5.703   0.485  11.215 -1.1141  0.9244 -0.2951
 5557TIP3    H238087   5.808   0.565  11.141  0.6035 -0.7185  0.3261
 5558TIP3   OH238088   3.033   0.992  15.196 -0.1325  0.5426  0.1934
 5558TIP3    H138089   3.116   1.039  15.184  0.5599 -0.2304  1.9091
 5558TIP3    H238090   3.019   0.992  15.290 -1.6081 -0.1785 -0.0176
 5559TIP3   OH238091   2.027   5.244  17.190 -0.4344 -0.2927 -0.4130
 5559TIP3    H138092   1.952   5.216  17.242  0.9983 -1.1438  1.2770
 5559TIP3    H238093   2.101   5.239  17.251  1.2321 -0.9339 -2.4331
 5560TIP3   OH238094   1.019   2.340   1.299 -0.2614 -0.0124 -0.8059
 5560TIP3    H138095   1.097   2.386   1.327 -0.7110  2.4319 -3.3513
 5560TIP3    H238096   0.999   2.280   1.371  2.0964  1.5863  1.2477
 5561TIP3   OH238097   0.717   4.709   5.979  0.1059  0.4585 -0.3362
 5561TIP3    H138098   0.735   4.616   5.992  0.4253  0.7835  1.7343
 5561TIP3    H238099   0.799   4.753   6.002 -0.4628  1.3364  0.0415
 5562TIP3   OH238100   6.146   2.046   4.249 -0.1571 -0.8578  0.2208
 5562TIP3    H138101   6.083   1.986   4.289  0.3184  0.4977  3.1128
 5562TIP3    H238102   6.153   2.119   4.311  2.4239  0.1874 -1.2067
 5563TIP3   OH238103   0.123   6.440  14.217 -0.0408  0.4708  0.1436
 5563TIP3    H138104   0.180   6.441  14.140 -0.3719  1.4375 -0.0986
 5563TIP3    H238105   0.140   6.524  14.260 -0.6506  0.3957  0.5298
 5564TIP3   OH238106   2.405   3.506   3.625 -0.3294 -0.0809  0.3401
 5564TIP3    H138107   2.442   3.552   3.549 -1.2810  0.8635  0.4377
 5564TIP3    H238108   2.342   3.568   3.662  1.4879  0.2359  3.0342
 5565TIP3   OH238109   0.725   3.906  15.433  0.2901  0.2693  0.0369
 5565TIP3    H138110   0.650   3.888  15.490 -0.6177  0.0585 -1.2055
 5565TIP3    H238111   0.801   3.880  15.485 -0.2416  3.5460  2.5630
 5566TIP3   OH238112   2.638   0.176   5.054 -0.2639  0.4425  0.4065
 5566TIP3    H138113   2.578   0.139   4.989  0.0858  0.4107  0.1008
 5566TIP3    H238114   2.583   0.196   5.130 -0.6317  0.2660  0.1829
 5567TIP3   OH238115   6.002   2.181   3.740 -0.2200  0.1212 -0.8043
 5567TIP3    H138116   5.991   2.100   3.691  1.1855 -0.4754 -0.1755
 5567TIP3    H238117   6.030   2.246   3.675  1.9706 -0.7467 -0.7880
 5568TIP3   OH238118   3.277   6.156  13.788  0.4792  0.1933  0.0678
 5568TIP3    H138119   3.266   6.064  13.763  1.2460  0.6183 -1.9483
 5568TIP3    H238120   3.200   6.200  13.751 -0.8621  0.0930  2.6466
 5569TIP3   OH238121   6.305   3.857   4.192  0.3247 -0.4064  0.2775
 5569TIP3    H138122   6.372   3.817   4.248 -0.1015 -0.9281  0.4232
 5569TIP3    H238123   6.301   3.800   4.115  0.8217  0.2406 -0.2364
 5570TIP3   OH238124   0.184   0.291  11.941 -0.4055 -0.2648  0.4630
 5570TIP3    H138125   0.211   0.245  11.861 -1.2560  1.0496 -0.6077
 5570TIP3    H238126   0.151   0.223  11.999 -0.5669 -1.1293 -0.6392
 5571TIP3   OH238127   4.089   3.182  13.408  0.0702  0.6540  0.4485
 5571TIP3    H138128   4.072   3.119  13.478  2.0794 -1.4617 -0.8936
 5571TIP3    H238129   4.040   3.147  13.333  1.5953  0.3988 -0.4443
 5572TIP3   OH238130   5.338   3.914  12.228  0.4862 -0.2354 -0.6080
 5572TIP3    H138131   5.331   3.900  12.133 -1.2496 -0.3388 -0.4915
 5572TIP3    H238132   5.280   3.847  12.265  1.2477 -0.2579  0.5273
 5573TIP3   OH238133   3.997   3.339  12.519 -0.6219 -0.5403 -0.0855
 5573TIP3    H138134   4.061   3.267  12.516  0.5355  0.4467  0.7446
 5573TIP3    H238135   4.005   3.381  12.434 -1.7698 -1.7758 -0.8290
 5574TIP3   OH238136   3.234   1.541   3.189  0.1210  0.2897 -0.3815
 5574TIP3    H138137   3.264   1.459   3.150  2.2562  0.7092  0.3613
 5574TIP3    H238138   3.310   1.577   3.234 -1.1880  1.9316  0.6127
 5575TIP3   OH238139   5.628   3.649   2.041  0.1548  0.0920  0.4285
 5575TIP3    H138140   5.677   3.669   1.962 -0.0065 -1.1959 -0.0029
 5575TIP3    H238141   5.693   3.648   2.111  0.1126  2.5623  0.5661
 5576TIP3   OH238142   0.321   3.439   6.713 -0.5101  0.2679  0.0427
 5576TIP3    H138143   0.347   3.414   6.624 -1.5161  2.2921 -0.8697
 5576TIP3    H238144   0.402   3.434   6.764 -0.0378 -1.4714 -0.8532
 5577TIP3   OH238145   6.360   2.172  11.543 -0.2761 -0.4726  0.3234
 5577TIP3    H138146   6.357   2.176  11.638 -0.0906  1.0829  0.2703
 5577TIP3    H238147   6.410   2.249  11.517 -1.1956 -0.3353 -1.0845
 5578TIP3   OH238148   4.667   1.443  13.808  0.1407 -0.0075 -0.0440
 5578TIP3    H138149   4.747   1.490  13.788  0.3207 -0.0422  0.5611
 5578TIP3    H238150   4.696   1.354  13.830  0.0849  0.3095  1.4215
 5579TIP3   OH238151   0.984   3.985  16.405  0.1079 -0.6333  0.3496
 5579TIP3    H138152   0.890   4.003  16.412 -0.0822 -1.8605  1.2433
 5579TIP3    H238153   1.026   4.066  16.430 -0.7203  0.0317 -0.3784
 5580TIP3   OH238154   6.675   2.596   0.923 -0.1672 -0.1260  0.4073
 5580TIP3    H138155   6.699   2.540   0.849  0.5045  0.6521  0.0255
 5580TIP3    H238156   6.580   2.608   0.915  0.2574  2.1922 -1.9526
 5581TIP3   OH238157   4.471   3.198  16.946 -0.3604 -0.0036 -0.0089
 5581TIP3    H138158   4.467   3.255  16.869  2.2792  1.1975  0.6994
 5581TIP3    H238159   4.451   3.256  17.019 -1.2430 -0.7906  0.3856
 5582TIP3   OH238160   5.136   3.214  15.760  0.7682  0.0639 -0.4594
 5582TIP3    H138161   5.148   3.233  15.666 -0.6151 -2.6974 -1.2397
 5582TIP3    H238162   5.176   3.128  15.772 -1.7528 -0.9543  0.8242
 5583TIP3   OH238163   6.191   5.524   5.266  0.1063  0.4793 -0.4792
 5583TIP3    H138164   6.219   5.445   5.312  1.3831  0.7960 -0.7121
 5583TIP3    H238165   6.136   5.492   5.194 -0.2908 -0.1207  0.0836
 5584TIP3   OH238166   2.461   4.573  16.319  0.0598  0.3483  0.0474
 5584TIP3    H138167   2.446   4.648  16.262 -2.2997 -0.5972 -0.6637
 5584TIP3    H238168   2.520   4.516  16.269 -1.7041 -0.3020 -1.3290
 5585TIP3   OH238169   1.896   5.772   1.888 -0.1677  0.0460  0.2470
 5585TIP3    H138170   1.825   5.744   1.831  1.1223  0.1376 -1.4241
 5585TIP3    H238171   1.939   5.690   1.915 -2.2312 -0.1981  3.1048
 5586TIP3   OH238172   0.986   3.005  13.407 -0.1089  0.1540 -0.4128
 5586TIP3    H138173   0.918   2.959  13.357 -2.7953  2.1853  1.2379
 5586TIP3    H238174   1.041   3.045  13.339 -1.8500  0.2717 -1.8193
 5587TIP3   OH238175   0.502   2.131   3.898 -0.2098  0.1735  0.5745
 5587TIP3    H138176   0.578   2.074   3.914 -0.1753 -0.9193 -2.9377
 5587TIP3    H238177   0.427   2.079   3.924 -0.0102 -0.5403 -0.2380
 5588TIP3   OH238178   5.568   6.752  12.404 -0.8071  0.9500  0.3283
 5588TIP3    H138179   5.584   6.688  12.474 -2.0746 -0.0361 -0.2576
 5588TIP3    H238180   5.558   6.835  12.449 -1.5554  0.3347  1.3186
 5589TIP3   OH238181   5.242   5.382  14.030  0.4980 -0.0232 -0.4739
 5589TIP3    H138182   5.222   5.467  14.069 -0.5831 -0.4719 -0.0170
 5589TIP3    H238183   5.289   5.403  13.949 -0.4984  1.0429 -0.7983
 5590TIP3   OH238184   5.468   6.597  10.843  0.2091  0.3763  0.1651
 5590TIP3    H138185   5.397   6.577  10.903  0.5582 -0.9395  0.1597
 5590TIP3    H238186   5.425   6.613  10.758 -0.0796 -0.3215  0.1812
 5591TIP3   OH238187   2.361   4.285  15.222 -0.3315 -0.0649 -0.0635
 5591TIP3    H138188   2.368   4.314  15.132 -3.5012  1.5493  0.1267
 5591TIP3    H238189   2.404   4.353  15.273  0.2571 -0.3011 -0.2362
 5592TIP3   OH238190   1.518   5.971   2.025 -0.4352 -0.3139 -0.4137
 5592TIP3    H138191   1.549   5.902   2.084 -0.9651 -0.5173 -0.3766
 5592TIP3    H238192   1.578   5.966   1.951  0.2448 -0.0456  0.1093
 5593TIP3   OH238193   6.589   6.242  16.800 -0.0190  0.0824 -0.4747
 5593TIP3    H138194   6.631   6.307  16.743 -1.1196  0.1927 -1.1735
 5593TIP3    H238195   6.639   6.161  16.785  0.1469  0.2890 -1.0535
 5594TIP3   OH238196   3.707   5.556  15.185  0.2902 -0.0200  0.8752
 5594TIP3    H138197   3.677   5.561  15.276  2.4096 -1.8753  1.7077
 5594TIP3    H238198   3.689   5.466  15.159  0.4529  0.2781 -0.3027
 5595TIP3   OH238199   6.352   5.713  14.546 -0.0318 -0.4572 -0.1832
 5595TIP3    H138200   6.278   5.755  14.503  1.6346  0.0757 -2.6266
 5595TIP3    H238201   6.328   5.620  14.550 -1.4785 -0.0737  0.5091
 5596TIP3   OH238202   4.530   0.389   4.547 -0.3994  0.0244  0.0021
 5596TIP3    H138203   4.463   0.457   4.548  1.1751  1.6159  0.3046
 5596TIP3    H238204   4.609   0.433   4.513  1.0924 -1.1952  1.7720
 5597TIP3   OH238205   2.040   5.819   4.715  0.4406  0.1533 -0.4521
 5597TIP3    H138206   2.047   5.783   4.803  2.6293  1.9062  0.1085
 5597TIP3    H238207   2.022   5.912   4.727  0.5682  0.3796 -1.8682
 5598TIP3   OH238208   5.853   6.760  12.447  0.3325 -0.2338  0.0458
 5598TIP3    H138209   5.787   6.706  12.404 -0.9138  1.5375 -0.3116
 5598TIP3    H238210   5.851   6.843  12.400  2.7059 -0.0840  0.1455
 5599TIP3   OH238211   5.635   3.491  13.181  0.0491 -0.2650  0.1507
 5599TIP3    H138212   5.686   3.442  13.118 -1.6560  0.0708 -1.5419
 5599TIP3    H238213   5.555   3.439  13.192  0.1205 -0.0703  1.6664
 5600TIP3   OH238214   5.252   3.378  14.262  0.1204 -0.3919 -0.2467
 5600TIP3    H138215   5.274   3.356  14.172  0.1813  2.2036 -0.8981
 5600TIP3    H238216   5.331   3.420  14.297 -1.3069  2.4136 -0.3221
 5601TIP3   OH238217   1.767   4.826   4.846  1.1583 -0.6566 -0.6121
 5601TIP3    H138218   1.841   4.838   4.905  0.1755 -0.4825  0.6059
 5601TIP3    H238219   1.695   4.876   4.887  0.6604  0.0800 -2.3203
 5602TIP3   OH238220   5.581   4.696  13.119  0.4302 -0.0719  0.8054
 5602TIP3    H138221   5.656   4.646  13.151 -0.7025 -1.6564  1.0288
 5602TIP3    H238222   5.506   4.657  13.163 -0.7554  0.1065 -1.0061
 5603TIP3   OH238223   3.070   3.227   3.173  0.1956 -0.0131 -0.3222
 5603TIP3    H138224   3.037   3.194   3.257  1.4569  0.4443  0.3693
 5603TIP3    H238225   3.146   3.280   3.197  0.2669  0.5212 -1.7231
 5604TIP3   OH238226   0.131   2.948   3.658 -0.0739  0.3729  0.0376
 5604TIP3    H138227   0.049   2.962   3.611 -0.0297 -0.2121 -0.2222
 5604TIP3    H238228   0.104   2.911   3.742  0.0154 -1.8053 -0.8493
 5605TIP3   OH238229   0.066   5.536  13.301  0.3090 -0.4309  0.0762
 5605TIP3    H138230   0.151   5.534  13.345  0.7500  2.3954 -0.5666
 5605TIP3    H238231   0.086   5.550  13.209 -0.7737 -2.6247 -0.5257
 5606TIP3   OH238232   4.579   5.802  15.465 -0.7512 -0.1871  0.4029
 5606TIP3    H138233   4.670   5.818  15.443 -0.8886  0.8658  0.5838
 5606TIP3    H238234   4.544   5.753  15.391  0.5620 -2.6657  1.3778
 5607TIP3   OH238235   6.660   1.795  11.204  0.5551 -0.4197 -0.0422
 5607TIP3    H138236   6.629   1.730  11.140  0.0577 -0.2861  0.0615
 5607TIP3    H238237   6.691   1.868  11.151  1.2533 -0.7988 -0.1645
 5608TIP3   OH238238   2.742   6.258   4.518  0.8939  0.7738 -0.1715
 5608TIP3    H138239   2.716   6.167   4.536  1.7653  0.6310  0.3760
 5608TIP3    H238240   2.660   6.301   4.493  0.6502 -0.4271 -1.5209
 5609TIP3   OH238241   0.783   2.991  16.966 -0.7126 -0.2651 -0.1575
 5609TIP3    H138242   0.860   3.000  16.909  0.7391 -0.8818  1.6486
 5609TIP3    H238243   0.756   2.900  16.955  1.3484 -1.2519  2.2390
 5610TIP3   OH238244   4.660   4.092   0.910 -0.7967  0.0767 -0.3095
 5610TIP3    H138245   4.680   4.130   0.996 -3.2281  1.3179 -0.2620
 5610TIP3    H238246   4.635   4.167   0.856 -0.7949 -0.8871 -1.6536
 5611TIP3   OH238247   1.005   2.437   5.674 -0.2896 -0.0264 -0.2406
 5611TIP3    H138248   0.962   2.510   5.629  0.7094  0.5721 -0.2236
 5611TIP3    H238249   0.971   2.441   5.764 -0.7708 -0.0264 -0.4181
 5612TIP3   OH238250   3.840   2.011  13.212  0.1333 -0.1232 -0.3282
 5612TIP3    H138251   3.751   1.976  13.199 -0.4183  1.7448 -1.6391
 5612TIP3    H238252   3.895   1.956  13.157 -0.3701 -0.4584 -0.5092
 5613TIP3   OH238253   6.324   6.421  13.832 -0.3786 -0.1123  0.5657
 5613TIP3    H138254   6.323   6.502  13.780 -1.8541  0.0392  0.7885
 5613TIP3    H238255   6.409   6.422  13.877  1.0996 -0.4633 -2.1610
 5614TIP3   OH238256   0.800   2.805   5.929 -0.0402  0.0937  0.1188
 5614TIP3    H138257   0.757   2.785   6.013 -0.9232 -0.3489 -0.4311
 5614TIP3    H238258   0.733   2.785   5.863  0.1666  1.7634 -0.6143
 5615TIP3   OH238259   2.969   2.828  12.289 -0.1117 -0.6094  0.6076
 5615TIP3    H138260   3.017   2.748  12.311 -0.2188 -0.4557  1.4337
 5615TIP3    H238261   3.033   2.898  12.301 -0.6052 -0.3772  1.9939
 5616TIP3   OH238262   2.053   2.723   0.534 -0.3285 -0.1854  0.0418
 5616TIP3    H138263   2.076   2.703   0.625 -1.1610 -0.6911  0.1452
 5616TIP3    H238264   2.137   2.732   0.490  0.0822  0.3672  0.9282
 5617TIP3   OH238265   2.195   2.927  10.930 -0.3959  0.6080 -0.3619
 5617TIP3    H138266   2.134   2.997  10.952  0.4635  0.8629  1.2445
 5617TIP3    H238267   2.212   2.939  10.836 -0.7699  2.1456 -0.2390
 5618TIP3   OH238268   3.583   4.972   2.509 -0.1228 -0.5897  0.1042
 5618TIP3    H138269   3.674   4.969   2.539 -0.4282 -1.4199  0.9686
 5618TIP3    H238270   3.580   4.912   2.435  0.5066  1.0464 -1.2764
 5619TIP3   OH238271   1.544   2.395   0.583  0.6618  0.6777 -0.5935
 5619TIP3    H138272   1.581   2.399   0.672 -0.1849 -1.6440 -0.1152
 5619TIP3    H238273   1.620   2.381   0.526  1.2928  2.8680 -0.3405
 5620TIP3   OH238274   3.807   0.475  13.809 -0.2555 -0.0358 -0.2250
 5620TIP3    H138275   3.887   0.521  13.835 -0.6610  1.0552 -0.8435
 5620TIP3    H238276   3.836   0.413  13.742 -0.1861  1.6939 -1.8480
 5621TIP3   OH238277   4.710   4.482   1.536 -0.4945 -0.1013  0.6804
 5621TIP3    H138278   4.746   4.394   1.535 -1.0802 -0.3441  0.0666
 5621TIP3    H238279   4.743   4.523   1.456 -0.0265  0.3174  1.0867
 5622TIP3   OH238280   4.676   5.820   5.837  0.0063  0.1089 -0.4713
 5622TIP3    H138281   4.642   5.751   5.895  0.2390 -0.9177 -1.5484
 5622TIP3    H238282   4.697   5.893   5.897 -0.4057 -0.6765  0.6532
 5623TIP3   OH238283   1.475   0.687  12.186 -0.1272  0.3510  0.0604
 5623TIP3    H138284   1.426   0.760  12.149 -0.1801 -0.3943 -1.3645
 5623TIP3    H238285   1.561   0.691  12.143 -0.4293 -0.9396 -0.6915
 5624TIP3   OH238286   2.816   2.247  11.511  0.2862 -0.1584  0.5599
 5624TIP3    H138287   2.864   2.208  11.584  0.3282 -1.3817 -0.1004
 5624TIP3    H238288   2.735   2.280  11.550 -0.4267 -2.2356  0.9136
 5625TIP3   OH238289   5.321   2.089   4.404  0.9300 -0.2251  0.2240
 5625TIP3    H138290   5.301   2.001   4.372  1.5465 -0.0995 -0.5040
 5625TIP3    H238291   5.251   2.107   4.467  0.7266 -1.1836  0.2889
 5626TIP3   OH238292   1.106   3.204   4.315 -0.4836 -0.4474 -0.8717
 5626TIP3    H138293   1.187   3.197   4.364 -1.1799 -1.6880  0.1269
 5626TIP3    H238294   1.084   3.297   4.318  1.1930 -0.0071 -1.6666
 5627TIP3   OH238295   4.588   1.866   2.236  0.1239 -0.0881  0.4024
 5627TIP3    H138296   4.502   1.824   2.236  0.5415 -0.9533  0.2235
 5627TIP3    H238297   4.574   1.949   2.190 -0.8722  0.3184  1.4387
 5628TIP3   OH238298   5.910   4.582   3.319 -0.0199  0.3431 -0.1540
 5628TIP3    H138299   5.963   4.523   3.265  0.2242 -0.0949  0.5567
 5628TIP3    H238300   5.973   4.647   3.351 -0.1813  0.6554 -0.4663
 5629TIP3   OH238301   2.309   2.873   5.080  0.1480 -0.2183 -0.2328
 5629TIP3    H138302   2.348   2.939   5.023  0.3354  0.0871  0.2435
 5629TIP3    H238303   2.367   2.870   5.156 -0.3115 -0.3485  0.1164
 5630TIP3   OH238304   1.363   3.702   1.702  0.0019  0.1698 -0.2253
 5630TIP3    H138305   1.302   3.713   1.629 -0.3939 -0.4859  0.0028
 5630TIP3    H238306   1.424   3.634   1.673 -0.6184 -0.6428  0.3451
 5631TIP3   OH238307   2.429   3.800  16.978  0.2183 -0.4316  0.0965
 5631TIP3    H138308   2.384   3.870  16.930  1.8135  1.3678  1.1088
 5631TIP3    H238309   2.456   3.842  17.060  0.3520 -2.5405  1.1557
 5632TIP3   OH238310   6.642   0.777   3.288 -0.7225 -0.1698 -0.1479
 5632TIP3    H138311   6.620   0.719   3.361 -0.1810 -2.6208 -1.8940
 5632TIP3    H238312   6.558   0.794   3.245 -0.7777 -0.2825 -0.0848
 5633TIP3   OH238313   3.045   3.246   1.297 -0.2555 -0.6301 -0.3219
 5633TIP3    H138314   3.016   3.192   1.371 -3.8675  1.4900 -0.1023
 5633TIP3    H238315   3.055   3.184   1.225 -0.8291 -2.0849  0.8276
 5634TIP3   OH238316   4.290   3.290   1.054  0.2207  0.2308 -0.8856
 5634TIP3    H138317   4.262   3.202   1.027 -0.2974  0.1895 -0.2239
 5634TIP3    H238318   4.362   3.311   0.995  0.3385 -0.6345 -1.0623
 5635TIP3   OH238319   6.185   4.175   3.512 -0.3253 -0.3859  0.3020
 5635TIP3    H138320   6.185   4.100   3.571 -2.0859  2.1421  3.6749
 5635TIP3    H238321   6.093   4.184   3.484  0.0218 -0.0053 -0.7393
 5636TIP3   OH238322   4.191   1.017  11.077 -0.3263  0.0581 -0.0978
 5636TIP3    H138323   4.252   1.041  11.008 -2.1462 -0.9144 -2.1109
 5636TIP3    H238324   4.232   0.944  11.122 -0.3235 -1.1370 -1.9659
 5637TIP3   OH238325   3.301   1.411   2.772 -0.3065  0.4016 -0.0180
 5637TIP3    H138326   3.247   1.446   2.842 -1.9409 -0.7148 -0.6954
 5637TIP3    H238327   3.322   1.486   2.717  0.2847  1.1305  1.1923
 5638TIP3   OH238328   0.548   6.201   6.372  0.4354 -0.1876  0.3382
 5638TIP3    H138329   0.638   6.223   6.393  1.2314 -1.3679 -1.6912
 5638TIP3    H238330   0.495   6.257   6.429  2.4100  2.3861 -0.2684
 5639TIP3   OH238331   4.712   4.364   3.828 -0.3406  0.0626  0.2728
 5639TIP3    H138332   4.768   4.401   3.759 -1.8971 -0.4397 -1.2975
 5639TIP3    H238333   4.640   4.426   3.835 -1.0893 -0.7934  0.2068
 5640TIP3   OH238334   3.971   6.686  14.878  0.0595 -0.1063  0.1471
 5640TIP3    H138335   3.951   6.621  14.810  0.6969 -2.0220  1.7247
 5640TIP3    H238336   3.903   6.673  14.944 -1.0032  2.2634 -0.4441
 5641TIP3   OH238337   2.484   1.489  16.104 -0.0002  0.3981  0.0034
 5641TIP3    H138338   2.399   1.519  16.074 -0.6099 -2.1072 -0.8932
 5641TIP3    H238339   2.497   1.533  16.189 -1.6098  1.7188 -0.4187
 5642TIP3   OH238340   1.041   5.662   2.276 -0.6799  0.1850  0.5535
 5642TIP3    H138341   1.076   5.742   2.315  0.0598  1.2825 -2.2232
 5642TIP3    H238342   0.970   5.636   2.334  1.9460  0.3072  3.9797
 5643TIP3   OH238343   1.251   0.558  10.815  0.0618 -0.0462 -0.1001
 5643TIP3    H138344   1.217   0.634  10.768 -0.8256  0.1228  0.8145
 5643TIP3    H238345   1.173   0.511  10.845  0.6180 -0.0964  1.2899
 5644TIP3   OH238346   3.582   3.504  14.887 -0.4563 -0.4536 -0.5019
 5644TIP3    H138347   3.652   3.441  14.870 -0.5440 -0.7278  0.1347
 5644TIP3    H238348   3.506   3.468  14.842 -0.3125 -0.4111 -0.7779
 5645TIP3   OH238349   5.325   4.961   4.704  0.7749 -0.0467 -0.0773
 5645TIP3    H138350   5.288   4.994   4.623 -0.0912 -1.4442 -0.2656
 5645TIP3    H238351   5.309   5.031   4.768 -1.2307 -0.1857 -0.4103
 5646TIP3   OH238352   2.635   3.536   0.018  0.3355 -0.1569 -0.2435
 5646TIP3    H138353   2.564   3.521  -0.045 -1.9464  1.3186  1.8693
 5646TIP3    H238354   2.690   3.603  -0.024 -0.8869  0.4527 -0.9067
 5647TIP3   OH238355   0.145   0.791  13.622  0.1459  0.1180 -0.4409
 5647TIP3    H138356   0.116   0.765  13.709  0.8349 -2.0266 -0.8112
 5647TIP3    H238357   0.082   0.749  13.563  0.5046  0.3948 -1.0233
 5648TIP3   OH238358   2.804   0.253   5.351 -0.0438  0.2538  0.2654
 5648TIP3    H138359   2.783   0.160   5.361 -0.1249  0.2818  0.3554
 5648TIP3    H238360   2.796   0.289   5.439  0.9274  0.1563  0.3939
 5649TIP3   OH238361   4.656   2.100  13.319  0.0595  0.4581  0.2422
 5649TIP3    H138362   4.570   2.095  13.278  0.6168  0.8750 -0.9797
 5649TIP3    H238363   4.638   2.095  13.413 -1.3048  0.6959 -0.0051
 5650TIP3   OH238364   2.673   1.543  14.172 -0.0757  0.6737 -0.1659
 5650TIP3    H138365   2.709   1.507  14.091  0.0851 -0.4216  0.3852
 5650TIP3    H238366   2.713   1.490  14.242 -2.8812 -0.7079  0.4615
 5651TIP3   OH238367   3.249   1.687   4.156  0.6114 -0.9896 -0.0472
 5651TIP3    H138368   3.193   1.638   4.096  0.1180 -1.9623  1.1765
 5651TIP3    H238369   3.308   1.622   4.193 -0.0394 -0.6864  1.5941
 5652TIP3   OH238370   3.579   3.652  13.819  0.8877 -0.0094  0.6720
 5652TIP3    H138371   3.606   3.578  13.873  0.2548 -0.0421  0.9525
 5652TIP3    H238372   3.495   3.678  13.856 -0.1829 -0.8510 -1.1447
 5653TIP3   OH238373   1.523   5.386   5.306  0.6490  0.6372  0.1857
 5653TIP3    H138374   1.542   5.413   5.216  1.6057 -0.1699  0.1325
 5653TIP3    H238375   1.593   5.426   5.359  1.6094 -1.0153  0.2082
 5654TIP3   OH238376   1.464   5.321  12.463 -0.0690 -0.1852  0.3858
 5654TIP3    H138377   1.520   5.250  12.494 -0.7412 -0.0726  1.8955
 5654TIP3    H238378   1.521   5.398  12.460  0.2527 -0.4261  0.3374
 5655TIP3   OH238379   0.855   0.601   1.622 -0.1914 -0.1899  0.3656
 5655TIP3    H138380   0.927   0.573   1.566  0.0798 -1.4106  1.3043
 5655TIP3    H238381   0.888   0.591   1.711 -0.5572  1.9167  0.7470
 5656TIP3   OH238382   3.351   3.381  11.430  0.1217 -0.4521  0.2441
 5656TIP3    H138383   3.362   3.291  11.398  1.7383 -0.1216 -0.1607
 5656TIP3    H238384   3.409   3.433  11.375  0.9075  0.5123  1.9810
 5657TIP3   OH238385   4.059   6.004   5.679  0.5017  0.0048 -0.0284
 5657TIP3    H138386   3.974   5.964   5.663  1.3254 -1.6669 -0.3059
 5657TIP3    H238387   4.065   6.010   5.774  0.2283 -0.1785  0.0016
 5658TIP3   OH238388   4.656   6.783   3.625  0.4489 -0.3116  0.7121
 5658TIP3    H138389   4.644   6.874   3.598 -1.2187 -0.3249  1.3423
 5658TIP3    H238390   4.568   6.751   3.644  1.0338 -1.9968  0.7260
 5659TIP3   OH238391   2.317   5.796   1.354 -0.0504  0.6055  0.1870
 5659TIP3    H138392   2.392   5.775   1.298 -0.3252 -1.4917  0.5744
 5659TIP3    H238393   2.242   5.756   1.310 -0.5293  0.4186  1.1641
 5660TIP3   OH238394   5.783   2.933   1.422 -0.6506 -0.3212 -0.6426
 5660TIP3    H138395   5.749   2.844   1.425  1.4328 -1.1204  0.1299
 5660TIP3    H238396   5.877   2.924   1.438 -0.3688  1.9936 -0.7466
 5661TIP3   OH238397   6.394   3.782  16.498 -0.3826 -0.8321  0.7443
 5661TIP3    H138398   6.302   3.784  16.471  0.2159  1.5321 -1.3673
 5661TIP3    H238399   6.413   3.690  16.513 -2.5680 -1.5616 -0.7450
 5662TIP3   OH238400   2.759   1.795  13.608  0.1718 -0.6259  0.2759
 5662TIP3    H138401   2.815   1.872  13.595 -0.6533 -0.3107 -1.6001
 5662TIP3    H238402   2.816   1.730  13.650  1.7873 -0.1254 -1.0925
 5663TIP3   OH238403   3.456   1.185   4.090 -0.0684  0.4181 -0.2455
 5663TIP3    H138404   3.431   1.262   4.140 -2.0221 -0.5029  0.2737
 5663TIP3    H238405   3.487   1.122   4.155  0.6227  0.4283 -0.5619
 5664TIP3   OH238406   1.304   4.355  10.662  0.5937 -0.7731 -0.1484
 5664TIP3    H138407   1.246   4.365  10.587  0.9766 -0.2537 -0.3761
 5664TIP3    H238408   1.379   4.411  10.643 -0.2180  0.9793  1.5084
 5665TIP3   OH238409   4.610   0.390   6.197 -0.0971 -0.4037  0.2063
 5665TIP3    H138410   4.589   0.475   6.236 -1.6905  0.1140 -1.6943
 5665TIP3    H238411   4.680   0.354   6.253  1.1461  2.4891  0.5820
 5666TIP3   OH238412   3.130   2.569  14.524  0.1920 -0.2783  0.0849
 5666TIP3    H138413   3.077   2.575  14.445 -1.0218  2.6912  1.0331
 5666TIP3    H238414   3.204   2.628  14.507  0.9318 -1.1135  0.4116
 5667TIP3   OH238415   2.750   1.876   5.535  0.1252  0.3586  0.0035
 5667TIP3    H138416   2.819   1.860   5.599  1.0348  1.1131 -0.7863
 5667TIP3    H238417   2.731   1.970   5.543 -1.3921  0.0065  0.7965
 5668TIP3   OH238418   0.076   4.796  16.495  0.2176  0.3416  0.6512
 5668TIP3    H138419  -0.016   4.798  16.467  0.1640  1.7954  0.8995
 5668TIP3    H238420   0.114   4.876  16.458  1.5347 -0.5357  0.0605
 5669TIP3   OH238421   4.280   6.228   4.284  1.1690  0.2359  0.7090
 5669TIP3    H138422   4.363   6.215   4.330  1.0462 -0.6811  0.6970
 5669TIP3    H238423   4.246   6.139   4.272  0.9365  0.5079 -0.6721
 5670TIP3   OH238424   1.819   1.768  11.117 -0.3099 -0.0561 -0.7819
 5670TIP3    H138425   1.778   1.827  11.181 -2.6621 -2.4868  0.0623
 5670TIP3    H238426   1.749   1.751  11.053  0.8791 -0.5665 -1.9554
 5671TIP3   OH238427   2.590   3.638   5.527 -0.2226  0.4885  0.2407
 5671TIP3    H138428   2.550   3.679   5.604 -1.3404  0.9868 -0.5877
 5671TIP3    H238429   2.518   3.589   5.486  0.2947  0.4509 -0.6229
 5672TIP3   OH238430   1.920   3.238   5.636  0.5526 -0.1707  0.3509
 5672TIP3    H138431   1.844   3.252   5.579  0.0513  1.4896  1.4009
 5672TIP3    H238432   1.923   3.143   5.649 -0.2411 -0.4229 -1.1759
 5673TIP3   OH238433   0.112   0.846   2.635 -0.0501  1.0090  0.6881
 5673TIP3    H138434   0.117   0.805   2.549  1.0180  3.6313 -0.5385
 5673TIP3    H238435   0.172   0.795   2.690  1.9708  1.4666 -1.0463
 5674TIP3   OH238436   6.245   6.346   4.382  0.2075 -0.0040  0.1173
 5674TIP3    H138437   6.189   6.341   4.460 -0.8327  1.6756 -0.4906
 5674TIP3    H238438   6.319   6.399   4.410 -2.2983  4.4489 -1.1784
 5675TIP3   OH238439   3.620   1.672   6.147  0.5275  0.1940 -0.1382
 5675TIP3    H138440   3.686   1.608   6.176  1.3261  1.5324  1.0809
 5675TIP3    H238441   3.554   1.670   6.216  0.3945  0.4375 -0.2603
 5676TIP3   OH238442   0.874   5.450   3.680  0.0253  0.1676  0.5225
 5676TIP3    H138443   0.822   5.374   3.704 -0.5364  0.5081  0.4054
 5676TIP3    H238444   0.814   5.504   3.627  0.8173  0.0855 -0.4587
 5677TIP3   OH238445   3.273   5.708   4.919 -0.3065  0.1895 -0.0424
 5677TIP3    H138446   3.352   5.748   4.883 -1.2150  0.2526 -2.0422
 5677TIP3    H238447   3.285   5.614   4.904 -0.6325  0.2071 -0.4363
 5678TIP3   OH238448   2.834   5.831   5.203  0.1185 -0.1307  0.2010
 5678TIP3    H138449   2.821   5.745   5.243  0.0447 -1.2009 -2.0478
 5678TIP3    H238450   2.921   5.827   5.163 -1.4177 -0.6305 -3.3440
 5679TIP3   OH238451   6.095   3.160  14.662  0.7231  0.0769  0.3760
 5679TIP3    H138452   6.118   3.120  14.746 -0.8549  0.7761  1.1828
 5679TIP3    H238453   5.999   3.159  14.661  0.7030  1.5453 -0.6891
 5680TIP3   OH238454   5.392   3.772   1.557  0.2359  0.2642 -0.5312
 5680TIP3    H138455   5.302   3.743   1.542  0.0944 -0.8053  2.1455
 5680TIP3    H238456   5.440   3.692   1.578  1.3355  1.0960  0.1477
 5681TIP3   OH238457   2.387   4.933  14.932  0.2622  0.3804  0.1151
 5681TIP3    H138458   2.397   5.027  14.946 -0.8210  0.4567  0.4286
 5681TIP3    H238459   2.320   4.926  14.864 -0.1843 -0.1870  0.6116
 5682TIP3   OH238460   3.076   5.363  12.960 -0.4123  0.5431  0.5364
 5682TIP3    H138461   3.060   5.304  13.034 -1.0233 -0.8973 -0.7207
 5682TIP3    H238462   3.011   5.433  12.971  0.5862  1.2353  2.2589
 5683TIP3   OH238463   3.770   0.877   2.142  0.0625  0.8077 -0.3521
 5683TIP3    H138464   3.702   0.943   2.126 -1.5130 -0.7758 -0.2936
 5683TIP3    H238465   3.811   0.863   2.056  0.2045  1.6208 -0.4218
 5684TIP3   OH238466   2.785   3.917   0.848 -0.8277 -0.0514 -0.0324
 5684TIP3    H138467   2.776   3.936   0.942 -0.7834 -2.4010  0.4705
 5684TIP3    H238468   2.875   3.945   0.827 -1.1768  1.4321  0.3617
 5685TIP3   OH238469   6.685   6.341   0.752  0.2871 -0.8488 -0.2855
 5685TIP3    H138470   6.771   6.333   0.794 -0.2468 -1.5761  0.6755
 5685TIP3    H238471   6.693   6.287   0.673  1.3840  0.7520 -1.2864
 5686TIP3   OH238472   2.240   6.757   0.788 -0.3480  0.3034  0.3283
 5686TIP3    H138473   2.282   6.843   0.789 -0.9938  0.6528 -1.2229
 5686TIP3    H238474   2.166   6.767   0.728  0.5545 -1.8013 -1.2077
 5687TIP3   OH238475   2.986   4.469   0.065 -0.3873  0.4236  0.1607
 5687TIP3    H138476   3.019   4.512  -0.014 -0.3040  0.2723  0.1128
 5687TIP3    H238477   2.891   4.467   0.053 -0.4150  0.8530  0.2961
 5688TIP3   OH238478   4.380   3.447   5.919 -0.4692 -0.1351  0.2269
 5688TIP3    H138479   4.318   3.400   5.975 -1.8143  0.3791 -0.7906
 5688TIP3    H238480   4.413   3.518   5.974 -1.4784  0.1332  0.4974
 5689TIP3   OH238481   1.662   5.447  15.927  0.2986 -0.0840  0.5557
 5689TIP3    H138482   1.718   5.395  15.985 -0.7021 -2.6834 -0.7042
 5689TIP3    H238483   1.673   5.407  15.841 -1.8265  0.7337 -0.1220
 5690TIP3   OH238484   0.368   3.571   0.847  0.4072 -0.1864 -0.2523
 5690TIP3    H138485   0.452   3.550   0.888  0.1409  0.1860  0.4940
 5690TIP3    H238486   0.310   3.590   0.921  0.0086  0.8160 -0.8245
 5691TIP3   OH238487   5.138   1.585  14.653  0.0691 -0.3912  0.4890
 5691TIP3    H138488   5.116   1.652  14.587 -0.1876 -0.1722  0.7952
 5691TIP3    H238489   5.197   1.630  14.714 -0.3305 -0.3614  0.8541
 5692TIP3   OH238490   2.391   4.136  12.058 -0.1571  0.3469  0.1164
 5692TIP3    H138491   2.444   4.209  12.090  1.2749 -1.1712  1.3202
 5692TIP3    H238492   2.301   4.169  12.059  0.3587  1.7523  1.6228
 5693TIP3   OH238493   3.929   1.225   5.389  0.3476 -0.4558 -0.1232
 5693TIP3    H138494   3.883   1.198   5.309  0.8615 -1.2549 -0.1571
 5693TIP3    H238495   3.862   1.216   5.458 -1.2023  3.7659 -0.9536
 5694TIP3   OH238496   4.365   0.586   0.613  0.2856 -0.0576 -0.1861
 5694TIP3    H138497   4.413   0.606   0.694 -0.1473  0.7052 -0.1141
 5694TIP3    H238498   4.379   0.663   0.557  0.8326 -0.7099 -0.9648
 5695TIP3   OH238499   0.143   3.458   2.298  0.6040 -0.1453  0.1903
 5695TIP3    H138500   0.113   3.368   2.286  1.5792 -0.3952 -0.4668
 5695TIP3    H238501   0.222   3.451   2.351 -0.8301  0.5609  2.4982
 5696TIP3   OH238502   4.277   4.610  14.589  0.0121 -0.0505  0.3629
 5696TIP3    H138503   4.269   4.580  14.680  3.3916 -0.7506  0.4978
 5696TIP3    H238504   4.315   4.698  14.596  2.4877 -1.0172 -0.3793
 5697TIP3   OH238505   4.132   4.676   6.337  0.2058  0.0263 -0.1445
 5697TIP3    H138506   4.066   4.608   6.347 -0.8324  0.8343 -1.2949
 5697TIP3    H238507   4.195   4.659   6.407  0.0937 -2.2442 -0.5724
 5698TIP3   OH238508   6.192   6.141   0.683 -0.5465 -0.2036 -0.3835
 5698TIP3    H138509   6.187   6.081   0.609  0.3768  1.9853 -2.2906
 5698TIP3    H238510   6.284   6.139   0.710 -0.7537 -0.5265  0.3004
 5699TIP3   OH238511   1.547   4.447   1.372 -0.2347 -0.4185 -0.3009
 5699TIP3    H138512   1.541   4.354   1.350  0.5203 -0.3093 -1.0195
 5699TIP3    H238513   1.503   4.455   1.456  0.7586 -1.6499  0.3593
 5700TIP3   OH238514   1.705   5.413  13.587  0.4040 -0.2845  0.4378
 5700TIP3    H138515   1.796   5.411  13.556  0.3061 -0.5845  0.1706
 5700TIP3    H238516   1.672   5.498  13.557  0.6322 -0.1206  0.6433
 5701TIP3   OH238517   3.019   1.536   1.172  0.0742 -0.9892 -0.6076
 5701TIP3    H138518   2.964   1.604   1.132  0.2510 -0.1108  0.6461
 5701TIP3    H238519   3.107   1.553   1.139  0.0679 -0.7961 -0.5215
 5702TIP3   OH238520   3.934   5.952  14.025  0.0701  0.0913 -0.3137
 5702TIP3    H138521   3.858   5.995  14.064  0.0694  0.6359 -0.9158
 5702TIP3    H238522   3.903   5.920  13.940  0.5558  0.4446 -0.6232
 5703TIP3   OH238523   3.241   1.945  16.565 -0.4349  0.4479 -0.8643
 5703TIP3    H138524   3.334   1.965  16.576  0.0045 -1.4687 -0.9654
 5703TIP3    H238525   3.208   1.938  16.655  0.5229 -3.2369 -0.7110
 5704TIP3   OH238526   5.438   1.453   5.330  0.5167  0.0138 -0.2100
 5704TIP3    H138527   5.416   1.533   5.378 -1.1302  0.1703 -1.1656
 5704TIP3    H238528   5.525   1.469   5.294  0.1306  1.4465 -0.5279
 5705TIP3   OH238529   0.290   0.527   3.142  0.1318 -0.1217 -0.0409
 5705TIP3    H138530   0.197   0.544   3.130 -0.1723 -1.6944 -0.0629
 5705TIP3    H238531   0.293   0.450   3.199  1.4026 -0.1581 -0.1435
 5706TIP3   OH238532   2.449   5.155  16.547 -0.4047  0.1718  0.3444
 5706TIP3    H138533   2.404   5.206  16.480  0.1062  0.1655 -0.0042
 5706TIP3    H238534   2.441   5.064  16.519  0.3959  0.2213 -0.0720
 5707TIP3   OH238535   2.563   1.722   0.485 -0.0530  1.3330  0.7689
 5707TIP3    H138536   2.503   1.790   0.515 -0.4845  1.2974 -0.0040
 5707TIP3    H238537   2.595   1.681   0.565 -0.7780  1.5962  1.1956
 5708TIP3   OH238538   4.194   5.741  15.425  0.0011  0.0233  0.2521
 5708TIP3    H138539   4.236   5.710  15.345 -1.3892  0.4215 -0.6668
 5708TIP3    H238540   4.216   5.834  15.429  0.4324 -0.0937  0.5656
 5709TIP3   OH238541   1.508   3.133  15.185 -0.0332  0.2094  0.6403
 5709TIP3    H138542   1.463   3.218  15.191 -0.1268  0.1028  1.5169
 5709TIP3    H238543   1.498   3.095  15.272  1.0963 -0.1527  0.6122
 5710TIP3   OH238544   1.957   2.747   4.858 -0.1716  0.4636 -0.0110
 5710TIP3    H138545   1.962   2.801   4.780 -0.0759  1.7811  0.9030
 5710TIP3    H238546   1.924   2.662   4.827 -0.1125  0.9766 -1.4666
 5711TIP3   OH238547   5.569   3.098   5.690  1.0441 -0.2500 -0.0761
 5711TIP3    H138548   5.528   3.014   5.712  1.3644 -0.3158  0.2667
 5711TIP3    H238549   5.662   3.085   5.709  0.7852  0.9070  2.1393
 5712TIP3   OH238550   2.501   4.034   5.957 -0.1299 -0.4183 -0.1598
 5712TIP3    H138551   2.441   3.997   5.892  3.3824 -2.1381 -2.5517
 5712TIP3    H238552   2.544   4.107   5.911 -0.2794  0.7344  1.4933
 5713TIP3   OH238553   5.202   1.155   5.362  0.1691 -0.0150  0.2291
 5713TIP3    H138554   5.127   1.186   5.412  0.5364  0.2052  0.6413
 5713TIP3    H238555   5.189   1.060   5.355 -0.3697  0.0821 -0.0693
 5714TIP3   OH238556   5.898   2.951  13.390 -0.2916 -0.2104 -0.4613
 5714TIP3    H138557   5.876   2.859  13.378 -0.5245 -0.4068  1.2476
 5714TIP3    H238558   5.994   2.953  13.392 -0.3017 -0.7402  1.6041
 5715TIP3   OH238559   2.470   2.881  14.658 -0.6119  0.3766 -0.0691
 5715TIP3    H138560   2.470   2.976  14.666  0.7629  0.4910 -1.2794
 5715TIP3    H238561   2.386   2.860  14.618  0.0851  1.2886 -2.0456
 5716TIP3   OH238562   3.740   5.414  12.406  0.1095  0.7909  0.0284
 5716TIP3    H138563   3.817   5.438  12.457  0.3337  0.8933 -0.3518
 5716TIP3    H238564   3.681   5.372  12.469  0.4299  0.8084  0.3432
 5717TIP3   OH238565   4.827   5.882  11.048  0.6495  0.2492 -0.6355
 5717TIP3    H138566   4.877   5.803  11.067  0.7766  0.4771 -0.0309
 5717TIP3    H238567   4.760   5.853  10.986  0.3896 -0.4390 -0.0391
 5718TIP3   OH238568   5.844   1.728  16.722 -0.0542  0.5345 -0.1203
 5718TIP3    H138569   5.890   1.807  16.749 -0.0053 -0.1519  1.9442
 5718TIP3    H238570   5.908   1.658  16.735 -0.7508 -0.0815  0.0327
 5719TIP3   OH238571   5.955   0.024   5.000 -0.0181  0.5454 -0.8012
 5719TIP3    H138572   6.017   0.095   5.018  2.0417 -0.8284 -2.2035
 5719TIP3    H238573   5.999  -0.055   5.030 -1.7002 -0.3102 -0.5245
 5720TIP3   OH238574   0.413   5.086   4.885 -0.4495 -0.2985  0.5195
 5720TIP3    H138575   0.371   5.105   4.801 -0.2894 -0.2785  0.4441
 5720TIP3    H238576   0.488   5.144   4.888  1.7506 -2.9352 -1.0423
 5721TIP3   OH238577   2.481   3.155   5.510  0.4950  0.1807  0.0181
 5721TIP3    H138578   2.524   3.157   5.596  1.2088 -1.4674 -0.2720
 5721TIP3    H238579   2.407   3.095   5.522  0.3214  0.3109 -0.3965
 5722TIP3   OH238580   3.414   5.730  13.817  0.2625 -1.0133 -0.6163
 5722TIP3    H138581   3.477   5.802  13.809  0.2897 -0.9559  0.0865
 5722TIP3    H238582   3.373   5.724  13.731 -1.4433  1.3833 -0.0176
 5723TIP3   OH238583   6.600   3.135  16.599 -0.0426  0.1123  0.6440
 5723TIP3    H138584   6.681   3.158  16.644 -1.0412  0.3217  2.3807
 5723TIP3    H238585   6.537   3.120  16.670 -1.7621  0.8815 -0.6986
 5724TIP3   OH238586   2.438   5.464  12.938  0.1364 -0.1214  0.0483
 5724TIP3    H138587   2.481   5.399  12.881  4.4951  0.7092  2.1257
 5724TIP3    H238588   2.459   5.548  12.897 -2.7716  0.2077 -0.8824
 5725TIP3   OH238589   4.514   6.068  12.347 -0.0244 -0.4298 -0.1240
 5725TIP3    H138590   4.566   5.988  12.334 -0.8863 -1.4481  2.3723
 5725TIP3    H238591   4.432   6.051  12.301 -0.8148 -1.6564  1.6757
 5726TIP3   OH238592   2.940   3.752   3.573  0.1511 -0.3915 -0.4078
 5726TIP3    H138593   2.851   3.781   3.592 -0.2540 -2.0501  0.3211
 5726TIP3    H238594   2.929   3.666   3.531  1.3774 -0.3717 -0.7867
 5727TIP3   OH238595   1.505   5.957  14.975 -0.7887  0.3587  0.2990
 5727TIP3    H138596   1.475   5.869  14.954 -0.0047  0.3742 -0.9134
 5727TIP3    H238597   1.526   5.953  15.068 -1.6007 -0.4837  0.4581
 5728TIP3   OH238598   3.847   6.685   2.825  0.8558 -0.0076  0.5805
 5728TIP3    H138599   3.897   6.635   2.891  1.0612 -2.3600 -1.2861
 5728TIP3    H238600   3.756   6.669   2.848  0.9210 -1.1556  0.0800
 5729TIP3   OH238601   5.627   1.235   0.256  0.3135  0.3480 -0.1382
 5729TIP3    H138602   5.647   1.142   0.245  0.9902  0.6582 -1.6374
 5729TIP3    H238603   5.710   1.280   0.240 -0.3967  1.3144 -1.1905
 5730TIP3   OH238604   0.256   6.737   5.216 -0.1786  0.2409 -0.0706
 5730TIP3    H138605   0.325   6.690   5.262 -1.1352 -0.8541  0.2738
 5730TIP3    H238606   0.182   6.676   5.215 -1.1458  1.4044 -0.4164
 5731TIP3   OH238607   4.896   5.309   4.068  0.1885  0.6173  0.7356
 5731TIP3    H138608   4.818   5.319   4.123 -1.0985  0.9908 -1.1040
 5731TIP3    H238609   4.902   5.215   4.052  0.8376  0.4576  1.8786
 5732TIP3   OH238610   1.678   5.460  12.806 -0.3709  0.1285 -0.2954
 5732TIP3    H138611   1.768   5.431  12.790 -0.4973 -0.4036 -0.0611
 5732TIP3    H238612   1.662   5.440  12.898 -0.5413  0.7471 -0.1850
 5733TIP3   OH238613   5.785   2.700   3.150 -0.1432  0.0527 -0.2191
 5733TIP3    H138614   5.812   2.609   3.160 -1.3151 -0.4082 -1.1097
 5733TIP3    H238615   5.724   2.699   3.075  0.4885  1.6928 -0.7817
 5734TIP3   OH238616   2.372   6.239  12.552 -0.4558 -0.0081 -0.6398
 5734TIP3    H138617   2.282   6.237  12.583 -0.7323 -0.4441 -1.4647
 5734TIP3    H238618   2.380   6.324  12.507  0.4396  1.3988  2.0432
 5735TIP3   OH238619   1.996   2.635   6.451 -0.4742 -0.3997 -0.1537
 5735TIP3    H138620   2.031   2.559   6.497  0.6567  0.3405  0.2454
 5735TIP3    H238621   1.918   2.659   6.501 -1.0190 -1.4968 -0.4826
 5736TIP3   OH238622   0.910   4.724   3.780  0.3349  0.3375  0.0109
 5736TIP3    H138623   0.952   4.733   3.695  1.0166 -1.8222  0.0789
 5736TIP3    H238624   0.891   4.630   3.788  0.6128  0.4365  2.3622
 5737TIP3   OH238625   5.291   0.031   4.418 -0.3199  0.2426  0.4951
 5737TIP3    H138626   5.264   0.001   4.505 -1.9586 -1.8444 -0.6879
 5737TIP3    H238627   5.358  -0.032   4.391  1.8494  2.2043  1.1300
 5738TIP3   OH238628   1.955   3.935  12.517 -0.2367  0.0067  0.2549
 5738TIP3    H138629   1.915   3.850  12.534  0.5375 -0.0924  1.6724
 5738TIP3    H238630   2.048   3.917  12.505 -0.3306  0.4456 -1.2925
 5739TIP3   OH238631   2.160   5.022   2.007 -0.2158 -0.2640  0.1479
 5739TIP3    H138632   2.157   4.976   2.091  0.9414  2.2802  1.6822
 5739TIP3    H238633   2.240   5.075   2.013 -2.7455  3.8192 -0.4262
 5740TIP3   OH238634   6.619   3.351   2.416 -0.3316  0.1498  0.5611
 5740TIP3    H138635   6.627   3.264   2.377 -0.3562 -0.3761  1.6984
 5740TIP3    H238636   6.528   3.355   2.446 -0.1213  0.2688  1.1928
 5741TIP3   OH238637   3.716   6.517   6.093 -0.5316 -0.3131  0.0284
 5741TIP3    H138638   3.772   6.478   6.160 -1.5119  0.0988  1.1069
 5741TIP3    H238639   3.629   6.480   6.111 -1.1118  0.9912 -0.0500
 5742TIP3   OH238640   5.796   3.182  15.566  0.1305  0.0135  0.4300
 5742TIP3    H138641   5.787   3.179  15.471  1.1051  3.1506  0.1691
 5742TIP3    H238642   5.706   3.189  15.598 -0.1482 -0.0049 -0.3373
 5743TIP3   OH238643   1.586   4.930   2.264  0.0323 -0.3865 -0.4932
 5743TIP3    H138644   1.543   4.980   2.334  0.8427 -0.3083 -0.0455
 5743TIP3    H238645   1.625   4.855   2.309  2.9278  1.1252 -0.4163
 5744TIP3   OH238646   4.512   4.750   4.405  0.0260 -0.2917  0.1243
 5744TIP3    H138647   4.592   4.735   4.456  0.3099 -1.6036 -0.6760
 5744TIP3    H238648   4.447   4.694   4.447 -0.5171  0.8848  0.8615
 5745TIP3   OH238649   1.559   4.869   5.458 -0.7979 -0.6868  0.6405
 5745TIP3    H138650   1.647   4.891   5.487  0.7120 -3.1965 -1.7288
 5745TIP3    H238651   1.504   4.941   5.488  2.5868  2.5090 -0.5045
 5746TIP3   OH238652   4.186   2.678   5.026 -0.7954 -0.4080 -0.3706
 5746TIP3    H138653   4.215   2.697   5.115 -0.8262 -0.6583 -0.3075
 5746TIP3    H238654   4.185   2.582   5.021  2.5146 -0.4475 -1.6787
 5747TIP3   OH238655   2.392   2.704   3.002 -0.1683  0.4283 -0.2800
 5747TIP3    H138656   2.390   2.768   2.932  0.3214  0.1516 -0.5524
 5747TIP3    H238657   2.332   2.634   2.974  0.9601 -0.2720 -1.0095
 5748TIP3   OH238658   5.977   6.054   4.806  0.2634  0.1195  0.4079
 5748TIP3    H138659   5.895   6.082   4.766  0.4806  1.8166  1.1064
 5748TIP3    H238660   5.954   6.034   4.896  0.7314  1.3180  0.8091
 5749TIP3   OH238661   0.638   5.855   1.362 -0.1288  0.0930  0.5479
 5749TIP3    H138662   0.569   5.808   1.315 -1.0551 -0.7209  2.6533
 5749TIP3    H238663   0.654   5.802   1.440  4.5108 -0.9950 -0.9445
 5750TIP3   OH238664   3.884   2.952   5.177  0.2414  0.1934 -0.4757
 5750TIP3    H138665   3.814   2.889   5.191  0.0322  0.8573  1.5984
 5750TIP3    H238666   3.950   2.930   5.242  1.9884 -0.4056 -2.3742
 5751TIP3   OH238667   1.658   0.142   1.350 -0.3048 -0.6642  0.4831
 5751TIP3    H138668   1.696   0.225   1.322 -0.9248 -1.0413 -1.4955
 5751TIP3    H238669   1.576   0.166   1.393  0.6169 -0.0950  1.9551
 5752TIP3   OH238670   3.389   6.077   1.229 -0.4808 -0.2975 -0.3967
 5752TIP3    H138671   3.372   6.070   1.323  0.5594 -1.6952 -0.2881
 5752TIP3    H238672   3.313   6.122   1.194 -0.7735  0.4428  1.1515
 5753TIP3   OH238673   2.039   3.499   1.352 -0.0756 -0.9512 -0.0009
 5753TIP3    H138674   1.990   3.450   1.286  1.5327 -2.6796  0.0567
 5753TIP3    H238675   1.996   3.478   1.435  0.4967 -2.1573  0.0018
 5754TIP3   OH238676   0.472   2.113  15.168 -0.2566 -0.0734  0.1711
 5754TIP3    H138677   0.559   2.142  15.142  0.4178 -1.3803  0.9178
 5754TIP3    H238678   0.476   2.018  15.163 -1.8600 -0.1084 -0.4604
 5755TIP3   OH238679   3.045   3.106   5.412 -0.2560 -0.0280  0.1345
 5755TIP3    H138680   2.951   3.089   5.417 -0.1583 -0.5811  0.0566
 5755TIP3    H238681   3.056   3.190   5.457 -0.6069 -0.6382  1.4051
 5756TIP3   OH238682   4.527   5.347  13.261 -0.4846  0.3638  0.3194
 5756TIP3    H138683   4.510   5.403  13.336  1.6634  0.6649  0.6207
 5756TIP3    H238684   4.534   5.259  13.297  1.8889  0.6837  0.6937
 5757TIP3   OH238685   2.284   1.594   0.599 -0.5208 -0.2984  0.4344
 5757TIP3    H138686   2.354   1.643   0.643 -0.2837 -0.5906  0.3811
 5757TIP3    H238687   2.321   1.507   0.584 -0.5893 -0.1899 -0.3754
 5758TIP3   OH238688   1.090   3.325   3.655  0.1563  0.5550  0.0201
 5758TIP3    H138689   1.066   3.331   3.562 -0.2239 -0.3537  0.0531
 5758TIP3    H238690   1.179   3.358   3.659  0.5420 -0.3551 -0.8320
 5759TIP3   OH238691   1.165   2.244  11.274 -0.0595 -0.0023  0.1754
 5759TIP3    H138692   1.220   2.263  11.350 -0.8078  1.3196  0.3967
 5759TIP3    H238693   1.155   2.328  11.230  0.0386 -0.6853 -1.1824
 5760TIP3   OH238694   6.628   1.499  13.543 -0.3766  0.3735 -0.4297
 5760TIP3    H138695   6.700   1.452  13.583 -0.2487  0.5755 -0.4194
 5760TIP3    H238696   6.623   1.465  13.454 -0.3529  0.2663 -0.3902
 5761TIP3   OH238697   2.341   4.440   6.303  0.0870 -0.6031 -0.3396
 5761TIP3    H138698   2.360   4.534   6.303 -1.8276 -0.1985 -0.9156
 5761TIP3    H238699   2.279   4.428   6.375  1.7576 -1.7475  0.9361
 5762TIP3   OH238700   2.557   1.787  15.735  0.2957 -0.0049  0.4223
 5762TIP3    H138701   2.607   1.831  15.666  0.6961  0.4469  1.0006
 5762TIP3    H238702   2.618   1.724  15.773  0.3637  0.4112  0.9996
 5763TIP3   OH238703   3.439   3.717  12.347 -0.1738  0.4337  0.6211
 5763TIP3    H138704   3.355   3.672  12.341  0.1517 -0.1100  0.1756
 5763TIP3    H238705   3.416   3.810  12.348 -0.6034  0.4205 -2.7650
 5764TIP3   OH238706   4.692   2.715   3.346 -0.3623  0.0834  0.3320
 5764TIP3    H138707   4.611   2.666   3.355  0.3757 -1.0962  0.7297
 5764TIP3    H238708   4.739   2.670   3.275 -0.0083  0.6714  0.1948
 5765TIP3   OH238709   2.121   6.512   2.690  0.0813  0.0675  0.1972
 5765TIP3    H138710   2.073   6.435   2.720 -1.3825  0.4195 -1.1273
 5765TIP3    H238711   2.189   6.477   2.632 -0.6354 -0.2303 -0.4736
 5766TIP3   OH238712   4.262   5.239  16.791  0.9372 -0.6572 -0.3620
 5766TIP3    H138713   4.319   5.229  16.714  1.0693  0.0488 -0.3619
 5766TIP3    H238714   4.223   5.153  16.804  1.1834 -0.8684 -1.0159
 5767TIP3   OH238715   2.382   4.251  11.330 -0.2017  0.0756 -0.0844
 5767TIP3    H138716   2.408   4.328  11.281 -0.9571 -0.1857 -0.9084
 5767TIP3    H238717   2.464   4.208  11.354  0.2290  1.2676  0.6019
 5768TIP3   OH238718   2.940   5.846   0.680 -0.3016 -0.4314  0.3137
 5768TIP3    H138719   2.888   5.927   0.685 -0.7149 -0.6364 -0.6515
 5768TIP3    H238720   2.875   5.777   0.668  0.1445 -0.7673 -0.1746
 5769TIP3   OH238721   2.591   1.415  11.960 -0.3434 -0.4384 -0.0309
 5769TIP3    H138722   2.670   1.404  12.013 -0.9219 -1.0275  0.7050
 5769TIP3    H238723   2.620   1.394  11.871  0.3259 -0.6737  0.2346
 5770TIP3   OH238724   1.750   0.154  14.578  0.1785  0.4028  0.7219
 5770TIP3    H138725   1.660   0.122  14.573  0.5911 -0.9875  2.0795
 5770TIP3    H238726   1.768   0.162  14.672  1.2280  1.3720  0.4460
 5771TIP3   OH238727   3.855   6.271  15.614  0.5255 -0.1639  0.0694
 5771TIP3    H138728   3.936   6.310  15.648  0.8328 -0.2419 -0.5803
 5771TIP3    H238729   3.881   6.224  15.535  0.1494 -1.6711  0.8214
 5772TIP3   OH238730   4.409   0.634  16.243  0.0864 -0.5462 -0.5173
 5772TIP3    H138731   4.500   0.608  16.256 -0.1037 -0.8013  0.2777
 5772TIP3    H238732   4.412   0.689  16.164  1.0324  0.0069 -0.1140
 5773TIP3   OH238733   5.088   3.271   0.570 -0.2338 -0.0540  0.1049
 5773TIP3    H138734   5.025   3.340   0.589 -0.2351 -0.3726  1.3195
 5773TIP3    H238735   5.045   3.190   0.597 -0.9053 -0.7596 -2.8889
 5774TIP3   OH238736   2.318   0.683   0.527  0.3072  0.0042  0.2383
 5774TIP3    H138737   2.231   0.665   0.493  1.4338  3.4859 -5.0591
 5774TIP3    H238738   2.311   0.769   0.567  1.5215  0.8723 -1.3589
 5775TIP3   OH238739   1.769   2.418   3.498 -0.4140 -0.5174 -0.6701
 5775TIP3    H138740   1.841   2.373   3.543  1.0077  1.1622 -1.2028
 5775TIP3    H238741   1.768   2.380   3.410 -2.4596 -2.9961  0.3643
 5776TIP3   OH238742   6.326   2.588   0.664  0.9808 -0.1866  0.3187
 5776TIP3    H138743   6.280   2.663   0.701  1.5241 -0.7503  2.1957
 5776TIP3    H238744   6.393   2.626   0.607 -1.4973  0.6420 -2.1826
 5777TIP3   OH238745   0.218   2.436  15.566  0.1865  0.2590  0.0594
 5777TIP3    H138746   0.235   2.446  15.659  0.3904 -2.5840  0.3822
 5777TIP3    H238747   0.305   2.440  15.525  0.1104  1.3662  0.0053
 5778TIP3   OH238748   5.296   1.502  13.790 -0.3207  0.5360 -0.0504
 5778TIP3    H138749   5.336   1.421  13.824 -0.7747  0.5379  0.5071
 5778TIP3    H238750   5.315   1.568  13.857  1.5444  1.3148 -1.3154
 5779TIP3   OH238751   0.382   4.735   2.576  0.3345 -0.1633 -0.0511
 5779TIP3    H138752   0.427   4.819   2.564 -1.7499  0.6487 -2.8514
 5779TIP3    H238753   0.299   4.759   2.617 -0.1642 -0.8506 -0.6501
 5780TIP3   OH238754   0.837   3.282  10.691  0.3508 -0.4299  0.0708
 5780TIP3    H138755   0.930   3.284  10.714  0.1783 -0.6245  0.8033
 5780TIP3    H238756   0.800   3.357  10.738 -0.4088 -2.1258  2.2205
 5781TIP3   OH238757   6.300   5.951   0.493  0.2161 -0.2936  0.0778
 5781TIP3    H138758   6.391   5.951   0.466  0.4532  0.0290  0.8568
 5781TIP3    H238759   6.255   6.004   0.427  0.7920  0.5189  0.3256
 5782TIP3   OH238760   0.292   0.209   6.273  0.1964  0.2610  0.2677
 5782TIP3    H138761   0.330   0.233   6.188 -0.5501  1.7777  0.3492
 5782TIP3    H238762   0.279   0.114   6.267 -1.1942  0.5478 -1.8671
 5783TIP3   OH238763   0.696   4.807   0.944 -0.0990  0.0343  0.0235
 5783TIP3    H138764   0.769   4.866   0.958 -0.7745  0.3859  2.2968
 5783TIP3    H238765   0.735   4.720   0.941  0.4310  0.2283  1.1718
 5784TIP3   OH238766   5.018   3.228  14.136 -0.1815 -0.2931  0.3729
 5784TIP3    H138767   5.081   3.162  14.106 -1.6732 -0.9099 -1.5380
 5784TIP3    H238768   5.051   3.256  14.221  1.2390 -2.5269  0.6061
 5785TIP3   OH238769   3.458   1.117   4.999  0.8290 -0.0182 -0.6109
 5785TIP3    H138770   3.362   1.115   4.999  0.7685 -4.2571  1.9881
 5785TIP3    H238771   3.483   1.052   4.934  1.9301  0.0492 -0.2560
 5786TIP3   OH238772   5.734   2.644  15.239  0.1675 -0.0261 -0.0212
 5786TIP3    H138773   5.714   2.733  15.270  1.2082 -0.4438  1.9433
 5786TIP3    H238774   5.829   2.642  15.231  0.1353 -0.8975 -0.2360
 5787TIP3   OH238775   2.601   5.575  12.626 -0.7659 -0.0043 -0.0027
 5787TIP3    H138776   2.580   5.587  12.719 -0.7530 -2.4341  0.3417
 5787TIP3    H238777   2.537   5.629  12.580 -1.3503  0.5209  1.3901
 5788TIP3   OH238778   4.653   0.442   2.942 -0.1932  0.2895  0.2590
 5788TIP3    H138779   4.582   0.403   2.993  0.2752 -1.4295 -0.3770
 5788TIP3    H238780   4.610   0.479   2.865 -0.6463  1.1011  0.8959
 5789TIP3   OH238781   0.618   2.254  16.983 -0.8053 -0.4131  0.2886
 5789TIP3    H138782   0.647   2.221  16.897 -1.3586  1.5041 -0.6574
 5789TIP3    H238783   0.663   2.198  17.046 -0.9197 -2.3173 -1.2440
 5790TIP3   OH238784   3.788   5.873   0.459  0.1565 -0.6061 -0.4910
 5790TIP3    H138785   3.804   5.912   0.373 -0.2225 -1.5537 -1.0053
 5790TIP3    H238786   3.875   5.852   0.493  0.3889  1.1240  0.0073
 5791TIP3   OH238787   3.337   1.754   0.118  0.3623  0.4296 -0.1391
 5791TIP3    H138788   3.329   1.693   0.045 -1.2934  0.8351 -0.3250
 5791TIP3    H238789   3.249   1.758   0.156  0.6145  2.1235  0.3335
 5792TIP3   OH238790   5.009   3.377  13.482 -0.1537 -0.4083  0.1320
 5792TIP3    H138791   5.072   3.305  13.488 -0.3775 -0.5925  0.2904
 5792TIP3    H238792   4.991   3.385  13.388 -0.0674 -0.5066  0.1067
 5793TIP3   OH238793   1.830   1.231  12.049 -0.9028 -0.1143 -0.0748
 5793TIP3    H138794   1.868   1.315  12.021  0.3504 -0.5570  0.2458
 5793TIP3    H238795   1.901   1.168  12.036 -1.1956 -0.7942  1.4834
 5794TIP3   OH238796   0.101   0.032   3.269 -0.4592 -0.3807 -0.2627
 5794TIP3    H138797   0.083   0.076   3.352  1.0791 -0.8472  0.3455
 5794TIP3    H238798   0.029  -0.030   3.258 -0.8230 -0.1065  0.5898
 5795TIP3   OH238799   3.027   5.673   3.991 -0.0819 -0.5991  0.2281
 5795TIP3    H138800   3.100   5.683   4.052  0.0335  1.3517 -0.2152
 5795TIP3    H238801   3.065   5.687   3.905 -0.5079 -2.0433 -0.2156
 5796TIP3   OH238802   1.081   4.945  12.575  0.3237 -0.3106  0.2477
 5796TIP3    H138803   1.172   4.943  12.546 -0.2078  0.9453 -1.6108
 5796TIP3    H238804   1.034   4.991  12.505 -1.6207 -0.3030  1.5039
 5797TIP3   OH238805   0.215   3.189   0.126  0.1462  0.3104  0.4861
 5797TIP3    H138806   0.166   3.258   0.171  0.4549  0.8532  0.0082
 5797TIP3    H238807   0.288   3.236   0.084 -0.2286 -0.1535 -0.7157
 5798TIP3   OH238808   5.414   1.332   0.915  0.1496 -0.4768  0.4402
 5798TIP3    H138809   5.358   1.347   0.991 -0.5386  0.6842 -0.2827
 5798TIP3    H238810   5.430   1.238   0.916 -2.9762 -1.0595 -0.1477
 5799TIP3   OH238811   1.962   6.078  16.355 -0.4937  0.3303 -0.0893
 5799TIP3    H138812   2.053   6.099  16.378 -0.4856  0.2588 -0.0596
 5799TIP3    H238813   1.910   6.145  16.400 -0.4516  0.4075 -0.1590
 5800TIP3   OH238814   3.201   0.518  12.290  0.5525 -0.0462 -0.2722
 5800TIP3    H138815   3.115   0.477  12.287 -0.7538  2.6319 -0.5257
 5800TIP3    H238816   3.212   0.544  12.382  1.6708 -1.4952  0.0321
 5801TIP3   OH238817   3.325   3.336   2.362  0.1533  0.1136 -0.0141
 5801TIP3    H138818   3.245   3.371   2.324 -0.3464 -1.2417 -0.2332
 5801TIP3    H238819   3.295   3.265   2.419  1.1322  0.1480  0.5573
 5802TIP3   OH238820   6.284   0.944   0.550 -0.2559 -0.0383  0.2778
 5802TIP3    H138821   6.250   0.886   0.618  0.5656  0.2623  0.9589
 5802TIP3    H238822   6.378   0.924   0.547 -0.1315  0.5993 -0.1230
 5803TIP3   OH238823   3.464   0.934   5.905  0.4096 -0.2444  0.5317
 5803TIP3    H138824   3.381   0.908   5.945 -0.9939  0.6057 -1.7355
 5803TIP3    H238825   3.480   0.867   5.839  0.9856  0.1747  0.2450
 5804TIP3   OH238826   0.100   2.361  11.976  0.4080 -0.3879 -0.2539
 5804TIP3    H138827   0.083   2.328  12.064  1.4177  0.7706  0.3814
 5804TIP3    H238828   0.017   2.402  11.950  0.7523  1.1254  0.9957
 5805TIP3   OH238829   5.021   3.253  12.377 -0.5695  0.0865  0.0943
 5805TIP3    H138830   5.043   3.229  12.287  1.3210  1.8201  0.0739
 5805TIP3    H238831   5.017   3.170  12.424  0.1024 -0.6951 -1.2157
 5806TIP3   OH238832   5.585   1.800  16.660  0.0900  0.0899  0.2204
 5806TIP3    H138833   5.674   1.765  16.661  0.2057  0.3140 -1.4208
 5806TIP3    H238834   5.595   1.891  16.634 -0.7094 -0.2226 -1.2662
 5807TIP3   OH238835   6.575   1.389  15.895  0.1744  0.2180  0.5625
 5807TIP3    H138836   6.612   1.428  15.974  1.1484 -1.2201  0.8286
 5807TIP3    H238837   6.600   1.297  15.899 -1.0411 -0.1915 -0.6763
 5808TIP3   OH238838   6.034   1.867  14.028 -0.1812  0.4332  0.4887
 5808TIP3    H138839   6.025   1.772  14.022  0.2703  0.4108  0.1325
 5808TIP3    H238840   5.949   1.897  14.061  0.0294 -0.1889  1.6533
 5809TIP3   OH238841   5.742   3.702  14.034  0.0114 -0.1238  0.9851
 5809TIP3    H138842   5.776   3.775  13.983 -0.9080  0.9523  1.8608
 5809TIP3    H238843   5.801   3.695  14.109  0.3633 -0.5646  0.6602
 5810TIP3   OH238844   1.081   2.999  16.213 -0.2314  0.0304 -0.0861
 5810TIP3    H138845   1.033   3.024  16.134 -0.0409  0.7118  0.0110
 5810TIP3    H238846   1.098   2.905  16.202  0.7112  0.3332 -1.3458
 5811TIP3   OH238847   4.099   3.674  11.304  0.0282  0.2822  0.9737
 5811TIP3    H138848   4.039   3.719  11.363 -1.0381 -0.0406  0.1575
 5811TIP3    H238849   4.048   3.602  11.268  0.4774  0.8013 -0.7646
 5812TIP3   OH238850   4.232   0.856   2.011 -0.3580  0.0517  0.2067
 5812TIP3    H138851   4.177   0.778   2.005  0.5130 -0.4733 -1.1797
 5812TIP3    H238852   4.245   0.869   2.105 -4.2881  1.2347  0.6655
 5813TIP3   OH238853   3.351   0.282  16.425 -0.9405 -0.0103 -0.0060
 5813TIP3    H138854   3.333   0.195  16.462  0.6309  0.0028  0.8694
 5813TIP3    H238855   3.405   0.264  16.348 -1.0753  0.1607 -0.1371
 5814TIP3   OH238856   1.334   5.950  10.855  0.6106  0.1587 -0.0563
 5814TIP3    H138857   1.328   5.854  10.847 -1.4006  0.3040 -0.5034
 5814TIP3    H238858   1.318   5.982  10.766  1.0033  0.9364  0.1504
 5815TIP3   OH238859   5.907   5.859  15.829  0.0546 -0.3823  0.1837
 5815TIP3    H138860   5.988   5.831  15.871 -1.0875  2.5601  4.7977
 5815TIP3    H238861   5.838   5.819  15.881 -1.4354  3.3670  1.2783
 5816TIP3   OH238862   1.951   5.149   0.724 -0.5577 -0.3162  0.1427
 5816TIP3    H138863   1.867   5.137   0.768  0.2740 -1.0614  1.5396
 5816TIP3    H238864   2.016   5.112   0.784  1.2048  3.5046  0.7424
 5817TIP3   OH238865   1.274   0.626   3.776 -0.1509  0.2237 -0.8189
 5817TIP3    H138866   1.243   0.537   3.760 -2.0086  0.9611 -1.4691
 5817TIP3    H238867   1.266   0.637   3.871  0.5518 -0.4436 -0.6696
 5818TIP3   OH238868   1.189   2.113   4.301  0.0232  0.1203 -0.6571
 5818TIP3    H138869   1.204   2.096   4.394  1.3976  0.0270 -0.8800
 5818TIP3    H238870   1.161   2.204   4.298 -0.5696 -0.0421 -0.0934
 5819TIP3   OH238871   0.529   1.373   4.709  0.3961  0.2267 -0.3841
 5819TIP3    H138872   0.624   1.383   4.716  0.6737 -3.4448  2.4878
 5819TIP3    H238873   0.512   1.283   4.736 -3.7713  0.1941 -2.6805
 5820TIP3   OH238874   2.511   1.194  11.081 -0.3279 -0.0272 -0.8148
 5820TIP3    H138875   2.416   1.185  11.070 -0.2724 -0.7435 -0.7095
 5820TIP3    H238876   2.538   1.114  11.126  0.5590 -0.5929 -2.3113
 5821TIP3   OH238877   6.357   2.623  13.011 -0.4060  0.1731  0.2255
 5821TIP3    H138878   6.340   2.622  13.105  2.4160 -0.3410  0.7479
 5821TIP3    H238879   6.381   2.714  12.992  0.5435 -0.0585  0.2953
 5822TIP3   OH238880   2.876   2.741   5.931 -0.2745  0.5310  0.4564
 5822TIP3    H138881   2.921   2.811   5.883  1.2801 -1.4905 -1.1468
 5822TIP3    H238882   2.937   2.668   5.929 -1.5444 -0.6527  2.7938
 5823TIP3   OH238883   5.558   5.428   0.994 -0.1538 -0.8764 -0.2524
 5823TIP3    H138884   5.502   5.351   0.992 -1.1108 -0.1988 -0.0437
 5823TIP3    H238885   5.502   5.498   1.028 -0.0892  0.5279 -2.9015
 5824TIP3   OH238886   6.751   0.274  13.528 -0.4632  0.0308 -0.4379
 5824TIP3    H138887   6.674   0.329  13.543 -0.8122  0.0678 -2.3336
 5824TIP3    H238888   6.813   0.329  13.481 -0.6725 -1.0509 -2.0281
 5825TIP3   OH238889   4.895   5.491   0.748  0.7378 -0.2583  0.0268
 5825TIP3    H138890   4.808   5.529   0.733  0.5577 -0.7466 -0.1752
 5825TIP3    H238891   4.953   5.567   0.755  0.0383  0.1370  1.8294
 5826TIP3   OH238892   4.740   3.326  15.207  0.0528  0.4178 -0.1424
 5826TIP3    H138893   4.702   3.394  15.262  1.0557 -0.2572  1.4495
 5826TIP3    H238894   4.670   3.261  15.198  0.9941 -1.2706  3.5490
 5827TIP3   OH238895   3.038   2.121   1.885 -0.3467  0.1342 -0.3044
 5827TIP3    H138896   3.068   2.205   1.918 -0.5244 -1.3973  4.1058
 5827TIP3    H238897   2.945   2.134   1.867 -0.6633  0.6244  1.5328
 5828TIP3   OH238898   3.904   2.210   1.274  0.4156 -0.3140  0.0562
 5828TIP3    H138899   3.844   2.139   1.249  1.0754 -0.8732  0.0193
 5828TIP3    H238900   3.860   2.290   1.246 -1.1386 -0.5818  1.6753
 5829TIP3   OH238901   0.138   5.343   0.137 -0.4864 -0.0154 -0.9027
 5829TIP3    H138902   0.110   5.430   0.110  0.4402  0.8242  0.7854
 5829TIP3    H238903   0.062   5.306   0.181 -0.2790  0.7000  0.0838
 5830TIP3   OH238904   2.098   0.492  13.644 -0.3331  0.1742  0.6525
 5830TIP3    H138905   2.188   0.468  13.623 -0.2422  0.0797  1.1458
 5830TIP3    H238906   2.046   0.455  13.572 -0.1384 -1.0573  1.1230
 5831TIP3   OH238907   3.333   1.292   3.130  0.1403  0.2135 -0.3262
 5831TIP3    H138908   3.296   1.271   3.216  1.1375 -1.3975 -0.2621
 5831TIP3    H238909   3.428   1.289   3.143  0.3009  1.7396 -1.0731
 5832TIP3   OH238910   2.848   0.205  15.223 -0.0374  1.1291  0.3223
 5832TIP3    H138911   2.789   0.136  15.194  0.9130  0.0014  1.0513
 5832TIP3    H238912   2.790   0.271  15.262 -0.8888  0.4439  0.2167
 5833TIP3   OH238913   0.186   2.447  12.918 -0.4585 -0.0698 -0.2394
 5833TIP3    H138914   0.231   2.466  12.836  0.1028  0.1073  0.1127
 5833TIP3    H238915   0.233   2.373  12.955  0.4734  1.0544  0.8527
 5834TIP3   OH238916   3.444   2.179   5.069  0.7168  0.2386  0.0879
 5834TIP3    H138917   3.494   2.254   5.101  1.2188  0.3731 -0.9790
 5834TIP3    H238918   3.424   2.128   5.148  0.6665  1.3074  0.7745
 5835TIP3   OH238919   0.787   6.332   0.007 -0.0995 -0.1715  0.3278
 5835TIP3    H138920   0.753   6.374   0.085  1.4714 -1.5941  1.8165
 5835TIP3    H238921   0.821   6.248   0.037 -1.0796 -1.5250 -2.1797
 5836TIP3   OH238922   0.209   1.694  11.773  0.1663  0.2286 -0.4056
 5836TIP3    H138923   0.204   1.624  11.708 -1.2806 -0.4808  0.4170
 5836TIP3    H238924   0.201   1.775  11.723 -1.8101 -0.3375 -1.0775
 5837TIP3   OH238925   1.002   1.132   2.450 -0.1356  0.4032 -1.1782
 5837TIP3    H138926   1.029   1.052   2.496  1.1530  1.7227  0.4435
 5837TIP3    H238927   1.078   1.156   2.398 -0.3628  0.8060 -1.3205
 5838TIP3   OH238928   2.506   1.619   3.620  0.0389 -0.1582 -0.1409
 5838TIP3    H138929   2.550   1.696   3.585  1.2612 -0.8201 -0.0939
 5838TIP3    H238930   2.572   1.578   3.677 -0.9990 -0.5796  0.7674
 5839TIP3   OH238931   2.687   6.040   5.296  0.1665 -0.1406 -0.3444
 5839TIP3    H138932   2.663   6.093   5.221 -1.6283  0.9130  0.9320
 5839TIP3    H238933   2.737   5.967   5.259  1.5743  1.7300 -2.2490
 5840TIP3   OH238934   4.583   1.302   5.086  0.2754  0.2711  0.0304
 5840TIP3    H138935   4.673   1.285   5.115  0.1875 -0.5960 -0.1887
 5840TIP3    H238936   4.539   1.217   5.093 -0.9918  1.0350  1.7395
 5841TIP3   OH238937   1.169   0.278  14.305 -0.0716  0.1505 -0.4885
 5841TIP3    H138938   1.200   0.349  14.361  2.1926  0.9898 -2.7104
 5841TIP3    H238939   1.109   0.320  14.244  0.1819 -0.1066 -0.9146
 5842TIP3   OH238940   6.269   6.077   3.193  0.2155 -0.3584 -0.1785
 5842TIP3    H138941   6.242   5.994   3.153 -0.0870 -0.2901 -0.1175
 5842TIP3    H238942   6.197   6.137   3.175  0.5587 -0.0277 -0.4682
 5843TIP3   OH238943   6.388   0.647  13.687 -0.6432  0.1810 -0.5092
 5843TIP3    H138944   6.323   0.583  13.714 -2.4700  1.6899 -1.2762
 5843TIP3    H238945   6.423   0.612  13.605  0.2154 -1.0898  0.3722
 5844TIP3   OH238946   3.026   6.686   4.122 -0.3026 -0.2544  0.0916
 5844TIP3    H138947   3.004   6.595   4.142  0.5615 -0.1896  1.4255
 5844TIP3    H238948   3.122   6.686   4.117 -0.3779  0.1858 -1.9378
 5845TIP3   OH238949   4.682   4.983   2.015  0.3313  0.2524  0.4010
 5845TIP3    H138950   4.665   4.889   2.005 -0.1816  0.0447  3.0087
 5845TIP3    H238951   4.597   5.024   2.006  0.4242  0.4042  0.2055
 5846TIP3   OH238952   2.890   4.868  16.194 -0.2738  0.7640  0.2409
 5846TIP3    H138953   2.964   4.929  16.189  0.2930 -0.0562 -1.5657
 5846TIP3    H238954   2.825   4.904  16.133 -0.1747 -0.1151 -0.3872
 5847TIP3   OH238955   2.562   6.589  12.224  0.8630  0.2955 -0.0957
 5847TIP3    H138956   2.471   6.612  12.202  1.3796  0.0173 -2.7929
 5847TIP3    H238957   2.554   6.525  12.295 -1.1843 -1.4586 -1.7986
 5848TIP3   OH238958   1.845   5.094  13.270 -0.0825 -0.0093 -0.1070
 5848TIP3    H138959   1.907   5.167  13.273  0.1476 -0.2071 -0.0547
 5848TIP3    H238960   1.837   5.065  13.361  1.2124 -1.2132 -0.3558
 5849TIP3   OH238961   6.268   5.740   0.665  0.1089  0.0830 -0.1406
 5849TIP3    H138962   6.276   5.827   0.625  1.8499  0.4524  0.9961
 5849TIP3    H238963   6.322   5.683   0.610 -0.1325 -0.0662 -0.2249
 5850TIP3   OH238964   6.669   1.945   6.504  0.0756 -0.3718  0.5071
 5850TIP3    H138965   6.653   1.858   6.468 -0.8838  0.3258 -0.7768
 5850TIP3    H238966   6.670   2.003   6.428  1.8731  0.5869  1.2405
 5851TIP3   OH238967   5.698   2.990  16.352 -0.0144  0.3789 -0.3330
 5851TIP3    H138968   5.747   2.954  16.278  0.6071  0.4464  0.0480
 5851TIP3    H238969   5.607   2.994  16.320  0.2570  0.4601 -1.1095
 5852TIP3   OH238970   3.160   5.923  13.695  0.0280 -0.0654 -0.4182
 5852TIP3    H138971   3.082   5.932  13.640  1.3131 -0.2382 -2.3262
 5852TIP3    H238972   3.211   5.854  13.653  0.7001 -0.7212  1.4476
 5853TIP3   OH238973   1.009   2.204  14.167 -0.0154  0.0957  0.0859
 5853TIP3    H138974   1.099   2.195  14.200  0.7759 -0.3274 -2.0687
 5853TIP3    H238975   0.995   2.124  14.117 -1.0313  0.8849 -0.8978
 5854TIP3   OH238976   6.291   6.633   2.556 -1.0110  0.1366 -0.0978
 5854TIP3    H138977   6.234   6.556   2.546 -1.2898  0.1028  1.6111
 5854TIP3    H238978   6.379   6.596   2.570 -0.5600  0.1879 -2.6567
 5855TIP3   OH238979   6.780   3.650   0.474  0.4416 -0.0113  0.1122
 5855TIP3    H138980   6.757   3.664   0.382  2.8290 -0.0554 -0.5383
 5855TIP3    H238981   6.869   3.684   0.481  0.2211  0.1761  2.4776
 5856TIP3   OH238982   1.823   5.064  11.631 -0.0108 -0.0044 -0.5271
 5856TIP3    H138983   1.799   5.123  11.559  0.1301  1.1018  0.3206
 5856TIP3    H238984   1.916   5.078  11.644  0.1621 -0.8975 -0.7306
 5857TIP3   OH238985   0.042   0.367   1.802  0.5401  0.0263 -0.1073
 5857TIP3    H138986   0.089   0.327   1.729  0.0215  0.7036 -0.8160
 5857TIP3    H238987   0.100   0.355   1.877  1.6249  0.3890 -0.8731
 5858TIP3   OH238988   1.786   3.355   2.976 -0.0644  0.0693  0.1025
 5858TIP3    H138989   1.777   3.260   2.985  1.1447  0.0303  0.9991
 5858TIP3    H238990   1.745   3.375   2.892  0.3067 -1.3460 -0.4341
 5859TIP3   OH238991   4.032   4.064  16.254  0.1287  0.5694  0.8461
 5859TIP3    H138992   4.080   4.010  16.317 -0.3983 -0.5621  0.2898
 5859TIP3    H238993   4.089   4.070  16.178 -0.6727 -0.9197  0.1178
 5860TIP3   OH238994   3.119   3.617  16.609  0.7250 -0.3915 -0.0648
 5860TIP3    H138995   3.146   3.708  16.596 -2.2935  0.4981 -0.5281
 5860TIP3    H238996   3.106   3.610  16.703  1.3652 -0.4510  0.0162
 5861TIP3   OH238997   2.102   0.385  12.881 -0.2601 -0.5003  0.1638
 5861TIP3    H138998   2.102   0.445  12.807 -0.6410 -0.5004  0.1581
 5861TIP3    H238999   2.046   0.312  12.852 -4.0628  1.5027  2.0206
 5862TIP3   OH239000   6.179   3.400  13.906  0.7733  0.7427 -0.3489
 5862TIP3    H139001   6.220   3.393  13.992 -1.1300 -0.3606  0.5019
 5862TIP3    H239002   6.160   3.493  13.895 -2.3648  0.4910  2.1075
 5863TIP3   OH239003   2.752   4.398  17.163 -0.3102 -0.0421  0.6346
 5863TIP3    H139004   2.745   4.353  17.079  1.7206  0.5795  0.1139
 5863TIP3    H239005   2.725   4.488  17.144  4.4049  1.2829 -0.4424
 5864TIP3   OH239006   4.145   4.064  15.729  0.3716  0.3146 -0.1438
 5864TIP3    H139007   4.101   4.147  15.750 -0.4337 -0.0077 -0.5473
 5864TIP3    H239008   4.077   4.011  15.687  1.5191  0.3324 -2.0772
 5865TIP3   OH239009   2.234   0.852  13.331  0.3578  0.1722 -0.6857
 5865TIP3    H139010   2.177   0.831  13.257 -0.7260 -0.7494  0.3771
 5865TIP3    H239011   2.248   0.768  13.375  0.5138  0.7895  0.4761
 5866TIP3   OH239012   4.402   2.790  13.919 -0.3092 -0.1403  0.2456
 5866TIP3    H139013   4.424   2.712  13.868 -0.7124  0.5951 -1.0683
 5866TIP3    H239014   4.389   2.859  13.854 -1.4879  0.6572  1.2928
 5867TIP3   OH239015   4.484   5.068  11.689 -0.2472 -0.7557 -0.1630
 5867TIP3    H139016   4.553   5.135  11.691 -2.5882  1.7396  1.7939
 5867TIP3    H239017   4.464   5.057  11.596  0.6154  0.8233 -0.5570
 5868TIP3   OH239018   4.889   6.090  14.412 -0.4183  0.7011 -0.4391
 5868TIP3    H139019   4.941   6.160  14.451 -1.6318  2.0351 -1.1814
 5868TIP3    H239020   4.808   6.133  14.383 -0.4213 -0.6616 -2.5355
 5869TIP3   OH239021   5.204   3.332   0.258  0.2146 -0.6307  0.1210
 5869TIP3    H139022   5.262   3.260   0.233  1.6213  0.8536 -1.0028
 5869TIP3    H239023   5.255   3.383   0.320 -0.8413 -0.6805  1.0347
 5870TIP3   OH239024   0.057   1.917  12.818  0.4558  0.4362 -0.2644
 5870TIP3    H139025   0.000   1.991  12.798  0.5620  0.2087 -1.4517
 5870TIP3    H239026   0.116   1.911  12.743  2.3636  0.9466  1.1682
 5871TIP3   OH239027   5.386   5.352  11.426 -0.1105  0.5790 -0.1540
 5871TIP3    H139028   5.447   5.380  11.357 -0.0476  0.8926  0.0277
 5871TIP3    H239029   5.344   5.274  11.391  1.1719 -0.2526  0.1471
 5872TIP3   OH239030   2.451   0.084  13.101 -0.1162  0.2595  0.4082
 5872TIP3    H139031   2.443   0.076  13.196 -0.7634  2.2629  0.5396
 5872TIP3    H239032   2.382   0.145  13.076  1.3493  1.3581 -1.0861
 5873TIP3   OH239033   5.865   2.869  16.161  0.3368 -0.1858  0.1861
 5873TIP3    H139034   5.897   2.959  16.167  1.8492 -0.5368 -2.0128
 5873TIP3    H239035   5.873   2.847  16.069 -3.2330 -1.4504  0.1154
 5874TIP3   OH239036   1.414   5.897  15.786  0.0546 -0.6944  0.2330
 5874TIP3    H139037   1.363   5.884  15.866  1.3927  1.8467  1.5822
 5874TIP3    H239038   1.443   5.810  15.760  0.3357 -1.4618  3.0231
 5875TIP3   OH239039   5.588   0.695   5.657  0.2964  0.3250 -0.3297
 5875TIP3    H139040   5.636   0.747   5.722 -0.7821  0.4763  0.3496
 5875TIP3    H239041   5.511   0.747   5.636 -1.2017 -1.3439  0.9330
 5876TIP3   OH239042   5.907   1.897   3.325 -0.3689 -0.2818 -0.0550
 5876TIP3    H139043   5.886   1.976   3.276 -2.8020 -0.9995 -0.2238
 5876TIP3    H239044   5.929   1.832   3.259  0.5480 -0.0785  0.0364
 5877TIP3   OH239045   0.851   1.353  12.023 -0.5945 -0.2686 -0.5640
 5877TIP3    H139046   0.807   1.396  11.950 -0.4499  2.2415  0.7968
 5877TIP3    H239047   0.797   1.275  12.041 -2.8370  1.1920 -0.8283
 5878TIP3   OH239048   6.733   0.041  10.504  0.2890  0.1242  0.3744
 5878TIP3    H139049   6.728   0.101  10.429 -0.0539  0.3672  0.5941
 5878TIP3    H239050   6.775  -0.037  10.468 -0.0402  0.1713 -0.1199
 5879TIP3   OH239051   1.049   1.485  11.354 -0.1902  0.5703  0.3540
 5879TIP3    H139052   1.118   1.534  11.397 -0.4082  2.2218 -1.1409
 5879TIP3    H239053   1.057   1.507  11.262 -2.8030  0.9139  0.1676
 5880TIP3   OH239054   2.531   4.797  11.903  0.1224 -0.6891 -0.8537
 5880TIP3    H139055   2.559   4.810  11.812  0.7477  2.5655 -0.2563
 5880TIP3    H239056   2.570   4.870  11.950 -0.4963 -2.1394  1.9983
 5881TIP3   OH239057   4.129   2.384   1.010  0.3017  0.3143 -0.4317
 5881TIP3    H139058   4.218   2.348   1.016 -0.0364 -0.5236 -0.3193
 5881TIP3    H239059   4.100   2.391   1.101 -0.8436 -2.2377 -0.5634
 5882TIP3   OH239060   0.726   3.949   2.870  0.5848 -0.0086  0.1320
 5882TIP3    H139061   0.706   3.936   2.777  0.5435 -1.1583  0.2892
 5882TIP3    H239062   0.770   3.868   2.896  0.7677  0.3901  1.0667
 5883TIP3   OH239063   3.597   4.096   5.714  0.0244  0.6663 -0.4762
 5883TIP3    H139064   3.546   4.025   5.752  2.6379 -1.0104 -0.0432
 5883TIP3    H239065   3.597   4.078   5.620 -1.7689  1.7512 -0.7079
 5884TIP3   OH239066   5.660   1.983   3.111 -0.4969 -0.2740 -0.4880
 5884TIP3    H139067   5.709   1.951   3.035  0.4276  0.9500 -0.4155
 5884TIP3    H239068   5.626   1.903   3.152  1.3954 -1.1456 -0.5730
 5885TIP3   OH239069   0.254   5.084   2.605 -0.1800 -0.0521 -0.6368
 5885TIP3    H139070   0.189   5.065   2.537 -2.2393 -0.4846  1.3915
 5885TIP3    H239071   0.202   5.114   2.679  1.9042 -1.2979  1.3656
 5886TIP3   OH239072   6.504   6.710  16.576  0.1406  0.3882 -0.3210
 5886TIP3    H139073   6.548   6.703  16.661  0.6345  4.2721 -0.1954
 5886TIP3    H239074   6.412   6.689  16.595 -0.0830  2.8732  1.5647
 5887TIP3   OH239075   5.728   5.609  13.129 -0.0862 -0.6550  0.1852
 5887TIP3    H139076   5.726   5.569  13.042  0.3787 -0.6937  0.1913
 5887TIP3    H239077   5.790   5.681  13.121 -0.7336 -0.0813  0.2413
 5888TIP3   OH239078   3.183   5.092   6.306 -0.1938  0.2046 -0.2097
 5888TIP3    H139079   3.107   5.110   6.362 -0.1708 -1.6033  0.4197
 5888TIP3    H239080   3.180   4.998   6.291  0.7381  0.4299 -1.9299
 5889TIP3   OH239081   4.385   4.814   3.555 -0.6470  0.6231 -0.7643
 5889TIP3    H139082   4.293   4.813   3.582 -1.2087  1.8830 -2.4946
 5889TIP3    H239083   4.397   4.900   3.513  1.4556  0.6700 -0.1444
 5890TIP3   OH239084   0.756   0.108  10.985  0.4422 -0.2404 -0.5025
 5890TIP3    H139085   0.721   0.195  10.999  0.2789 -0.3745 -0.0617
 5890TIP3    H239086   0.797   0.111  10.898  2.1556  0.8286  0.3179
 5891TIP3   OH239087   4.427   4.317   1.314 -0.7076 -0.9290  0.3005
 5891TIP3    H139088   4.366   4.387   1.290 -0.7351 -0.9028  0.4491
 5891TIP3    H239089   4.505   4.335   1.261 -0.7175 -0.7894  0.3329
 5892TIP3   OH239090   2.558   1.429   0.212 -0.5121  0.1625 -0.4775
 5892TIP3    H139091   2.476   1.473   0.191 -0.6430 -0.5312 -1.4291
 5892TIP3    H239092   2.584   1.385   0.131  0.2268 -0.5493  0.1319
 5893TIP3   OH239093   0.200   1.640   5.419  0.4763  0.0456  0.7133
 5893TIP3    H139094   0.115   1.682   5.406  0.4923 -0.7714 -2.4387
 5893TIP3    H239095   0.260   1.712   5.435 -0.5008  0.7586  1.2605
 5894TIP3   OH239096   4.542   5.082   3.141 -0.0321 -0.2689 -0.0506
 5894TIP3    H139097   4.494   5.002   3.120 -0.8718  0.3628 -0.5783
 5894TIP3    H239098   4.531   5.093   3.235 -0.6531 -0.3025 -0.1198
 5895TIP3   OH239099   5.110   4.453  11.167 -0.2282 -0.3750  0.6082
 5895TIP3    H139100   5.177   4.511  11.131  0.3133 -0.8442  0.8457
 5895TIP3    H239101   5.105   4.381  11.104 -0.8951 -0.0760  0.3160
 5896TIP3   OH239102   1.863   3.654   0.829 -0.0843  0.2634  0.5037
 5896TIP3    H139103   1.921   3.634   0.903 -0.3662  1.6662  1.1178
 5896TIP3    H239104   1.908   3.617   0.753 -0.5405 -2.6347  1.5515
 5897TIP3   OH239105   1.321   3.826   0.986  0.7106 -0.0862 -0.4034
 5897TIP3    H139106   1.307   3.737   1.018 -2.1760  0.4481 -0.0684
 5897TIP3    H239107   1.294   3.824   0.894  0.9127  0.3921 -0.4798
 5898TIP3   OH239108   2.976   1.181   3.244  0.0594  0.0908  0.1337
 5898TIP3    H139109   2.887   1.146   3.238  0.1654  0.0119 -1.1117
 5898TIP3    H239110   3.014   1.165   3.158  1.1380  0.5241  0.5173
 5899TIP3   OH239111   2.584   1.704  17.012 -0.3255 -0.5104 -0.1656
 5899TIP3    H139112   2.638   1.741  17.082 -1.2403  1.1417 -0.3052
 5899TIP3    H239113   2.532   1.778  16.980 -1.3208 -1.6674 -1.2854
 5900TIP3   OH239114   3.082   5.812   5.070  0.3231 -0.0024  0.6237
 5900TIP3    H139115   3.147   5.762   5.020 -0.4757 -0.0895 -0.3468
 5900TIP3    H239116   3.048   5.876   5.007 -0.8268 -0.2287  1.0082
 5901TIP3   OH239117   0.729   3.043  12.459  0.0814  0.1956 -0.4001
 5901TIP3    H139118   0.674   3.076  12.530  1.8746 -2.0695  2.1142
 5901TIP3    H239119   0.810   3.093  12.466 -0.3488  1.1686 -1.9962
 5902TIP3   OH239120   6.541   2.268  12.664 -0.4273  0.1727 -0.2550
 5902TIP3    H139121   6.531   2.174  12.648 -1.8298  0.1857  0.5123
 5902TIP3    H239122   6.474   2.309  12.610 -1.5039  0.5555  1.3129
 5903TIP3   OH239123   2.876   4.593   2.086 -0.3114  0.1392 -0.3659
 5903TIP3    H139124   2.815   4.554   2.024 -1.2558  0.7401  0.1753
 5903TIP3    H239125   2.821   4.626   2.157  0.7591 -0.6898  0.8761
 5904TIP3   OH239126   6.411   6.150   2.461  0.4855 -1.1308  0.1141
 5904TIP3    H139127   6.387   6.133   2.552  1.7311 -1.9925  0.2830
 5904TIP3    H239128   6.350   6.097   2.410 -1.0678  0.3398  0.3837
 5905TIP3   OH239129   3.874   6.133  10.598  0.2180 -0.2509  0.4682
 5905TIP3    H139130   3.860   6.196  10.526 -0.1392  0.7728  1.4185
 5905TIP3    H239131   3.793   6.136  10.648 -0.2103 -2.2712 -0.0711
 5906TIP3   OH239132   5.887   3.504  13.627  0.1053  0.1880 -0.0441
 5906TIP3    H139133   5.926   3.432  13.677 -1.0171 -0.2081  0.2874
 5906TIP3    H239134   5.949   3.520  13.557  0.9891 -0.2546  0.6169
 5907TIP3   OH239135   4.008   5.905  12.950 -0.5468  0.0806  0.2013
 5907TIP3    H139136   4.023   5.964  12.876 -0.5718  1.4059  1.2482
 5907TIP3    H239137   4.092   5.901  12.995  0.2188 -2.7686 -1.3111
 5908TIP3   OH239138   3.775   0.991  13.955 -0.1168  0.0461 -0.1801
 5908TIP3    H139139   3.801   0.987  14.047  0.5835  1.8743 -0.2906
 5908TIP3    H239140   3.757   1.083  13.939 -2.5249 -0.5743 -1.2693
 5909TIP3   OH239141   4.787   6.639   4.308  0.4880 -0.0396 -0.5057
 5909TIP3    H139142   4.712   6.693   4.286 -0.2550  0.0514  2.1130
 5909TIP3    H239143   4.861   6.700   4.311 -0.3476  0.8996  2.4473
 5910TIP3   OH239144   5.972   6.438   1.529  0.0021 -0.6256 -0.4116
 5910TIP3    H139145   6.036   6.468   1.594 -0.5164 -0.5428  0.0740
 5910TIP3    H239146   6.024   6.410   1.454  0.5924 -0.3244 -0.1183
 5911TIP3   OH239147   5.811   0.464   2.153  0.0461 -0.2542 -0.5077
 5911TIP3    H139148   5.735   0.501   2.196 -0.2970  0.1420 -1.4404
 5911TIP3    H239149   5.886   0.511   2.190  0.0469 -2.1142  1.9863
 5912TIP3   OH239150   0.884   5.686   4.737 -0.5973 -0.4803 -0.2913
 5912TIP3    H139151   0.834   5.696   4.656  1.2293 -0.8834 -1.4793
 5912TIP3    H239152   0.837   5.741   4.800 -1.4303  0.6769 -1.8744
 5913TIP3   OH239153   4.631   2.956  15.734 -0.5061 -0.2441 -0.8175
 5913TIP3    H139154   4.641   2.964  15.639  1.0482 -0.5971 -0.7069
 5913TIP3    H239155   4.714   2.919  15.764 -1.7674 -2.1850  0.4453
 5914TIP3   OH239156   2.682   1.355   6.066 -0.2371 -0.1853 -0.1592
 5914TIP3    H139157   2.628   1.413   6.013 -1.7425 -0.0813  1.4215
 5914TIP3    H239158   2.750   1.412   6.103  0.1251 -0.0409 -1.0366
 5915TIP3   OH239159   4.679   0.923   5.511  0.0087 -0.3123  0.1707
 5915TIP3    H139160   4.665   0.904   5.604  0.0939 -0.1712  0.2119
 5915TIP3    H239161   4.605   0.978   5.486  0.2622  0.0777  0.2824
 5916TIP3   OH239162   4.816   4.593  11.662 -0.4437 -0.1173 -0.0657
 5916TIP3    H139163   4.746   4.654  11.638 -0.5271 -0.2705 -0.2171
 5916TIP3    H239164   4.875   4.644  11.717  0.0446  0.4092 -1.0463
 5917TIP3   OH239165   6.383   6.648  13.703  0.0949 -0.3354  0.1276
 5917TIP3    H139166   6.357   6.654  13.611 -0.8711  0.5431  0.4459
 5917TIP3    H239167   6.476   6.672  13.704 -0.3468  1.4868 -0.3937
 5918TIP3   OH239168   6.155   0.889  14.668 -0.2281 -0.0303 -0.1013
 5918TIP3    H139169   6.209   0.850  14.600 -2.0471 -1.2313 -0.9052
 5918TIP3    H239170   6.109   0.814  14.707 -0.9541  0.9107  0.8737
 5919TIP3   OH239171   5.291   0.318  13.772 -0.0833 -0.1779  0.2688
 5919TIP3    H139172   5.282   0.411  13.795  0.2806 -0.5263  1.8490
 5919TIP3    H239173   5.351   0.318  13.697  2.2234  0.6629  2.0516
 5920TIP3   OH239174   2.323   4.216   4.285  0.1893  0.3666  0.4601
 5920TIP3    H139175   2.295   4.272   4.213 -0.5623  0.5468  0.8914
 5920TIP3    H239176   2.380   4.271   4.338  2.5045 -0.4006 -1.1562
 5921TIP3   OH239177   6.570   3.278   3.497 -0.4482  0.1672  0.8926
 5921TIP3    H139178   6.516   3.254   3.422  0.5976  0.5985 -0.0078
 5921TIP3    H239179   6.593   3.369   3.482  1.3012 -0.2765  0.7886
 5922TIP3   OH239180   0.921   6.134  16.655 -0.4719  0.5912 -0.6704
 5922TIP3    H139181   0.899   6.215  16.701  1.9271  0.8584  0.0205
 5922TIP3    H239182   1.001   6.103  16.696 -1.0866 -1.8750 -1.2828
 5923TIP3   OH239183   3.973   0.594  11.030 -0.8919 -0.5430 -0.4788
 5923TIP3    H139184   3.913   0.649  11.081 -1.0618 -0.7040 -0.5065
 5923TIP3    H239185   3.922   0.567  10.954 -0.6356 -0.2964 -0.7419
 5924TIP3   OH239186   4.782   5.989   5.513  0.4165  0.0259 -0.7077
 5924TIP3    H139187   4.713   6.020   5.571  0.5592 -1.1458  0.1066
 5924TIP3    H239188   4.840   6.065   5.502 -0.6223  0.8034 -0.8435
 5925TIP3   OH239189   0.258   3.899   2.172 -0.3821  0.2853  0.1915
 5925TIP3    H139190   0.163   3.905   2.166 -0.4987 -2.9187 -2.4035
 5925TIP3    H239191   0.274   3.837   2.243 -0.2532  0.0745 -0.0214
 5926TIP3   OH239192   1.069   5.239   2.456 -0.1166  0.4996 -0.3702
 5926TIP3    H139193   1.025   5.185   2.522  1.0820  0.0628  0.0883
 5926TIP3    H239194   1.003   5.252   2.388 -0.7046 -0.8156 -0.0722
 5927TIP3   OH239195   5.786   3.826   5.090  0.4661 -0.3228  0.1937
 5927TIP3    H139196   5.782   3.855   4.999  2.0585 -0.1122  0.1910
 5927TIP3    H239197   5.722   3.882   5.135  0.0600 -0.0647 -0.6909
 5928TIP3   OH239198   5.884   1.135   0.977  0.5555  0.1253 -0.2332
 5928TIP3    H139199   5.975   1.106   0.987  0.8346  0.1899 -2.3457
 5928TIP3    H239200   5.835   1.082   1.040  2.3368  1.6381  2.5387
 5929TIP3   OH239201   1.400   3.384  16.660 -0.5795 -0.6616 -0.3088
 5929TIP3    H139202   1.491   3.373  16.688 -0.3622 -1.1121 -1.1600
 5929TIP3    H239203   1.373   3.468  16.697  0.5708  0.0501 -1.0530
 5930TIP3   OH239204   6.634   3.741  13.057  0.3073 -0.6430  0.1201
 5930TIP3    H139205   6.718   3.748  13.102  0.7121  0.2321 -0.7634
 5930TIP3    H239206   6.599   3.656  13.085  0.3380  0.0617  2.4498
 5931TIP3   OH239207   3.979   6.189  16.735  0.5771 -0.0122 -0.0767
 5931TIP3    H139208   4.029   6.207  16.814  1.0601 -2.1758  0.1626
 5931TIP3    H239209   3.890   6.218  16.755  0.6709 -0.6409  1.3214
 5932TIP3   OH239210   5.836   6.565   1.052 -0.6457 -0.1128 -0.6612
 5932TIP3    H139211   5.862   6.614   1.129  0.0111 -0.2936 -0.7636
 5932TIP3    H239212   5.742   6.581   1.043 -0.4118  1.2224 -0.7708
 5933TIP3   OH239213   6.088   3.708  10.701 -0.5333 -0.1328  0.4174
 5933TIP3    H139214   6.183   3.716  10.691 -0.6787 -0.1168 -1.1100
 5933TIP3    H239215   6.076   3.631  10.755  0.3410 -0.4715  0.1372
 5934TIP3   OH239216   2.885   6.397   0.651  0.3966 -0.1946 -0.7841
 5934TIP3    H139217   2.853   6.330   0.589 -3.1215  1.3158 -0.7174
 5934TIP3    H239218   2.925   6.346   0.722 -0.2197 -2.1527 -1.7841
 5935TIP3   OH239219   6.584   4.810  12.129 -0.2314  0.0330  0.2139
 5935TIP3    H139220   6.531   4.816  12.208  0.0263  0.5159  0.3517
 5935TIP3    H239221   6.579   4.897  12.089  0.5347  0.1193  0.2867
 5936TIP3   OH239222   0.832   5.628   3.327  0.4270  0.8624  0.3501
 5936TIP3    H139223   0.757   5.626   3.387  0.8841 -0.4894  0.9137
 5936TIP3    H239224   0.823   5.548   3.275  2.0223  0.1243  1.1507
 5937TIP3   OH239225   3.141   3.945   2.221  0.2501 -0.2510 -0.1141
 5937TIP3    H139226   3.110   3.871   2.274  0.6948  0.7095  1.5132
 5937TIP3    H239227   3.178   4.006   2.285  0.0780  1.2902 -1.4647
 5938TIP3   OH239228   4.791   5.047  15.889  0.5981  0.0021 -0.3062
 5938TIP3    H139229   4.751   5.071  15.973  0.8454 -0.4736 -0.0528
 5938TIP3    H239230   4.723   5.066  15.825 -0.8050 -2.6505  0.3065
 5939TIP3   OH239231   5.970   4.989   5.804  0.2397 -0.1575  0.1230
 5939TIP3    H139232   5.883   5.026   5.787 -0.4344 -1.0703  1.5436
 5939TIP3    H239233   6.015   5.056   5.855  0.3095  0.2388 -0.4557
 5940TIP3   OH239234   5.091   4.273  16.405  0.1131  0.5334  0.2655
 5940TIP3    H139235   5.125   4.332  16.472  2.3232  1.5347 -1.6563
 5940TIP3    H239236   5.116   4.186  16.434  0.6157  0.9109  0.9768
 5941TIP3   OH239237   5.376   2.243   4.856  0.0982  0.1918  0.6217
 5941TIP3    H139238   5.409   2.153   4.848 -0.0672  0.2247 -0.5826
 5941TIP3    H239239   5.450   2.297   4.829 -0.0693  0.3761  0.5365
 5942TIP3   OH239240   2.415   5.088   2.949 -0.3976 -0.6768 -0.1680
 5942TIP3    H139241   2.370   5.008   2.924 -2.1101  0.4657 -0.8426
 5942TIP3    H239242   2.375   5.114   3.032 -2.2262  1.2567 -1.6156
 5943TIP3   OH239243   6.579   4.424  13.684 -0.0805  0.5229  0.2297
 5943TIP3    H139244   6.616   4.368  13.616  1.0833  0.1412  1.1569
 5943TIP3    H239245   6.486   4.399  13.688  0.1848 -0.5376 -0.1350
 5944TIP3   OH239246   0.779   3.818   1.746  0.2941 -0.0891 -0.1912
 5944TIP3    H139247   0.849   3.804   1.810 -0.8205  0.9643  1.2951
 5944TIP3    H239248   0.712   3.867   1.794 -0.4336  1.0138 -2.2690
 5945TIP3   OH239249   5.557   2.150  14.950 -0.0876  0.4236  0.6640
 5945TIP3    H139250   5.542   2.103  15.032  1.5409 -2.3763 -0.5616
 5945TIP3    H239251   5.651   2.139  14.933  0.1979  3.4987 -0.0976
 5946TIP3   OH239252   5.675   4.400  14.563 -0.5456  0.2578 -0.8951
 5946TIP3    H139253   5.738   4.332  14.539 -1.0444 -0.6026  0.2215
 5946TIP3    H239254   5.711   4.440  14.642 -1.2730 -0.0800 -0.3859
 5947TIP3   OH239255   2.930   2.349   5.296  0.1031  0.4668  0.1165
 5947TIP3    H139256   2.901   2.297   5.221  0.0806  2.5991 -1.3999
 5947TIP3    H239257   2.900   2.438   5.277 -1.0355  0.8009  3.3082
 5948TIP3   OH239258   6.029   1.944   3.593  0.0852  0.1698 -0.3350
 5948TIP3    H139259   6.025   1.870   3.653  0.4837 -0.7842 -1.4802
 5948TIP3    H239260   6.007   1.907   3.508  4.0974  0.5747 -1.6176
 5949TIP3   OH239261   5.132   3.542  16.579  0.0632 -0.3200  0.0813
 5949TIP3    H139262   5.204   3.517  16.637 -0.1006 -1.4299 -0.1970
 5949TIP3    H239263   5.063   3.479  16.598 -0.1510 -0.4145 -1.0058
 5950TIP3   OH239264   1.536   1.236  13.413  0.2929  0.0459 -0.4549
 5950TIP3    H139265   1.541   1.324  13.378  0.4241  0.3162  0.2268
 5950TIP3    H239266   1.625   1.201  13.402  0.1694 -0.1013 -0.9815
 5951TIP3   OH239267   1.167   0.235  12.916  0.1503 -0.5077  0.3273
 5951TIP3    H139268   1.242   0.216  12.860 -0.4425  1.0528 -1.0325
 5951TIP3    H239269   1.108   0.160  12.905 -0.6026  0.4166 -2.2665
 5952TIP3   OH239270   1.839   0.432  16.895 -0.6020 -0.2369 -0.3787
 5952TIP3    H139271   1.795   0.432  16.810 -0.2239 -0.9496 -0.5777
 5952TIP3    H239272   1.833   0.342  16.926  0.1866 -0.2140 -0.1332
 5953TIP3   OH239273   2.838   5.696   2.566 -0.0744  0.1671 -0.1307
 5953TIP3    H139274   2.789   5.664   2.642  0.8616  1.9101  1.2355
 5953TIP3    H239275   2.927   5.664   2.580 -0.0334 -0.0452 -0.8425
 5954TIP3   OH239276   2.283   1.455   4.249  0.3044  0.0258  0.5052
 5954TIP3    H139277   2.277   1.437   4.343  1.5319 -0.3591  0.5217
 5954TIP3    H239278   2.207   1.510   4.230  0.3254  0.5400  1.8358
 5955TIP3   OH239279   1.671   1.823  15.550 -0.0736 -0.1433  0.5409
 5955TIP3    H139280   1.743   1.879  15.523 -0.7100  0.6746  0.5126
 5955TIP3    H239281   1.643   1.779  15.470 -0.0414  0.0501  0.4212
 5956TIP3   OH239282   3.268   3.179  12.008 -0.4035  0.2139 -0.2390
 5956TIP3    H139283   3.292   3.091  11.977  1.2168  0.6160 -0.1848
 5956TIP3    H239284   3.198   3.207  11.948 -0.4323 -0.8222 -0.7080
 5957TIP3   OH239285   4.691   1.277  16.966  0.2416  0.6483 -0.0697
 5957TIP3    H139286   4.632   1.291  16.892  0.0598 -0.6368 -0.1821
 5957TIP3    H239287   4.636   1.288  17.044 -0.0588 -0.0973 -0.1678
 5958TIP3   OH239288   5.027   3.640   3.298 -0.1637 -0.4965  0.4006
 5958TIP3    H139289   5.106   3.631   3.351 -0.0509  2.1997  0.7241
 5958TIP3    H239290   4.957   3.606   3.353  0.4347 -0.8224  0.9722
 5959TIP3   OH239291   0.203   2.169  15.244  0.1425 -0.2645 -0.0676
 5959TIP3    H139292   0.140   2.194  15.176 -0.3017 -0.4307  0.2829
 5959TIP3    H239293   0.288   2.171  15.199 -0.1662 -0.5463 -0.6701
 5960TIP3   OH239294   3.280   4.611  15.933  0.1477  0.0574  0.0042
 5960TIP3    H139295   3.306   4.675  15.866 -1.6454  0.4366 -0.3511
 5960TIP3    H239296   3.246   4.664  16.005  2.7346 -0.3118  1.5759
 5961TIP3   OH239297   4.425   5.730  11.848  0.3428  0.2671 -0.0516
 5961TIP3    H139298   4.515   5.763  11.852 -0.0514  1.5243 -1.1018
 5961TIP3    H239299   4.385   5.759  11.930  1.1043 -0.9896  0.7870
 5962TIP3   OH239300   1.699   1.521   4.157 -0.2887 -0.4239 -0.2183
 5962TIP3    H139301   1.771   1.534   4.095 -1.0914 -2.0563 -1.4914
 5962TIP3    H239302   1.633   1.472   4.109 -1.6467 -0.2538  1.4133
 5963TIP3   OH239303   1.292   0.576   1.157  0.5663 -0.0766  0.5510
 5963TIP3    H139304   1.349   0.649   1.181  1.7180 -0.9637  0.5590
 5963TIP3    H239305   1.250   0.604   1.076  1.1988  0.4832  0.4102
 5964TIP3   OH239306   2.641   2.354  15.095 -0.6172 -0.4833 -0.0712
 5964TIP3    H139307   2.736   2.355  15.102 -0.7595 -1.0665  2.3333
 5964TIP3    H239308   2.615   2.264  15.113 -1.6243 -0.3896 -0.9455
 5965TIP3   OH239309   2.958   0.488   0.088  0.2606 -0.0718  0.5831
 5965TIP3    H139310   3.033   0.547   0.085 -0.7641  1.1861 -0.8179
 5965TIP3    H239311   2.914   0.499   0.004 -1.0005 -1.4555  1.0260
 5966TIP3   OH239312   6.091   2.709   3.154 -0.2784 -0.8427 -0.2459
 5966TIP3    H139313   6.019   2.714   3.217  1.2624 -1.0360  1.5698
 5966TIP3    H239314   6.154   2.774   3.184  0.8463 -1.5104 -1.1225
 5967TIP3   OH239315   4.189   5.042  12.215 -0.1072  0.1512 -0.2063
 5967TIP3    H139316   4.128   5.032  12.142  1.4990  1.0824 -1.7151
 5967TIP3    H239317   4.203   5.137  12.222  0.5170  0.0027  0.6806
 5968TIP3   OH239318   3.900   6.276   0.675  0.2957 -0.2403 -0.1313
 5968TIP3    H139319   3.867   6.235   0.595 -0.8574 -0.3627  0.3934
 5968TIP3    H239320   3.832   6.258   0.740  0.1113  1.8641  0.2819
 5969TIP3   OH239321   1.633   2.905  14.813 -0.4056 -0.3046  0.1016
 5969TIP3    H139322   1.619   2.849  14.890  1.2850  1.4333  1.7452
 5969TIP3    H239323   1.568   2.976  14.823 -0.5488 -0.3710 -0.3637
 5970TIP3   OH239324   3.030   2.177   1.391 -0.3171 -0.0285  0.0693
 5970TIP3    H139325   3.114   2.213   1.363 -0.3326  0.4930  0.7135
 5970TIP3    H239326   3.019   2.099   1.336  0.6553 -0.1855  0.0875
 5971TIP3   OH239327   3.951   6.144   2.956  0.0221  0.5797 -0.1482
 5971TIP3    H139328   3.894   6.073   2.927  0.8697 -0.1021 -0.1587
 5971TIP3    H239329   3.899   6.223   2.942 -1.4232 -0.1341  1.0981
 5972TIP3   OH239330   6.772   1.204  13.058  0.0639  0.8221 -0.0053
 5972TIP3    H139331   6.796   1.139  13.125 -1.8167 -0.2419 -0.3325
 5972TIP3    H239332   6.715   1.266  13.103 -1.6578 -0.2072 -0.7236
 5973TIP3   OH239333   3.838   4.630  11.277 -0.9120 -0.2862  0.8909
 5973TIP3    H139334   3.846   4.540  11.308  0.2410 -0.9691 -1.2923
 5973TIP3    H239335   3.852   4.684  11.355  0.6310 -1.9405  1.7957
 5974TIP3   OH239336   4.743   3.800   4.961  0.2076  0.0656  0.3787
 5974TIP3    H139337   4.800   3.804   5.038 -0.5931  1.7171  0.8993
 5974TIP3    H239338   4.662   3.761   4.993  0.1192  0.1044  0.2042
 5975TIP3   OH239339   3.099   4.810  15.985  0.0062 -0.3909 -0.3437
 5975TIP3    H139340   3.110   4.887  15.930  1.0930  0.5777  1.1755
 5975TIP3    H239341   3.019   4.769  15.954 -1.2432  2.0065 -0.4006
 5976TIP3   OH239342   0.427   6.444  12.659 -0.5046  0.1063  0.4199
 5976TIP3    H139343   0.374   6.438  12.738 -1.1428  1.8303  0.1241
 5976TIP3    H239344   0.420   6.535  12.631  1.3064 -0.0162 -0.5250
 5977TIP3   OH239345   1.803   1.094   2.652 -0.1311  0.2563  0.4107
 5977TIP3    H139346   1.735   1.156   2.678  0.2498  0.1966  1.5699
 5977TIP3    H239347   1.797   1.090   2.556 -0.4442  1.7472  0.3602
 5978TIP3   OH239348   2.575   0.836   1.892  0.0082  0.7348  0.4987
 5978TIP3    H139349   2.556   0.744   1.911 -1.7392  0.2965 -3.0152
 5978TIP3    H239350   2.667   0.847   1.915 -0.2944 -1.2986  2.9577
 5979TIP3   OH239351   0.598   1.402  15.317  0.4968 -0.3351  0.5084
 5979TIP3    H139352   0.554   1.329  15.274 -1.8924  1.0719  0.4962
 5979TIP3    H239353   0.690   1.377  15.318 -0.2067 -3.0844 -0.0038
 5980TIP3   OH239354   4.208   5.596   1.938 -0.6011  0.4814 -0.1269
 5980TIP3    H139355   4.260   5.552   1.871 -0.3745 -0.1222  0.4274
 5980TIP3    H239356   4.123   5.611   1.897 -0.9158 -1.1197 -0.1225
 5981TIP3   OH239357   1.862   6.225   4.533 -0.1440 -0.3123  0.2486
 5981TIP3    H139358   1.828   6.239   4.445 -0.3924 -0.9302  0.2423
 5981TIP3    H239359   1.940   6.171   4.520  0.5218  0.6320  0.3074
 5982TIP3   OH239360   2.863   3.018  11.269 -0.1363  0.5415  0.2930
 5982TIP3    H139361   2.841   3.091  11.211  1.8170  1.9145  1.2410
 5982TIP3    H239362   2.853   2.940  11.214 -1.1653  1.5850 -1.0414
 5983TIP3   OH239363   3.078   3.896  12.568 -0.3549  0.0601 -0.2701
 5983TIP3    H139364   3.107   3.988  12.571 -2.5712  0.8012 -0.6053
 5983TIP3    H239365   3.059   3.875  12.659  0.8346 -0.3086 -0.0986
 5984TIP3   OH239366   3.309   4.677  12.742 -0.3035 -0.1522  0.3610
 5984TIP3    H139367   3.314   4.772  12.753 -0.5063 -0.1447  0.3958
 5984TIP3    H239368   3.384   4.643  12.790 -0.6930 -0.0640  1.0319
 5985TIP3   OH239369   2.980   2.740  14.767 -0.3978  0.1275  0.2539
 5985TIP3    H139370   2.951   2.652  14.792 -0.3110 -0.1662 -0.6511
 5985TIP3    H239371   2.904   2.778  14.722 -0.6609  0.7629  1.2142
 5986TIP3   OH239372   3.716   5.923  16.871  0.3206  0.1246 -0.4341
 5986TIP3    H139373   3.643   5.982  16.852 -1.0036 -1.4519 -0.3488
 5986TIP3    H239374   3.719   5.918  16.967  1.1720  0.9472 -0.4137
 5987TIP3   OH239375   1.274   3.266   3.230 -0.3812  0.1009  0.1669
 5987TIP3    H139376   1.222   3.225   3.299 -0.9563 -0.5360 -0.6301
 5987TIP3    H239377   1.361   3.278   3.268 -0.6008 -0.5658  0.8776
 5988TIP3   OH239378   5.441   5.025   1.671 -0.1518 -0.0635  0.0980
 5988TIP3    H139379   5.455   4.964   1.744 -1.3219  0.3205  0.6511
 5988TIP3    H239380   5.380   5.090   1.706 -2.3104 -0.9803 -1.8337
 5989TIP3   OH239381   4.933   1.251  17.076 -0.2645 -0.1053 -0.4509
 5989TIP3    H139382   4.929   1.169  17.125 -0.7471  1.4495  2.2337
 5989TIP3    H239383   4.846   1.261  17.038  0.1616 -1.4053 -1.8121
 5990TIP3   OH239384   5.361   3.679   4.046  0.0401  0.1744  0.3652
 5990TIP3    H139385   5.326   3.744   3.985 -0.8381 -0.3976  0.2521
 5990TIP3    H239386   5.335   3.595   4.009  0.8692 -0.2355  0.6958
 5991TIP3   OH239387   1.342   0.840   1.898 -0.0529  0.0022 -0.0889
 5991TIP3    H139388   1.286   0.907   1.859 -0.8154  1.0294  2.5991
 5991TIP3    H239389   1.314   0.758   1.857 -0.0819  1.1215 -2.3939
 5992TIP3   OH239390   3.592   6.049   3.484 -0.4699 -0.1378  0.1748
 5992TIP3    H139391   3.509   6.029   3.528  0.1172 -4.1174 -0.3759
 5992TIP3    H239392   3.657   6.048   3.555 -0.3537 -0.7382  0.0581
 5993TIP3   OH239393   6.058   1.058  17.129  0.1602 -0.1707  0.7217
 5993TIP3    H139394   6.087   1.128  17.188 -0.0732 -0.4842  1.2028
 5993TIP3    H239395   6.044   1.103  17.045  2.3119 -0.0548  0.4024
 5994TIP3   OH239396   2.273   4.075   1.716  0.3638  0.0508 -0.2499
 5994TIP3    H139397   2.295   4.137   1.786  1.8699  1.2852 -1.7531
 5994TIP3    H239398   2.186   4.101   1.688  0.4292  0.6230  0.0630
 5995TIP3   OH239399   2.105   6.231  11.944  0.1910  0.4346  0.1128
 5995TIP3    H139400   2.126   6.295  12.012  0.1770 -0.6037  1.1145
 5995TIP3    H239401   2.011   6.217  11.952  0.3283 -0.3226  0.4523
 5996TIP3   OH239402   1.634   0.980   2.176  0.0092  0.1718 -0.0471
 5996TIP3    H139403   1.551   1.012   2.141 -1.4219 -1.5910  1.6512
 5996TIP3    H239404   1.699   1.006   2.110 -2.2040 -0.5064 -2.5937
 5997TIP3   OH239405   5.571   3.110   5.406 -0.0298 -0.6312  0.5202
 5997TIP3    H139406   5.558   3.082   5.497  0.1074  0.5028  0.9103
 5997TIP3    H239407   5.488   3.092   5.363 -0.1669 -0.9899  0.9283
 5998TIP3   OH239408   5.365   3.124  13.775 -0.2283 -0.3278 -0.3308
 5998TIP3    H139409   5.409   3.182  13.713 -0.1966  0.9723  0.8751
 5998TIP3    H239410   5.422   3.123  13.853 -1.3812 -0.1221  0.5336
 5999TIP3   OH239411   3.755   1.924   2.839 -0.4596  0.3749  0.2913
 5999TIP3    H139412   3.741   1.927   2.934  2.0650 -1.0432  0.7589
 5999TIP3    H239413   3.818   1.994   2.822 -0.6859  0.4369 -0.3080
 6000TIP3   OH239414   5.342   2.072  11.850  0.5118 -0.4820 -0.2461
 6000TIP3    H139415   5.423   2.117  11.827  0.1966  0.2370  0.0505
 6000TIP3    H239416   5.285   2.086  11.774  0.0919  0.3972  0.2274
 6001TIP3   OH239417   2.390   2.921   6.590 -0.5146  0.3946 -0.0046
 6001TIP3    H139418   2.361   2.965   6.510  2.3524  1.8670 -0.3205
 6001TIP3    H239419   2.431   2.990   6.642  2.3261 -1.4635  0.3715
 6002TIP3   OH239420   0.185   2.041  17.154  0.4673 -0.0085 -0.2961
 6002TIP3    H139421   0.280   2.035  17.138  0.5110 -0.2381  0.0597
 6002TIP3    H239422   0.150   1.958  17.122  0.3410  0.2098 -0.7343
 6003TIP3   OH239423   3.279   4.763  16.880  0.0898 -0.3310  0.5138
 6003TIP3    H139424   3.300   4.853  16.856 -0.6084 -0.3256 -0.0971
 6003TIP3    H239425   3.340   4.709  16.831 -1.1715 -0.3092 -1.1288
 6004TIP3   OH239426   4.080   3.783   3.232  0.1869 -0.5471 -0.1357
 6004TIP3    H139427   3.992   3.815   3.250  0.2063 -1.0936  0.9547
 6004TIP3    H239428   4.131   3.863   3.214 -0.4628 -0.2147 -0.5152
 6005TIP3   OH239429   4.408   0.682  12.285 -0.7821 -0.2360 -0.3400
 6005TIP3    H139430   4.433   0.771  12.257  0.6396 -0.2575  0.8313
 6005TIP3    H239431   4.390   0.636  12.203  2.6933 -0.1143 -1.2451
 6006TIP3   OH239432   5.184   1.532  15.995 -0.4296  0.3393  0.5547
 6006TIP3    H139433   5.145   1.592  15.931  0.5312  0.3313 -0.0407
 6006TIP3    H239434   5.273   1.518  15.963  0.0101  0.2223  1.8195
 6007TIP3   OH239435   1.042   3.310  16.627 -0.0058 -0.3160  0.0563
 6007TIP3    H139436   1.026   3.384  16.568 -0.5328  0.3720  1.0574
 6007TIP3    H239437   1.053   3.235  16.568 -2.3416  0.0300 -0.8501
 6008TIP3   OH239438   1.292   5.200  15.134  0.0710 -0.6552 -0.6054
 6008TIP3    H139439   1.319   5.283  15.174 -2.5531 -1.4055  3.0496
 6008TIP3    H239440   1.296   5.216  15.040 -1.1152  3.9453 -0.0202
 6009TIP3   OH239441   0.620   5.439  16.831  0.0484 -0.7027 -0.5108
 6009TIP3    H139442   0.680   5.433  16.905 -1.2783  0.9024  0.7206
 6009TIP3    H239443   0.611   5.348  16.800  0.8163 -1.3562  1.1353
 6010TIP3   OH239444   3.140   4.230   0.049 -0.1227 -0.0745  0.6162
 6010TIP3    H139445   3.087   4.309   0.046  0.4378  0.3415  1.4132
 6010TIP3    H239446   3.119   4.183  -0.032 -0.0920  1.1202 -0.0924
 6011TIP3   OH239447   4.445   4.600   2.506 -0.2550  0.1186 -0.0135
 6011TIP3    H139448   4.497   4.521   2.523 -0.8574 -0.3175 -0.1939
 6011TIP3    H239449   4.492   4.645   2.436  1.5611  1.2971  1.8908
 6012TIP3   OH239450   4.552   6.783   3.215  0.0932 -0.2822  0.1628
 6012TIP3    H139451   4.636   6.798   3.257  1.4345 -0.3775 -2.3583
 6012TIP3    H239452   4.499   6.738   3.281  1.2889  1.6231  2.4936
 6013TIP3   OH239453   6.060   1.926   6.151 -0.3046  0.1567 -0.1503
 6013TIP3    H139454   6.119   1.889   6.085 -0.3720 -1.2720  0.5835
 6013TIP3    H239455   6.119   1.975   6.209  0.0577 -0.4840  0.0364
 6014TIP3   OH239456   1.573   1.047  15.715  0.6468 -0.4620 -0.6011
 6014TIP3    H139457   1.618   1.052  15.631  0.4722 -2.1435 -0.8010
 6014TIP3    H239458   1.482   1.027  15.694  0.6383 -1.0747 -0.0065
 6015TIP3   OH239459   2.619   4.575  16.987 -0.1985  0.7753  0.0294
 6015TIP3    H139460   2.573   4.657  16.970 -0.6627  0.0569 -2.4342
 6015TIP3    H239461   2.549   4.511  17.002  0.0066  0.0584 -1.9086
 6016TIP3   OH239462   3.064   5.910  11.937  0.3279 -0.5499  0.0341
 6016TIP3    H139463   3.134   5.965  11.971  1.9549 -1.9474 -0.9520
 6016TIP3    H239464   3.026   5.961  11.865  1.3686 -0.4138 -0.4275
 6017TIP3   OH239465   4.981   6.288  11.559 -0.2315 -0.1940 -0.2816
 6017TIP3    H139466   4.888   6.276  11.579  0.3512 -3.1448  0.9970
 6017TIP3    H239467   5.026   6.224  11.615  2.3097 -1.2065 -3.3388
 6018TIP3   OH239468   2.330   1.526   2.108  0.6583  0.2900  0.1883
 6018TIP3    H139469   2.349   1.615   2.079 -0.5126  0.2858 -0.5900
 6018TIP3    H239470   2.329   1.532   2.204  0.5841  1.1011  0.1356
 6019TIP3   OH239471   4.612   2.163  12.027 -0.2039 -0.7700  0.0835
 6019TIP3    H139472   4.679   2.100  12.055 -0.2571 -0.7823  0.1819
 6019TIP3    H239473   4.661   2.229  11.977 -0.3964 -1.8707 -1.6116
 6020TIP3   OH239474   4.061   1.144  10.810  0.0963 -0.0814  0.1435
 6020TIP3    H139475   4.151   1.134  10.779  0.5374  1.9033  0.7028
 6020TIP3    H239476   4.071   1.185  10.896 -1.4196  2.7132 -0.9466
 6021TIP3   OH239477   5.997   4.085   0.245 -0.3242 -0.2977 -0.5579
 6021TIP3    H139478   6.001   3.994   0.273  1.3556 -0.0915 -0.1034
 6021TIP3    H239479   5.922   4.121   0.292 -0.3034 -1.1445  0.1415
 6022TIP3   OH239480   1.258   1.190  11.117  0.5279  0.4990  0.5547
 6022TIP3    H139481   1.280   1.097  11.109  0.3770  0.5975 -1.3821
 6022TIP3    H239482   1.162   1.192  11.118  0.4929  0.7064 -1.0035
 6023TIP3   OH239483   5.187   5.122  11.690  0.2095  0.4490 -0.7315
 6023TIP3    H139484   5.092   5.117  11.701 -0.0755  1.7451 -2.4069
 6023TIP3    H239485   5.205   5.066  11.614  1.0559 -1.3466  0.7288
 6024TIP3   OH239486   0.120   3.997  15.998  0.0239  0.2610  0.1901
 6024TIP3    H139487   0.180   4.044  15.940  0.0053  2.0435  1.5744
 6024TIP3    H239488   0.034   4.008  15.957 -0.2070  2.7302  1.2305
 6025TIP3   OH239489   4.717   4.965   2.671  0.3494 -0.0575 -0.3502
 6025TIP3    H139490   4.772   5.007   2.605  1.4206  0.3754  0.8119
 6025TIP3    H239491   4.653   5.032   2.696 -1.1396 -0.7512 -2.1385
 6026TIP3   OH239492   4.183   3.322  14.570  0.8509 -0.2444 -1.2605
 6026TIP3    H139493   4.229   3.376  14.506  0.2230  0.4344 -1.1441
 6026TIP3    H239494   4.108   3.375  14.596  0.9941 -0.6063 -0.1118
 6027TIP3   OH239495   1.476   3.939   5.622 -0.2987 -0.1189 -0.2573
 6027TIP3    H139496   1.499   3.922   5.714  2.3882 -1.2066 -1.0655
 6027TIP3    H239497   1.381   3.931   5.619 -0.4937  0.5671  2.5490
 6028TIP3   OH239498   2.563   6.159   0.537 -0.2083  0.5418 -0.7379
 6028TIP3    H139499   2.542   6.136   0.447 -0.8655 -1.5888 -0.0649
 6028TIP3    H239500   2.612   6.084   0.570  0.7320  1.6517  0.4435
 6029TIP3   OH239501   1.143   2.767  14.203  0.1512 -0.2966 -0.1859
 6029TIP3    H139502   1.234   2.790  14.186  0.2162 -0.2411  0.2452
 6029TIP3    H239503   1.132   2.778  14.297 -0.4990  0.4128 -0.3384
 6030TIP3   OH239504   3.021   1.342   2.254  0.1824  0.6269 -0.0436
 6030TIP3    H139505   2.929   1.324   2.232  0.5076  2.7327 -3.3387
 6030TIP3    H239506   3.028   1.437   2.252  3.2339  0.4061 -3.3638
 6031TIP3   OH239507   4.975   3.710   3.870  0.0924  0.0836  0.6221
 6031TIP3    H139508   5.055   3.736   3.825 -0.7384  1.2205 -0.2268
 6031TIP3    H239509   4.905   3.730   3.808 -1.0042  0.9637  2.1313
 6032TIP3   OH239510   3.497   2.918   1.799  0.1304 -0.4873 -0.0732
 6032TIP3    H139511   3.444   2.839   1.787 -2.6631  1.0628  1.5951
 6032TIP3    H239512   3.507   2.925   1.894  1.9600  0.1731 -0.3000
 6033TIP3   OH239513   6.649   6.620  15.868 -0.2010 -0.0818 -0.0680
 6033TIP3    H139514   6.604   6.631  15.952  0.2171  1.5401 -0.0449
 6033TIP3    H239515   6.668   6.526  15.863  0.8177 -0.0253  2.1896
 6034TIP3   OH239516   6.495   2.472   2.562 -0.3473  0.2445 -0.5370
 6034TIP3    H139517   6.559   2.523   2.612  0.4452  0.9891 -2.2681
 6034TIP3    H239518   6.418   2.528   2.557 -0.7977 -0.2430  0.6853
 6035TIP3   OH239519   1.235   1.511   4.764  0.2868 -0.2672 -0.0864
 6035TIP3    H139520   1.293   1.449   4.720 -0.0874 -0.2563 -0.6015
 6035TIP3    H239521   1.261   1.507   4.856  0.2690 -1.1862 -0.1164
 6036TIP3   OH239522   1.207   5.820   1.848  0.4936 -0.1110  0.0213
 6036TIP3    H139523   1.177   5.788   1.763 -1.4277 -0.3819  0.7728
 6036TIP3    H239524   1.163   5.905   1.858  0.8011 -0.0304  0.6996
 6037TIP3   OH239525   3.670   6.327   5.459 -0.4638  0.5059  0.5675
 6037TIP3    H139526   3.606   6.291   5.521  0.4292 -0.4225  0.9785
 6037TIP3    H239527   3.731   6.376   5.515  1.1872 -1.5539  0.6408
 6038TIP3   OH239528   6.735   5.231   0.313 -0.1977 -0.0119  0.3037
 6038TIP3    H139529   6.733   5.228   0.409 -0.4548 -0.3859  0.2891
 6038TIP3    H239530   6.694   5.148   0.286 -0.1189  0.0893 -0.1275
 6039TIP3   OH239531   1.631   0.879  16.730 -0.5239 -0.3608 -0.1124
 6039TIP3    H139532   1.704   0.827  16.763 -0.1344  1.0031  1.2411
 6039TIP3    H239533   1.673   0.944  16.673 -0.8539 -0.5649 -0.5919
 6040TIP3   OH239534   2.857   4.309   1.435 -0.3444  0.0867  0.1549
 6040TIP3    H139535   2.937   4.353   1.406  0.0800  0.8376  2.3581
 6040TIP3    H239536   2.794   4.380   1.449 -0.8262 -0.3409  0.1689
 6041TIP3   OH239537   4.056   0.271   0.044  0.3666 -0.0467 -0.3938
 6041TIP3    H139538   4.017   0.352   0.076 -1.0867 -0.7374 -0.3753
 6041TIP3    H239539   4.146   0.272   0.079 -0.1957  0.6944  1.0756
 6042TIP3   OH239540   6.116   2.062   5.717 -0.3244  0.3725  0.1244
 6042TIP3    H139541   6.188   2.124   5.707 -1.1576  1.6383  1.7401
 6042TIP3    H239542   6.087   2.074   5.807  0.3593 -3.3345  0.9481
 6043TIP3   OH239543   0.769   2.063  10.988 -0.1103  0.6159  0.3241
 6043TIP3    H139544   0.810   2.024  10.910 -0.2608 -0.8293  0.9577
 6043TIP3    H239545   0.842   2.079  11.047 -0.3367 -1.4003  1.2093
 6044TIP3   OH239546   1.704   3.932  16.194  0.3117 -0.0406 -0.3964
 6044TIP3    H139547   1.784   3.951  16.147  1.0580  1.1392  1.2834
 6044TIP3    H239548   1.657   4.016  16.197 -0.9487 -0.6883 -1.2723
 6045TIP3   OH239549   4.842   3.898   0.690 -0.0352  0.4986  0.3237
 6045TIP3    H139550   4.805   3.983   0.711 -0.3226  0.9673 -2.0032
 6045TIP3    H239551   4.819   3.843   0.765 -1.0490  2.0793  1.2040
 6046TIP3   OH239552   6.129   0.731   4.887  0.2318 -0.0499 -0.1813
 6046TIP3    H139553   6.160   0.759   4.973  1.0016  0.3367 -0.5726
 6046TIP3    H239554   6.034   0.730   4.894  0.3244 -0.9492  0.9577
 6047TIP3   OH239555   3.306   4.024   1.729 -0.1796 -0.1537  0.4654
 6047TIP3    H139556   3.218   4.042   1.697  0.3784  1.6775 -0.0805
 6047TIP3    H239557   3.294   3.998   1.820 -1.2496  0.4518  0.5030
 6048TIP3   OH239558   3.628   4.139   2.952 -0.4117 -0.1638 -0.1479
 6048TIP3    H139559   3.718   4.117   2.926  0.0366  0.4894  0.8009
 6048TIP3    H239560   3.617   4.230   2.925 -1.0065 -0.4428 -0.8302
 6049TIP3   OH239561   6.764   5.587   3.714 -0.5298 -0.4737  0.1699
 6049TIP3    H139562   6.782   5.583   3.807  0.2562  1.0434  0.1001
 6049TIP3    H239563   6.832   5.534   3.673  0.7567  1.0667  0.2783
 6050TIP3   OH239564   4.835   3.150  17.233 -0.0434 -0.2218  0.6369
 6050TIP3    H139565   4.852   3.171  17.325 -0.8061  0.6082  0.6017
 6050TIP3    H239566   4.816   3.235  17.193  2.4158 -0.2756 -0.7570
 6051TIP3   OH239567   1.843   1.447  15.382  0.6259 -0.1051 -0.1609
 6051TIP3    H139568   1.789   1.413  15.453  0.7261 -0.2224 -0.1386
 6051TIP3    H239569   1.793   1.520  15.346  1.1624  0.7910  0.8663
 6052TIP3   OH239570   2.958   3.023   3.824 -0.9224  0.1346  0.4114
 6052TIP3    H139571   2.893   2.997   3.890 -0.4283 -2.2715 -0.0185
 6052TIP3    H239572   2.925   2.987   3.742  1.6024 -2.3998  0.4049
 6053TIP3   OH239573   0.791   5.344   0.670 -0.1629 -0.2827 -0.0402
 6053TIP3    H139574   0.703   5.316   0.647  0.2411 -0.2785 -1.6561
 6053TIP3    H239575   0.842   5.263   0.675 -0.2675 -0.2870  0.9069
 6054TIP3   OH239576   5.550   6.381  16.966  0.2994 -0.5581 -0.5803
 6054TIP3    H139577   5.627   6.429  16.995  0.6517 -1.9938  0.9021
 6054TIP3    H239578   5.582   6.324  16.896  0.6662 -1.4733  0.3358
 6055TIP3   OH239579   3.343   1.090  13.322  0.7939 -0.4369  0.2180
 6055TIP3    H139580   3.293   1.159  13.279  2.3947  0.3332 -0.4334
 6055TIP3    H239581   3.277   1.025  13.348 -0.7118  1.3075  0.8219
 6056TIP3   OH239582   5.695   2.104   1.895 -0.0408  0.2282  0.4957
 6056TIP3    H139583   5.703   2.086   1.989 -0.2139 -2.4044  0.0478
 6056TIP3    H239584   5.783   2.087   1.861  0.6341  3.4105  0.4694
 6057TIP3   OH239585   3.386   3.088  11.388  0.5902  0.0618  0.5942
 6057TIP3    H139586   3.306   3.038  11.370  0.5937  0.5308 -0.7661
 6057TIP3    H239587   3.456   3.036  11.347  0.6698  0.8542 -0.3046
 6058TIP3   OH239588   1.742   4.538   6.326 -0.0236  0.3659  0.1705
 6058TIP3    H139589   1.664   4.530   6.381  0.0464 -1.3405  0.0566
 6058TIP3    H239590   1.758   4.449   6.295  2.0644  0.6798  0.3132
 6059TIP3   OH239591   5.948   4.641  14.964  0.0115 -0.0389  0.5181
 6059TIP3    H139592   5.925   4.555  14.998 -1.3363  0.9017  2.0485
 6059TIP3    H239593   5.869   4.693  14.975  1.5185  2.0686  1.8895
 6060TIP3   OH239594   5.385   4.894   5.323 -0.1650  0.2965  0.8172
 6060TIP3    H139595   5.399   4.811   5.368 -0.4389 -1.4981 -2.2818
 6060TIP3    H239596   5.292   4.892   5.298  0.7723 -0.3779 -2.8469
 6061TIP3   OH239597   2.381   1.900   3.247  0.1669 -0.1865  0.0979
 6061TIP3    H139598   2.364   1.992   3.267  1.6798 -0.0839  1.0567
 6061TIP3    H239599   2.439   1.902   3.170  0.4758 -0.3106  0.3225
 6062TIP3   OH239600   0.937   0.671   5.645 -0.2206 -0.1214 -0.4554
 6062TIP3    H139601   0.936   0.763   5.619 -0.6089  0.0696  0.2013
 6062TIP3    H239602   0.870   0.666   5.714  1.6656 -0.3316  1.4014
 6063TIP3   OH239603   4.843   4.184   0.653  0.5787 -0.1032  0.7224
 6063TIP3    H139604   4.860   4.213   0.742 -1.1531 -0.8674  1.3177
 6063TIP3    H239605   4.881   4.253   0.598 -1.1612  2.0096  2.0846
 6064TIP3   OH239606   2.291   0.994  16.116 -0.4825 -0.0728  0.3639
 6064TIP3    H139607   2.356   0.940  16.072 -0.9018  0.0998 -0.4749
 6064TIP3    H239608   2.309   0.982  16.209  0.7122 -0.0621  0.1390
 6065TIP3   OH239609   5.468   0.822   6.497 -0.2495  0.1724  0.4543
 6065TIP3    H139610   5.556   0.843   6.465  0.0031  0.6699  1.4615
 6065TIP3    H239611   5.463   0.727   6.492  0.1448  0.1821 -0.1479
 6066TIP3   OH239612   4.885   3.475   4.409 -0.6682  0.0060 -0.7395
 6066TIP3    H139613   4.865   3.424   4.487  0.0979  2.6554  1.3006
 6066TIP3    H239614   4.953   3.425   4.364 -2.5559 -2.5723 -0.8291
 6067TIP3   OH239615   1.487   5.139   5.533  0.1106  0.0315  0.1535
 6067TIP3    H139616   1.413   5.118   5.590  0.7186 -1.2600  0.4829
 6067TIP3    H239617   1.565   5.122   5.587  0.6683  0.4014 -0.5195
 6068TIP3   OH239618   1.997   1.373  12.819 -0.3886  0.4891 -0.7854
 6068TIP3    H139619   2.067   1.343  12.876 -1.0308 -0.4383 -0.4741
 6068TIP3    H239620   2.017   1.333  12.734  0.0413  1.0912 -0.9696
 6069TIP3   OH239621   3.061   2.574  13.885  0.0334 -0.0185  0.1424
 6069TIP3    H139622   3.057   2.489  13.929  2.3417 -0.0489  0.3468
 6069TIP3    H239623   3.150   2.606  13.901  0.5178  0.5757 -3.3518
 6070TIP3   OH239624   3.508   0.367   2.778 -0.1605  0.6147  0.0329
 6070TIP3    H139625   3.507   0.276   2.747 -1.7414  0.8718 -0.7127
 6070TIP3    H239626   3.447   0.367   2.852  1.9603  0.4765  1.8367
 6071TIP3   OH239627   5.835   5.094  15.960 -0.4870 -0.3911 -0.4039
 6071TIP3    H139628   5.818   5.181  15.997  0.0451  0.3003 -1.7457
 6071TIP3    H239629   5.796   5.097  15.873  2.3872 -0.3573 -1.7496
 6072TIP3   OH239630   4.295   2.710   5.294  0.1033  0.1835 -0.0989
 6072TIP3    H139631   4.224   2.761   5.333  0.1602 -0.3254  0.6642
 6072TIP3    H239632   4.373   2.763   5.309  0.3486 -0.6832  1.7641
 6073TIP3   OH239633   1.571   3.717  14.475  0.5347  0.6733  0.3048
 6073TIP3    H139634   1.539   3.632  14.443 -0.1457  0.6542  1.0205
 6073TIP3    H239635   1.547   3.779  14.406 -1.3880  0.7183  0.9928
 6074TIP3   OH239636   2.187   0.946   5.829 -0.1757 -0.4729  0.4783
 6074TIP3    H139637   2.126   1.013   5.798 -0.7771 -0.8281  0.8765
 6074TIP3    H239638   2.136   0.895   5.893  0.4449 -0.9609  0.5888
 6075TIP3   OH239639   5.863   0.731   4.825 -0.0506  0.2886  0.7254
 6075TIP3    H139640   5.832   0.814   4.787 -0.1863  0.1524  0.5325
 6075TIP3    H239641   5.859   0.745   4.919  0.4334  0.6841  0.6873
 6076TIP3   OH239642   2.458   2.413   4.083  0.4061 -0.6574  0.0213
 6076TIP3    H139643   2.434   2.322   4.098  1.7631 -1.2482 -1.2575
 6076TIP3    H239644   2.540   2.425   4.131 -0.3674  0.2364  1.1434
 6077TIP3   OH239645   6.248   1.271  11.039  0.2891  0.3859  0.0931
 6077TIP3    H139646   6.195   1.337  10.994 -1.1569  0.3069  1.6080
 6077TIP3    H239647   6.263   1.203  10.973 -1.4601  0.4612 -0.4031
 6078TIP3   OH239648   3.806   0.403   5.321 -0.3701  0.0286  0.4009
 6078TIP3    H139649   3.724   0.435   5.284 -0.6105  0.6499  1.4417
 6078TIP3    H239650   3.799   0.308   5.316 -0.5764  0.0903 -0.7371
 6079TIP3   OH239651   1.881   1.051  12.378  0.2333 -0.2243 -0.1202
 6079TIP3    H139652   1.901   1.062  12.471 -0.3406  0.0279 -0.0196
 6079TIP3    H239653   1.932   1.120  12.335 -0.9168  0.8492  0.1995
 6080TIP3   OH239654   6.273   0.893  15.956 -0.1876 -0.5625 -0.0128
 6080TIP3    H139655   6.281   0.895  15.860  0.2776  1.4039  0.0452
 6080TIP3    H239656   6.193   0.943  15.974 -0.0350 -0.5568  0.6513
 6081TIP3   OH239657   0.235   2.587   0.031  0.1453 -0.0412 -0.5754
 6081TIP3    H139658   0.193   2.671   0.051  0.8805 -0.1897  1.6368
 6081TIP3    H239659   0.219   2.575  -0.063 -2.6978  1.0438 -0.2962
 6082TIP3   OH239660   1.400   1.284   2.450 -0.5590  0.4704  0.4203
 6082TIP3    H139661   1.361   1.204   2.485 -0.6132  1.4708  2.7036
 6082TIP3    H239662   1.383   1.351   2.517  2.3620  1.6447  0.0601
 6083TIP3   OH239663   0.278   5.598  16.375 -0.2830  0.0259 -0.6185
 6083TIP3    H139664   0.365   5.626  16.345  0.9509 -3.3186 -0.3566
 6083TIP3    H239665   0.232   5.577  16.294  0.2538 -1.2191 -0.6101
 6084TIP3   OH239666   0.278   2.551  11.559  0.3233 -0.1107 -0.0101
 6084TIP3    H139667   0.336   2.625  11.543  0.7095 -0.6300 -1.0607
 6084TIP3    H239668   0.297   2.524  11.649  2.3947 -0.8661 -0.6360
 6085TIP3   OH239669   4.694   2.967  17.080  0.3398 -0.8199  0.1314
 6085TIP3    H139670   4.747   3.020  17.140  2.0086 -1.6052 -0.6041
 6085TIP3    H239671   4.666   3.028  17.012  0.4226 -0.4224  0.4514
 6086TIP3   OH239672   6.244   0.316   2.907  0.0839  0.4419  0.2254
 6086TIP3    H139673   6.243   0.378   2.979  1.0924 -1.2019  1.7100
 6086TIP3    H239674   6.319   0.343   2.853  0.2902  0.7307  0.6549
 6087TIP3   OH239675   4.018   1.578   4.134 -0.0364 -0.0668 -0.2837
 6087TIP3    H139676   4.043   1.521   4.061  0.1253 -0.6429  0.2121
 6087TIP3    H239677   3.924   1.565   4.143  0.3148 -1.8109  1.1167
 6088TIP3   OH239678   3.333   1.889   3.334 -0.0498  0.7143  0.2274
 6088TIP3    H139679   3.272   1.825   3.297 -0.7169  0.3806  1.8339
 6088TIP3    H239680   3.284   1.930   3.405  1.6684  0.2865  1.6923
 6089TIP3   OH239681   0.441   3.988   5.448  0.1979 -0.8093  0.0840
 6089TIP3    H139682   0.423   3.946   5.532 -0.2523  0.0896  0.4414
 6089TIP3    H239683   0.374   3.953   5.389 -0.3569 -0.3914  0.4546
 6090TIP3   OH239684   2.514   1.231  16.056 -0.4681  0.2337 -0.0171
 6090TIP3    H139685   2.419   1.228  16.045 -0.8711  2.0378  2.6125
 6090TIP3    H239686   2.532   1.318  16.092  2.1294 -0.2677 -0.0010
 6091TIP3   OH239687   6.270   3.249  10.376 -0.4282 -0.0544  0.2004
 6091TIP3    H139688   6.307   3.337  10.365 -0.7151 -0.0453 -0.7582
 6091TIP3    H239689   6.332   3.192  10.332 -0.2266 -0.3434  0.8506
 6092TIP3   OH239690   4.449   4.062  14.349  0.1766 -0.8779 -0.2892
 6092TIP3    H139691   4.401   4.137  14.384  0.8435 -1.6666  2.4261
 6092TIP3    H239692   4.388   4.022  14.287 -0.9104  0.7684 -0.3374
 6093TIP3   OH239693   4.386   2.354   2.629 -0.3106  0.3098  0.1220
 6093TIP3    H139694   4.426   2.269   2.648 -0.8288 -0.2668 -1.2989
 6093TIP3    H239695   4.445   2.418   2.668  2.0705 -0.5147 -2.0339
 6094TIP3   OH239696   6.250   4.221  13.544  0.6083  0.0465  0.8397
 6094TIP3    H139697   6.273   4.312  13.526 -1.3047  0.5433  0.8307
 6094TIP3    H239698   6.162   4.210  13.507 -1.1658 -0.4675  4.8876
 6095TIP3   OH239699   1.444   0.821  15.495 -0.1285  0.4723 -0.3891
 6095TIP3    H139700   1.388   0.891  15.529  0.9133  1.8935 -1.5429
 6095TIP3    H239701   1.384   0.748  15.478 -1.2958  1.2456  0.3489
 6096TIP3   OH239702   5.912   1.819   4.251  0.3003  0.1903  0.4491
 6096TIP3    H139703   5.833   1.828   4.198  1.2211 -0.8846 -1.1615
 6096TIP3    H239704   5.909   1.730   4.286 -0.0901  0.7537  1.8823
 6097TIP3   OH239705   3.053   3.569  14.231  0.3344  0.1116  0.0734
 6097TIP3    H139706   3.032   3.659  14.256  0.4865 -0.4941  2.4845
 6097TIP3    H239707   3.143   3.575  14.198  0.7012  0.7113  1.1314
 6098TIP3   OH239708   5.005   5.747   4.719  0.3323  0.3918  0.2719
 6098TIP3    H139709   5.004   5.667   4.665 -2.8541  0.8893 -0.4674
 6098TIP3    H239710   4.970   5.719   4.803  1.1947  0.5905  0.7064
 6099TIP3   OH239711   5.806   0.783   3.526  0.2263 -0.3506 -0.1836
 6099TIP3    H139712   5.861   0.804   3.451  0.0043  0.0837 -0.2259
 6099TIP3    H239713   5.847   0.705   3.564  0.5299 -0.3791 -0.5570
 6100TIP3   OH239714   1.842   4.506   5.982 -0.8147  0.4385 -0.1308
 6100TIP3    H139715   1.884   4.546   6.058 -0.6999  0.3786 -0.1630
 6100TIP3    H239716   1.868   4.561   5.908 -0.3555  0.0922 -0.2296
 6101TIP3   OH239717   0.888   3.370   4.102 -0.2493 -0.2885 -0.3842
 6101TIP3    H139718   0.930   3.395   4.185 -1.2397  0.2583 -0.0211
 6101TIP3    H239719   0.960   3.353   4.042  0.4865  0.6538  0.2088
 6102TIP3   OH239720   4.526   3.813  15.261  0.2325  0.1083  0.1703
 6102TIP3    H139721   4.577   3.893  15.247  0.8212 -0.0678  1.3258
 6102TIP3    H239722   4.466   3.835  15.332  0.8361 -0.6754  0.9314
 6103TIP3   OH239723   1.860   4.723  16.784  0.4061 -0.5883 -0.0117
 6103TIP3    H139724   1.954   4.711  16.771  0.5623  0.3845  0.1996
 6103TIP3    H239725   1.830   4.638  16.819  1.2369 -0.8349  0.1171
 6104TIP3   OH239726   2.612   1.352  13.053 -0.3040 -0.4894  0.0624
 6104TIP3    H139727   2.702   1.381  13.067 -0.4541 -0.3177  0.6458
 6104TIP3    H239728   2.597   1.366  12.959  0.0097  0.2374  0.1172
 6105TIP3   OH239729   2.678   3.821   3.625  0.0731  0.1419 -0.2175
 6105TIP3    H139730   2.640   3.888   3.681  1.2866  0.8365 -0.2130
 6105TIP3    H239731   2.613   3.807   3.556 -0.0451  1.5657 -0.4051
 6106TIP3   OH239732   6.379   0.665  10.663  0.2714 -0.1447  0.0090
 6106TIP3    H139733   6.362   0.759  10.656 -1.4916 -0.6078 -2.6242
 6106TIP3    H239734   6.305   0.632  10.713 -0.0510 -0.3548 -0.5943
 6107TIP3   OH239735   0.817   5.966  16.452 -0.4609 -0.1984  0.3376
 6107TIP3    H139736   0.825   5.882  16.498 -0.6549  0.0965  0.9108
 6107TIP3    H239737   0.868   6.027  16.504 -2.1244  0.5306  1.1521
 6108TIP3   OH239738   6.738   5.430  11.892  0.0698 -0.1485 -0.0540
 6108TIP3    H139739   6.754   5.471  11.808 -0.9668  0.6400  0.1281
 6108TIP3    H239740   6.797   5.354  11.893  0.5396  0.1886 -1.2153
 6109TIP3   OH239741   2.166   1.417   1.263 -1.3076 -0.0725  0.8578
 6109TIP3    H139742   2.172   1.375   1.177  0.5418 -1.3750  1.5824
 6109TIP3    H239743   2.255   1.410   1.300 -1.6455  1.9604  2.1920
 6110TIP3   OH239744   0.379   6.000  13.873  0.0012  0.2722 -0.5036
 6110TIP3    H139745   0.472   5.998  13.852  0.2342 -0.4430  0.5339
 6110TIP3    H239746   0.374   5.968  13.963 -1.3196 -0.5412 -0.8411
 6111TIP3   OH239747   2.630   2.984   0.689  0.2493  0.2967 -0.0392
 6111TIP3    H139748   2.703   3.011   0.745  0.1310 -0.6238  0.5688
 6111TIP3    H239749   2.589   2.912   0.737 -0.1735 -0.1509 -1.0732
 6112TIP3   OH239750   2.405   3.286  15.214 -0.3077 -0.0021 -0.5789
 6112TIP3    H139751   2.321   3.259  15.252  0.4885 -1.0539  0.4603
 6112TIP3    H239752   2.440   3.206  15.175 -0.3367  0.7014 -2.0772
 6113TIP3   OH239753   1.786   4.011   1.464 -0.2392 -1.0309  0.1136
 6113TIP3    H139754   1.797   3.920   1.436  0.5970 -0.9611  0.2011
 6113TIP3    H239755   1.846   4.021   1.538 -1.9080 -1.0165  1.5040
 6114TIP3   OH239756   4.032   2.092  14.582  0.2163  0.6671 -0.1803
 6114TIP3    H139757   4.074   2.107  14.497  1.0085  2.3482  0.4788
 6114TIP3    H239758   4.072   2.157  14.639 -1.7851  0.8825  0.9907
 6115TIP3   OH239759   1.761   2.421  11.842 -0.1714  0.2441  0.6855
 6115TIP3    H139760   1.816   2.351  11.809 -1.8465 -1.0884  0.6144
 6115TIP3    H239761   1.735   2.471  11.764 -0.5111 -0.2158  0.5004
 6116TIP3   OH239762   6.093   1.192  14.952  0.5188  0.6942  0.3263
 6116TIP3    H139763   6.089   1.098  14.967  0.2674  0.5136 -0.8141
 6116TIP3    H239764   6.002   1.222  14.963  0.3700  0.5933 -0.5876
 6117TIP3   OH239765   0.132   4.685  11.812  0.0489 -0.2760 -0.1073
 6117TIP3    H139766   0.179   4.764  11.783 -1.1793  0.2793 -0.6050
 6117TIP3    H239767   0.107   4.705  11.902 -2.0377  0.7592 -0.8782
 6118TIP3   OH239768   0.377   0.359  12.786 -0.3713 -0.4472 -0.4611
 6118TIP3    H139769   0.406   0.400  12.705 -0.0140  0.4451  0.1038
 6118TIP3    H239770   0.452   0.368  12.845 -1.5734  1.4051  0.8448
 6119TIP3   OH239771   3.696   6.741  10.566 -0.2162 -0.5592  0.6971
 6119TIP3    H139772   3.788   6.765  10.574 -0.3789 -0.2785  1.8169
 6119TIP3    H239773   3.673   6.763  10.476  2.2769 -5.8090 -1.4104
 6120TIP3   OH239774   2.889   2.381   2.081  0.7480  0.4427 -0.2809
 6120TIP3    H139775   2.875   2.465   2.036  0.0683  1.2790  1.4529
 6120TIP3    H239776   2.978   2.387   2.117 -0.0133  1.2594  1.5376
 6121TIP3   OH239777   6.018   3.814   0.682 -0.1559  0.3765  0.3041
 6121TIP3    H139778   5.943   3.804   0.623 -0.8972  0.1957  1.2540
 6121TIP3    H239779   6.009   3.902   0.718 -0.5202 -0.0233  1.2222
 6122TIP3   OH239780   1.951   1.430  16.662  0.3748  0.3516 -0.3247
 6122TIP3    H139781   2.009   1.497  16.701 -0.6534  0.0786  1.7712
 6122TIP3    H239782   1.934   1.369  16.734 -1.7688 -0.0734 -1.1613
 6123TIP3   OH239783   4.450   1.234   4.147  0.2792 -0.3537  0.5037
 6123TIP3    H139784   4.486   1.309   4.195 -0.1083 -0.8354  1.5729
 6123TIP3    H239785   4.506   1.161   4.174 -0.0956 -0.6761  0.4051
 6124TIP3   OH239786   1.262   3.219   2.950 -0.5003 -0.0072 -0.4380
 6124TIP3    H139787   1.249   3.241   3.042 -1.0733  1.2013 -0.8091
 6124TIP3    H239788   1.214   3.137   2.938  1.5151 -1.4327  0.8988
 6125TIP3   OH239789   6.346   0.570  15.908 -0.5194 -0.0614 -0.1753
 6125TIP3    H139790   6.358   0.651  15.858  2.1863  0.5294  1.3387
 6125TIP3    H239791   6.298   0.596  15.986 -1.2529 -0.2821 -0.5400
 6126TIP3   OH239792   4.715   4.108   5.672 -0.0648  0.3800  0.1245
 6126TIP3    H139793   4.704   4.201   5.687 -0.7659  0.5668 -1.4309
 6126TIP3    H239794   4.659   4.066   5.737 -0.8250  1.0718 -0.0772
 6127TIP3   OH239795   0.229   6.106   1.153  0.6324 -0.2602 -0.6931
 6127TIP3    H139796   0.323   6.093   1.137  0.5690  1.1709 -2.4690
 6127TIP3    H239797   0.225   6.155   1.235  1.6232  2.2308 -2.0707
 6128TIP3   OH239798   1.077   4.403  13.466  0.3649  0.0697  0.1072
 6128TIP3    H139799   1.113   4.425  13.552  0.2191  1.2744 -0.1336
 6128TIP3    H239800   1.085   4.484  13.415 -1.0777 -0.1532 -0.4917
 6129TIP3   OH239801   1.168   5.211  16.599  0.3066 -0.3391 -0.3859
 6129TIP3    H139802   1.248   5.248  16.561 -0.0728  0.9140  0.0357
 6129TIP3    H239803   1.161   5.124  16.559  2.1045 -0.6320 -0.1189
 6130TIP3   OH239804   0.818   3.665   0.291  0.4083  0.2194 -0.2821
 6130TIP3    H139805   0.823   3.698   0.201 -0.6590  0.1964 -0.3546
 6130TIP3    H239806   0.863   3.731   0.343  0.1437  0.7449 -0.7117
 6131TIP3   OH239807   1.509   6.727   1.220 -0.1616  0.5251 -0.1834
 6131TIP3    H139808   1.525   6.679   1.301  0.4437  2.1170  0.6805
 6131TIP3    H239809   1.567   6.803   1.226 -0.2089  0.7350 -2.0605
 6132TIP3   OH239810   5.444   0.781  12.736 -0.2619 -0.8288 -0.6680
 6132TIP3    H139811   5.349   0.796  12.737 -0.0080  1.5954 -3.3033
 6132TIP3    H239812   5.479   0.850  12.792  0.1264  1.0042 -3.0388
 6133TIP3   OH239813   0.975   0.454  11.750 -0.5396 -0.5090 -0.0978
 6133TIP3    H139814   0.892   0.450  11.703 -1.5430 -1.5669  1.7211
 6133TIP3    H239815   0.964   0.393  11.824  1.7365 -0.4391  0.3291
 6134TIP3   OH239816   6.243   3.142   1.561 -0.1310 -0.3989 -0.5500
 6134TIP3    H139817   6.210   3.228   1.534  0.1383 -0.0721  0.1516
 6134TIP3    H239818   6.302   3.115   1.490  0.1141  0.1878 -0.5697
 6135TIP3   OH239819   4.496   4.104  14.690 -0.1589 -0.4891 -0.0798
 6135TIP3    H139820   4.468   4.193  14.666  0.8171 -0.2544 -0.4103
 6135TIP3    H239821   4.444   4.082  14.767 -0.2535  0.4616  0.1405
 6136TIP3   OH239822   6.287   1.167  13.188  0.1858  0.3948  0.1414
 6136TIP3    H139823   6.282   1.238  13.252  0.3984  1.1204 -0.6249
 6136TIP3    H239824   6.356   1.195  13.128  1.7906 -1.4749  1.0382
 6137TIP3   OH239825   0.660   5.005  17.239 -0.1273  0.1662  0.5253
 6137TIP3    H139826   0.724   5.074  17.258  0.6108  0.0468 -1.3859
 6137TIP3    H239827   0.698   4.926  17.278  1.5952 -0.1732 -1.7129
 6138TIP3   OH239828   0.503   2.661  16.945  0.0465 -0.6202 -0.3304
 6138TIP3    H139829   0.501   2.607  16.867  0.4444 -1.6848  0.3869
 6138TIP3    H239830   0.540   2.745  16.915  0.8368 -1.2476 -1.1458
 6139TIP3   OH239831   1.101   5.417  15.682 -0.4524  0.0065  0.1975
 6139TIP3    H139832   1.165   5.487  15.670 -0.1780 -0.2139  0.3533
 6139TIP3    H239833   1.148   5.337  15.659 -0.9587 -0.0632 -0.5958
 6140TIP3   OH239834   1.750   2.812   5.126 -0.0206 -0.4358  0.3608
 6140TIP3    H139835   1.670   2.852   5.161  2.0672  2.4744  2.0184
 6140TIP3    H239836   1.770   2.863   5.048  0.9260 -0.2787  0.7002
 6141TIP3   OH239837   5.327   0.600   2.129  0.1069 -0.6939 -0.1910
 6141TIP3    H139838   5.359   0.632   2.214 -1.6937 -0.4042  0.3908
 6141TIP3    H239839   5.246   0.647   2.114  0.2452 -0.9625 -1.9627
 6142TIP3   OH239840   6.657   2.048  11.782  0.1321 -0.2000  0.2202
 6142TIP3    H139841   6.644   2.042  11.876 -1.4149 -1.1647 -0.0358
 6142TIP3    H239842   6.599   1.982  11.745  1.2377 -0.3270 -1.3819
 6143TIP3   OH239843   3.889   2.621  16.183  0.5432 -0.5644 -0.1824
 6143TIP3    H139844   3.935   2.695  16.223  0.3962 -0.1928 -0.6974
 6143TIP3    H239845   3.944   2.545  16.203  0.8229 -0.2821  0.1370
 6144TIP3   OH239846   1.558   5.080   1.572 -0.0931  0.3720  0.2811
 6144TIP3    H139847   1.612   5.123   1.639 -1.5187  0.6593  1.2686
 6144TIP3    H239848   1.568   4.987   1.590  0.4486  0.4062  0.1639
 6145TIP3   OH239849   2.365   5.103  11.017  0.3835  0.5623  0.2645
 6145TIP3    H139850   2.344   5.027  10.962 -0.5325 -0.1037  1.5211
 6145TIP3    H239851   2.431   5.151  10.966  0.0268 -0.3774 -1.1244
 6146TIP3   OH239852   4.077   0.786  10.494 -0.7338  0.5164 -0.0800
 6146TIP3    H139853   4.043   0.773  10.583 -3.2494  0.7500 -0.9709
 6146TIP3    H239854   4.068   0.880  10.479  3.9894  1.2541  1.0581
 6147TIP3   OH239855   3.896   6.468  14.723  0.0679  0.1236 -0.0574
 6147TIP3    H139856   3.882   6.377  14.749 -1.7762  0.6348  0.8288
 6147TIP3    H239857   3.888   6.467  14.627 -1.2111 -0.4614  0.0411
 6148TIP3   OH239858   6.453   3.789  11.601  0.5682 -0.2603 -0.0033
 6148TIP3    H139859   6.465   3.792  11.696  1.0863 -1.4192 -0.0261
 6148TIP3    H239860   6.494   3.870  11.569  0.7426 -0.0589  0.7136
 6149TIP3   OH239861   0.246   0.822   3.707 -0.2129  0.1708  0.5248
 6149TIP3    H139862   0.316   0.886   3.699 -0.1212 -0.0245 -0.2165
 6149TIP3    H239863   0.166   0.871   3.687 -0.1382  0.0385 -0.0849
 6150TIP3   OH239864   3.898   0.804  15.425  0.2955  0.6039  0.0142
 6150TIP3    H139865   3.867   0.845  15.505  1.5509 -1.6048  1.6909
 6150TIP3    H239866   3.993   0.816  15.427  0.6250 -1.8499  0.2675
 6151TIP3   OH239867   6.160   6.250   5.854  0.1009 -0.0055  0.2995
 6151TIP3    H139868   6.185   6.331   5.811 -2.4103 -0.0671 -1.3855
 6151TIP3    H239869   6.176   6.266   5.947 -2.3266  3.1818  0.2310
 6152TIP3   OH239870   2.999   6.682  14.949 -0.2134  0.1094 -0.1219
 6152TIP3    H139871   2.993   6.773  14.919 -0.5643  0.3559  0.6713
 6152TIP3    H239872   3.063   6.642  14.891  1.4222  1.3951  0.7318
 6153TIP3   OH239873   3.524   0.710  12.343  0.4215  0.0975  0.2874
 6153TIP3    H139874   3.539   0.622  12.310 -1.3086  0.3175 -1.1209
 6153TIP3    H239875   3.512   0.698  12.438  1.3948 -1.0142  0.2788
 6154TIP3   OH239876   6.782   0.613   5.505  0.3060 -0.6110  0.3521
 6154TIP3    H139877   6.744   0.527   5.488  0.3818 -0.5780  0.0227
 6154TIP3    H239878   6.844   0.628   5.433 -1.1610  0.5686 -0.7211
 6155TIP3   OH239879   0.159   1.910   1.951  0.0257  0.6746  0.1891
 6155TIP3    H139880   0.221   1.920   1.878 -1.0300  0.3746 -0.7721
 6155TIP3    H239881   0.210   1.867   2.020  0.7938  0.0899 -0.7257
 6156TIP3   OH239882   6.221   5.518   1.710  0.2708 -0.0431  0.3142
 6156TIP3    H139883   6.257   5.551   1.792 -0.5972 -0.5504  0.9070
 6156TIP3    H239884   6.195   5.597   1.662 -1.7674  0.1715  1.7157
 6157TIP3   OH239885   0.067   4.712   3.263  0.2920 -0.5027 -0.2832
 6157TIP3    H139886  -0.024   4.736   3.279  0.4363  0.4950 -0.9682
 6157TIP3    H239887   0.064   4.618   3.246 -0.6198 -0.4519 -0.4207
 6158TIP3   OH239888   0.815   2.672  14.155 -0.1238  0.3803  0.0011
 6158TIP3    H139889   0.838   2.586  14.122 -1.5560 -0.4706  1.1781
 6158TIP3    H239890   0.897   2.708  14.188  0.4694 -0.5325 -0.4616
 6159TIP3   OH239891   5.315   5.954  17.162 -0.3222  0.4737 -0.6015
 6159TIP3    H139892   5.368   6.011  17.218 -0.7336 -0.7425  1.0632
 6159TIP3    H239893   5.378   5.890  17.128 -0.3858  0.1720 -0.1474
 6160TIP3   OH239894   4.722   2.996   1.991  0.1468 -0.2094 -1.0059
 6160TIP3    H139895   4.644   2.999   2.046 -1.1295  0.5132 -2.8243
 6160TIP3    H239896   4.785   3.053   2.036 -0.2126 -1.1197  0.6791
 6161TIP3   OH239897   3.956   3.529  12.040  0.2345  0.2554  0.6910
 6161TIP3    H139898   3.932   3.534  11.948  2.0206 -1.0264  0.1161
 6161TIP3    H239899   3.886   3.576  12.086 -0.3043  1.5297 -1.3564
 6162TIP3   OH239900   6.322   3.285  14.546 -0.3640  0.4482 -0.0527
 6162TIP3    H139901   6.244   3.232  14.561 -0.4536  0.1504 -1.5012
 6162TIP3    H239902   6.290   3.364  14.501  0.1692  0.2711 -0.7666
 6163TIP3   OH239903   5.912   5.457   2.545  0.4162 -0.2679  0.1547
 6163TIP3    H139904   5.975   5.401   2.501  1.1928  1.1006 -0.5049
 6163TIP3    H239905   5.949   5.471   2.632  0.3835 -0.5101  0.2079
 6164TIP3   OH239906   5.921   3.961  13.346 -0.3306 -0.3645  0.2983
 6164TIP3    H139907   5.974   3.921  13.415 -0.9219 -2.3550 -0.3656
 6164TIP3    H239908   5.847   3.902  13.335 -0.8369  0.5269 -1.2385
 6165TIP3   OH239909   0.350   4.343  16.648 -0.5187 -0.7646 -0.3336
 6165TIP3    H139910   0.353   4.355  16.743  0.2309 -1.9923 -0.1944
 6165TIP3    H239911   0.409   4.269  16.631 -0.5854 -0.5068 -1.7616
 6166TIP3   OH239912   0.334   2.146  16.272  0.3647  1.0690 -0.1354
 6166TIP3    H139913   0.314   2.178  16.360 -0.4205  0.1028  0.0535
 6166TIP3    H239914   0.250   2.150  16.225  0.6514  1.0291 -0.6627
 6167TIP3   OH239915   1.673   2.740  14.576  0.0124  0.1934 -0.2142
 6167TIP3    H139916   1.635   2.798  14.510  0.2705  0.6173  0.0081
 6167TIP3    H239917   1.654   2.783  14.660  0.2377 -0.0222 -0.0507
 6168TIP3   OH239918   2.260   5.397   1.488  0.2227  0.1584  0.2908
 6168TIP3    H139919   2.202   5.322   1.487  0.4724 -0.0590  1.3182
 6168TIP3    H239920   2.206   5.470   1.457 -0.5562 -0.0679  1.1138
 6169TIP3   OH239921   1.567   2.387   0.869  0.1781  0.1605 -0.2265
 6169TIP3    H139922   1.555   2.292   0.870 -1.8015  0.3844  1.0947
 6169TIP3    H239923   1.626   2.405   0.942  1.0131 -0.0895 -0.8304
 6170TIP3   OH239924   4.114   4.806   0.805 -0.2354  0.0370  0.0234
 6170TIP3    H139925   4.027   4.848   0.805  0.4024  1.4152  0.8302
 6170TIP3    H239926   4.155   4.837   0.724 -0.3097 -0.1975 -0.1025
 6171TIP3   OH239927   3.176   0.377  13.872 -0.5476 -0.2162  0.1043
 6171TIP3    H139928   3.125   0.402  13.950  0.8582  0.1881  0.8986
 6171TIP3    H239929   3.111   0.339  13.813 -1.3462 -2.4253  2.2883
 6172TIP3   OH239930   5.655   1.217  10.910  0.0978  0.0659  0.2912
 6172TIP3    H139931   5.567   1.255  10.905  0.1324  0.0197 -0.6610
 6172TIP3    H239932   5.641   1.130  10.947 -0.0845  0.6276  1.5727
 6173TIP3   OH239933   5.992   3.328   4.338 -0.0546 -0.3312  0.6081
 6173TIP3    H139934   5.917   3.382   4.313  1.1425 -0.7069 -4.5029
 6173TIP3    H239935   5.956   3.240   4.348 -0.9683  0.2480  2.5951
 6174TIP3   OH239936   2.329   3.396   2.376 -0.5991 -0.4859  0.0351
 6174TIP3    H139937   2.290   3.467   2.325 -1.5552 -0.2516  1.0485
 6174TIP3    H239938   2.316   3.423   2.467 -1.5454 -2.2497  0.4413
 6175TIP3   OH239939   3.728   2.332  13.936 -0.1172  0.6403 -0.1067
 6175TIP3    H139940   3.752   2.317  13.845  1.4266  1.3628  0.1618
 6175TIP3    H239941   3.664   2.264  13.956 -0.1977  0.2586 -1.6197
 6176TIP3   OH239942   5.839   4.864   2.132  0.0080 -0.2054 -0.1416
 6176TIP3    H139943   5.762   4.916   2.111  1.5513  1.9994 -0.5523
 6176TIP3    H239944   5.834   4.851   2.227 -1.2179 -0.6707 -0.2696
 6177TIP3   OH239945   4.940   2.203  16.996 -0.3702  0.1862  0.0950
 6177TIP3    H139946   4.929   2.233  16.906  0.5607  0.8875  0.2074
 6177TIP3    H239947   4.916   2.279  17.050  0.2733  0.1669  0.4086
 6178TIP3   OH239948   1.605   2.869   5.377  0.0948 -0.8480 -0.7911
 6178TIP3    H139949   1.553   2.918   5.314 -0.7377 -0.9429 -0.1884
 6178TIP3    H239950   1.566   2.889   5.462  3.0041  1.5896  0.0614
 6179TIP3   OH239951   0.559   0.200   0.614 -0.5481 -0.3224 -0.2040
 6179TIP3    H139952   0.637   0.211   0.668 -0.5560 -0.8767 -0.0859
 6179TIP3    H239953   0.592   0.197   0.524 -0.6456  2.0440 -0.3647
 6180TIP3   OH239954   0.960   5.809  12.421  0.7467 -0.6388 -0.2907
 6180TIP3    H139955   0.906   5.887  12.432  2.4411  0.2733  2.2661
 6180TIP3    H239956   0.946   5.758  12.501  0.5481 -2.3905 -1.4155
 6181TIP3   OH239957   1.730   0.475  16.240  0.0984 -0.0056  0.2229
 6181TIP3    H139958   1.745   0.560  16.199 -1.0647  0.1201  0.0549
 6181TIP3    H239959   1.751   0.412  16.172 -0.5224  0.1759 -0.1397
 6182TIP3   OH239960   5.048   2.651   0.643 -0.4668 -0.2401  0.7189
 6182TIP3    H139961   4.966   2.611   0.615  0.8730 -1.7806 -1.1583
 6182TIP3    H239962   5.022   2.723   0.700 -3.0876 -1.0630  0.6071
 6183TIP3   OH239963   3.697   4.627   3.439 -0.2159 -0.7688  0.2289
 6183TIP3    H139964   3.784   4.617   3.399 -0.0726  0.6818  0.1576
 6183TIP3    H239965   3.642   4.661   3.368 -0.8926 -1.8201  0.2323
 6184TIP3   OH239966   3.765   3.298  14.445 -0.4374  0.8369  0.0944
 6184TIP3    H139967   3.676   3.304  14.410  0.1529  1.3552 -1.3247
 6184TIP3    H239968   3.766   3.214  14.492 -1.4240  0.4494 -0.5617
 6185TIP3   OH239969   3.829   0.997   4.908 -0.4083  0.6857  0.3471
 6185TIP3    H139970   3.816   1.089   4.883  2.2441  0.5802 -1.6202
 6185TIP3    H239971   3.788   0.947   4.837  1.5533  0.3770 -0.5902
 6186TIP3   OH239972   6.277   5.089   5.136 -0.0815  0.4331 -0.1261
 6186TIP3    H139973   6.300   5.153   5.069  1.2387 -0.8767 -0.9418
 6186TIP3    H239974   6.330   5.114   5.212  1.6153 -0.6026 -0.9435
 6187TIP3   OH239975   2.975   1.499  13.989 -0.0320  0.6719  0.1616
 6187TIP3    H139976   2.960   1.431  14.054 -0.4309  0.9197  0.3339
 6187TIP3    H239977   3.035   1.560  14.031  1.3227 -0.2036 -0.4487
 6188TIP3   OH239978   1.209   6.739  15.282  0.0150 -0.1792 -0.1704
 6188TIP3    H139979   1.188   6.718  15.192 -2.2140  1.9726 -0.2057
 6188TIP3    H239980   1.271   6.812  15.276 -4.2470  3.6365 -0.0340
 6189TIP3   OH239981   0.970   4.475  13.728  0.3483  0.0603 -0.5982
 6189TIP3    H139982   0.904   4.533  13.688 -1.6276 -0.6396  1.5495
 6189TIP3    H239983   1.034   4.535  13.766 -0.7506  0.8165  0.0811
 6190TIP3   OH239984   6.359   3.319   4.883 -0.4403 -0.5077 -0.2933
 6190TIP3    H139985   6.323   3.299   4.796  0.4446 -2.6383 -0.2048
 6190TIP3    H239986   6.285   3.352   4.933 -0.6582  2.2793 -2.2954
 6191TIP3   OH239987   5.168   2.360   2.964  0.6532 -0.2375  0.2776
 6191TIP3    H139988   5.101   2.366   3.032  1.8067 -0.8506  1.4784
 6191TIP3    H239989   5.176   2.449   2.930 -0.2366 -0.0172  0.6252
 6192TIP3   OH239990   1.328   3.763  15.082 -0.3681 -0.4497  0.1747
 6192TIP3    H139991   1.342   3.705  15.156  0.0508 -0.2897  0.2214
 6192TIP3    H239992   1.312   3.849  15.122  0.0561 -0.3249  0.0699
 6193TIP3   OH239993   3.678   6.606  15.797 -0.0536  0.7213  0.5903
 6193TIP3    H139994   3.724   6.640  15.720  0.2459 -1.7158 -0.3241
 6193TIP3    H239995   3.729   6.641  15.871  0.4783  1.9331 -0.3178
 6194TIP3   OH239996   1.728   6.015   2.273 -0.0606  0.4761 -0.2712
 6194TIP3    H139997   1.735   5.937   2.219  0.1471  0.2230  0.1224
 6194TIP3    H239998   1.663   6.069   2.228  0.0183  0.2116 -0.7039
 6195TIP3   OH239999   6.438   0.075   3.092  0.2559  0.0001 -0.4264
 6195TIP3    H140000   6.507   0.141   3.087  0.9201 -0.6963 -0.5215
 6195TIP3    H240001   6.426   0.046   3.001 -0.3527  0.3188 -0.4464
 6196TIP3   OH240002   5.416   5.723   3.755 -0.1490  0.2468  0.0358
 6196TIP3    H140003   5.376   5.685   3.677  0.2081 -0.3750  0.1515
 6196TIP3    H240004   5.341   5.749   3.810 -0.4464 -2.3973  0.9794
 6197TIP3   OH240005   1.869   2.820   2.427 -0.3010 -0.1498 -0.6963
 6197TIP3    H140006   1.836   2.857   2.509 -0.0018 -1.7031  0.1408
 6197TIP3    H240007   1.821   2.738   2.417 -0.6091  0.2088 -2.2852
 6198TIP3   OH240008   6.065   3.287   6.532 -0.1224  0.2504 -0.1871
 6198TIP3    H140009   5.985   3.242   6.559 -0.0053  0.2521  0.1717
 6198TIP3    H240010   6.114   3.221   6.481  0.4556 -0.3257  1.0824
 6199TIP3   OH240011   5.202   3.720  14.116 -0.3591 -0.2518  0.2349
 6199TIP3    H140012   5.175   3.700  14.027  0.1575 -1.4793  0.3432
 6199TIP3    H240013   5.291   3.753  14.108  0.6752 -2.8682  0.5177
 6200TIP3   OH240014   2.192   6.051  11.297 -0.1142  0.0951 -0.2256
 6200TIP3    H140015   2.155   6.127  11.342  2.6890  1.7451 -0.5652
 6200TIP3    H240016   2.165   6.061  11.206  1.6015  1.6158 -0.5904
 6201TIP3   OH240017   5.274   1.761   2.055  0.2124 -0.1702  0.0852
 6201TIP3    H140018   5.214   1.789   1.986  1.8795  1.8493 -0.6109
 6201TIP3    H240019   5.296   1.671   2.032 -3.2097 -1.2851  0.8766
 6202TIP3   OH240020   5.983   4.620  11.107  0.1493  0.1219 -0.2198
 6202TIP3    H140021   6.044   4.563  11.061  0.1892  0.3692 -0.4805
 6202TIP3    H240022   5.966   4.577  11.191 -1.6113 -1.4405 -1.3335
 6203TIP3   OH240023   1.078   2.096  11.051 -0.4470 -0.1869 -0.0366
 6203TIP3    H140024   1.090   2.018  11.104 -0.0638  0.1016  0.3024
 6203TIP3    H240025   1.103   2.168  11.108 -0.2698  0.1467 -0.5292
 6204TIP3   OH240026   5.756   5.778   1.700 -0.5842 -0.1014 -0.2618
 6204TIP3    H140027   5.775   5.864   1.738 -0.1856  0.8933 -2.6451
 6204TIP3    H240028   5.834   5.755   1.650 -1.5889 -0.7660 -1.5699
 6205TIP3   OH240029   0.916   5.972  13.197 -0.3649 -0.3193 -0.4952
 6205TIP3    H140030   0.932   6.021  13.117 -2.2772  2.2579  0.6523
 6205TIP3    H240031   1.003   5.942  13.225  0.4709 -0.0614 -2.7603
 6206TIP3   OH240032   2.009   1.941   1.491  0.4294  0.1365 -0.1298
 6206TIP3    H140033   1.993   1.906   1.404  0.6970  1.2731 -0.6541
 6206TIP3    H240034   1.949   1.893   1.548  0.4573 -0.8147 -0.8881
 6207TIP3   OH240035   4.900   3.070  15.044 -0.4765  0.2235 -0.2129
 6207TIP3    H140036   4.868   3.030  15.125  2.4318  2.0875  1.9330
 6207TIP3    H240037   4.972   3.013  15.016 -1.4517 -0.3976 -1.5038
 6208TIP3   OH240038   6.466   1.813  12.098  0.0200  0.3118 -0.5930
 6208TIP3    H140039   6.387   1.850  12.058 -0.8257  0.0685  0.8048
 6208TIP3    H240040   6.538   1.854  12.051 -0.9406  0.5791 -1.8619
 6209TIP3   OH240041   0.950   3.499  16.904 -0.0184 -0.1000  0.0212
 6209TIP3    H140042   1.036   3.463  16.883  0.3346  0.3142  0.7500
 6209TIP3    H240043   0.917   3.445  16.975 -1.0548 -1.2621 -1.3104
 6210TIP3   OH240044   0.744   3.359   0.427 -0.0246  0.2272 -0.3777
 6210TIP3    H140045   0.766   3.267   0.439  0.0828  0.3262  0.1629
 6210TIP3    H240046   0.828   3.402   0.410 -0.1213  0.1613 -1.0574
 6211TIP3   OH240047   1.002   3.772   1.191 -0.5223  0.3823  0.0201
 6211TIP3    H140048   1.063   3.830   1.236 -0.5364 -1.1592  2.1381
 6211TIP3    H240049   1.039   3.760   1.104  3.1810 -1.8640  1.7757
 6212TIP3   OH240050   5.961   5.083  11.952 -0.2721  0.2944  0.0671
 6212TIP3    H140051   5.945   4.998  11.993  0.4916 -0.1643 -0.5869
 6212TIP3    H240052   6.010   5.063  11.873  1.0392  1.4513  0.5692
 6213TIP3   OH240053   0.509   0.010  12.159 -0.2352 -0.1762  0.3591
 6213TIP3    H140054   0.560   0.084  12.194  0.9611 -1.6858  1.9252
 6213TIP3    H240055   0.420   0.025  12.191  0.5992 -0.9158  3.1729
 6214TIP3   OH240056   0.107   3.614  15.232 -0.0458  0.2794  0.5877
 6214TIP3    H140057   0.186   3.665  15.248 -1.0611  2.4153 -0.9158
 6214TIP3    H240058   0.075   3.592  15.320  0.6378  1.9142  1.2778
 6215TIP3   OH240059   4.326   5.179  13.794  0.2559  0.0469 -0.5399
 6215TIP3    H140060   4.370   5.172  13.709 -0.9786  1.0846 -1.2910
 6215TIP3    H240061   4.234   5.193  13.772  0.2222  2.5316  0.9071
 6216TIP3   OH240062   1.468   5.708  15.122 -0.0836 -0.3399 -0.0555
 6216TIP3    H140063   1.477   5.631  15.177  1.7216 -0.5967 -0.6877
 6216TIP3    H240064   1.407   5.682  15.053  1.3155 -1.5617 -0.8585
 6217TIP3   OH240065   6.643   2.816   5.254 -0.4637  0.1638  0.0815
 6217TIP3    H140066   6.653   2.725   5.226 -2.0332 -0.3941  1.2598
 6217TIP3    H240067   6.656   2.867   5.174  1.4269 -1.0188 -0.4070
 6218TIP3   OH240068   3.438   1.253   3.603  0.5464  0.5181 -0.7708
 6218TIP3    H140069   3.363   1.229   3.657  1.6657  0.9881  1.0494
 6218TIP3    H240070   3.505   1.188   3.624  0.5143 -0.1763 -2.7234
 6219TIP3   OH240071   1.538   2.403  12.039  0.4694 -0.2253  0.0142
 6219TIP3    H140072   1.633   2.402  12.048  0.1679  2.2518  5.6608
 6219TIP3    H240073   1.515   2.495  12.026 -1.2118 -0.7240 -0.7641
 6220TIP3   OH240074   1.148   6.247  13.415 -0.0993 -0.6074  0.0410
 6220TIP3    H140075   1.110   6.187  13.479 -0.4251 -1.2498 -0.7586
 6220TIP3    H240076   1.075   6.272  13.359 -0.2090  1.4054  1.0299
 6221TIP3   OH240077   2.937   5.324   5.737  0.4215  0.1626  0.1292
 6221TIP3    H140078   2.894   5.410   5.733  0.4372  0.1396 -0.6075
 6221TIP3    H240079   2.895   5.280   5.811  1.0920  1.1614  1.1272
 6222TIP3   OH240080   4.329   0.285   0.116 -0.4030  0.7156 -0.0333
 6222TIP3    H140081   4.369   0.235   0.187 -0.0819 -0.6259 -1.1170
 6222TIP3    H240082   4.392   0.279   0.044 -2.3447 -1.1543 -1.6648
 6223TIP3   OH240083   4.685   1.503   5.597  0.3021 -0.2452 -0.1548
 6223TIP3    H140084   4.594   1.516   5.625 -0.2010 -1.0873 -1.3537
 6223TIP3    H240085   4.717   1.432   5.652  0.3436  0.2830  0.5050
 6224TIP3   OH240086   5.852   0.421  16.999 -0.4824  0.8141  0.3764
 6224TIP3    H140087   5.779   0.370  16.965 -0.4760  1.6518 -0.9178
 6224TIP3    H240088   5.924   0.403  16.938  0.1436  0.6871  1.1401
 6225TIP3   OH240089   1.282   4.529  10.880  0.2469 -0.2073 -0.4178
 6225TIP3    H140090   1.309   4.473  10.807  0.1627 -1.5320  0.5475
 6225TIP3    H240091   1.265   4.614  10.840  0.9063 -0.7229 -1.8265
 6226TIP3   OH240092   1.869   3.062   6.037  0.6163  0.6258 -0.0518
 6226TIP3    H140093   1.790   3.007   6.036 -0.0393  1.5020  1.6257
 6226TIP3    H240094   1.935   3.010   5.991 -0.7988 -0.3272 -1.0470
 6227TIP3   OH240095   1.139   4.149  15.785  0.4707 -0.3243 -0.0287
 6227TIP3    H140096   1.205   4.183  15.724 -0.5533 -0.4067 -1.2070
 6227TIP3    H240097   1.128   4.218  15.850  0.8328  0.1906 -0.5110
 6228TIP3   OH240098   3.227   2.163   4.244 -0.5389 -0.2885  0.1789
 6228TIP3    H140099   3.295   2.107   4.282 -0.7184 -0.9652 -0.4833
 6228TIP3    H240100   3.170   2.186   4.318  0.3102  0.1462  0.7033
 6229TIP3   OH240101   5.061   6.531  11.654 -0.4369  0.1297  0.2212
 6229TIP3    H140102   5.113   6.462  11.697  0.2904  0.9609  0.6938
 6229TIP3    H240103   4.990   6.484  11.611 -0.0509 -0.9050  0.6954
 6230TIP3   OH240104   4.321   4.334  15.617  0.3624  0.8588 -0.6304
 6230TIP3    H140105   4.345   4.426  15.608 -2.0876  1.6233  0.4623
 6230TIP3    H240106   4.259   4.318  15.546 -0.6709  0.5586  0.3418
 6231TIP3   OH240107   5.078   1.045   3.990 -0.1983  0.4434 -0.3036
 6231TIP3    H140108   5.090   1.036   3.896  0.9958  3.4201 -0.5027
 6231TIP3    H240109   5.162   1.017   4.027 -1.2859 -2.5244  0.0675
 6232TIP3   OH240110   0.475   1.593  13.234  0.2297 -0.3693 -0.0293
 6232TIP3    H140111   0.546   1.533  13.213  0.7559 -0.8385  2.8290
 6232TIP3    H240112   0.395   1.541  13.225  0.5513 -0.9736  0.5487
 6233TIP3   OH240113   3.287   6.036   3.545 -0.0465  0.1579  0.4350
 6233TIP3    H140114   3.321   5.947   3.560  0.1435  0.2269  0.4129
 6233TIP3    H240115   3.304   6.082   3.627  1.4960  0.6979 -0.1681
 6234TIP3   OH240116   2.125   4.917  13.303  0.1847 -0.2777 -0.0189
 6234TIP3    H140117   2.188   4.921  13.231 -1.2119 -0.2620 -1.2543
 6234TIP3    H240118   2.080   4.833  13.291 -1.8663  0.8884 -0.7206
 6235TIP3   OH240119   6.395   0.282   1.515 -0.2460 -0.0033 -0.2081
 6235TIP3    H140120   6.376   0.341   1.589  0.5947  2.2752 -1.7690
 6235TIP3    H240121   6.479   0.312   1.481 -0.1859 -1.6335 -1.5367
 6236TIP3   OH240122   0.472   0.902   0.977  0.2301 -0.4658  0.1050
 6236TIP3    H140123   0.427   0.984   0.998 -3.0237 -2.1706  0.2435
 6236TIP3    H240124   0.438   0.878   0.890  0.5352 -2.0115  0.3939
 6237TIP3   OH240125   6.224   2.849  15.124 -0.0334  0.0926  0.4166
 6237TIP3    H140126   6.315   2.874  15.107 -0.3656  0.2722 -1.1617
 6237TIP3    H240127   6.190   2.921  15.177  1.0277 -0.4795  1.9094
 6238TIP3   OH240128   6.327   2.833  12.008 -0.6723 -0.8368  0.2792
 6238TIP3    H140129   6.356   2.825  12.099 -1.9200 -2.7589  0.5446
 6238TIP3    H240130   6.231   2.827  12.013 -0.8044 -0.0213 -1.0808
 6239TIP3   OH240131   6.225   6.393   0.345  0.2769 -0.0634 -0.4793
 6239TIP3    H140132   6.157   6.442   0.300 -1.5880 -1.4538  0.7814
 6239TIP3    H240133   6.243   6.319   0.286 -0.5111 -0.6184 -0.0241
 6240TIP3   OH240134   5.032   6.318   1.590 -0.2881  0.1557 -0.1978
 6240TIP3    H140135   5.027   6.224   1.572 -0.9820  0.4891 -1.8541
 6240TIP3    H240136   5.125   6.339   1.579 -0.3350 -0.0958 -1.1289
 6241TIP3   OH240137   0.740   4.759   0.067  0.1432 -0.1908 -0.2250
 6241TIP3    H140138   0.726   4.672   0.105 -1.9575 -0.0887 -0.7334
 6241TIP3    H240139   0.826   4.752   0.024  0.6893 -1.5373  1.0478
 6242TIP3   OH240140   1.288   0.500   1.413 -0.0236  0.1020  0.1427
 6242TIP3    H140141   1.268   0.493   1.319  1.0601 -1.3260 -0.0030
 6242TIP3    H240142   1.350   0.573   1.418 -0.1500  0.2386 -0.2544
 6243TIP3   OH240143   2.801   2.961   3.603  0.1389 -0.5450 -0.5123
 6243TIP3    H140144   2.736   2.907   3.649  1.3392 -0.4706  1.3371
 6243TIP3    H240145   2.750   3.010   3.538 -1.5900 -0.8342  0.5928
 6244TIP3   OH240146   2.725   0.020   1.183 -0.7852 -0.1204 -0.2073
 6244TIP3    H140147   2.688   0.108   1.188  0.9219  0.7802 -2.5014
 6244TIP3    H240148   2.677  -0.022   1.112 -0.5662 -0.5142 -0.1221
 6245TIP3   OH240149   6.303   2.888   3.500  0.0035  0.0271 -0.1384
 6245TIP3    H140150   6.310   2.941   3.579  1.4014  1.0351 -0.9104
 6245TIP3    H240151   6.246   2.815   3.524 -0.1118  0.6766  1.5922
 6246TIP3   OH240152   2.693   6.116  14.842  0.5770 -0.0930 -0.2351
 6246TIP3    H140153   2.735   6.062  14.910 -0.4681 -2.1672 -1.1955
 6246TIP3    H240154   2.750   6.106  14.765 -0.3143 -0.9186 -0.8039
 6247TIP3   OH240155   5.966   0.531  13.819 -0.3373 -0.7410 -0.1801
 6247TIP3    H140156   5.877   0.562  13.801  1.3601  3.5188 -1.7353
 6247TIP3    H240157   5.994   0.489  13.737  0.1981  0.7422 -0.7646
 6248TIP3   OH240158   6.610   2.145  12.111 -1.1662  0.3261 -0.0151
 6248TIP3    H140159   6.655   2.116  12.191  0.9385  0.0766 -1.2440
 6248TIP3    H240160   6.622   2.240  12.110 -0.8881  0.2896 -0.2078
 6249TIP3   OH240161   1.703   1.038  15.464 -0.4623  0.1059 -0.0035
 6249TIP3    H140162   1.725   0.962  15.411  0.1594  0.3040 -0.0319
 6249TIP3    H240163   1.642   1.088  15.410 -0.8005 -0.3260 -0.0221
 6250TIP3   OH240164   0.537   6.441  11.400  0.4707 -0.0202  0.4350
 6250TIP3    H140165   0.527   6.423  11.306  0.1897  2.3854 -0.0336
 6250TIP3    H240166   0.512   6.359  11.443  3.0516 -2.0087 -1.6535
 6251TIP3   OH240167   6.608   0.841  11.821 -0.3321 -0.7471 -0.4446
 6251TIP3    H140168   6.678   0.788  11.782 -0.3791 -0.2455 -1.2067
 6251TIP3    H240169   6.539   0.777  11.843 -0.3265 -1.0193 -1.2211
 6252TIP3   OH240170   6.031   2.959  14.464  0.4537  0.3820 -0.3461
 6252TIP3    H140171   6.095   3.007  14.411  1.8473 -1.3192 -0.2127
 6252TIP3    H240172   6.071   2.952  14.550 -1.1099  1.7029  0.5268
 6253TIP3   OH240173   5.188   1.329   2.697 -0.4466  0.4110  0.7390
 6253TIP3    H140174   5.254   1.349   2.630 -1.3791  3.0816  0.5732
 6253TIP3    H240175   5.232   1.266   2.754  0.2688 -2.2110 -2.5023
 6254TIP3   OH240176   4.958   6.115  10.986 -0.1605 -0.4888  0.0258
 6254TIP3    H140177   4.910   6.036  11.011  1.5509 -1.3533  0.6703
 6254TIP3    H240178   4.937   6.178  11.054  0.1460 -1.0805  0.6796
 6255TIP3   OH240179   4.293   1.398   3.176  0.0434  0.9298  0.5492
 6255TIP3    H140180   4.216   1.429   3.223 -0.7489  2.2424 -1.5442
 6255TIP3    H240181   4.318   1.471   3.120  0.6259 -0.7347 -1.4501
 6256TIP3   OH240182   3.689   4.874  11.163 -0.2470  0.0867  0.2752
 6256TIP3    H140183   3.784   4.868  11.170 -0.1280  2.3707  1.1497
 6256TIP3    H240184   3.673   4.903  11.074 -0.0881  0.4372  0.3605
 6257TIP3   OH240185   4.053   0.189   3.753 -0.2795 -0.0458  0.2696
 6257TIP3    H140186   4.006   0.252   3.698 -0.2645 -0.5193 -0.2995
 6257TIP3    H240187   3.999   0.110   3.750  0.4442 -0.5406 -0.2469
 6258TIP3   OH240188   0.167   0.246   5.239  0.0816  0.0040 -0.3213
 6258TIP3    H140189   0.133   0.252   5.150  1.6186 -0.5148 -0.9678
 6258TIP3    H240190   0.261   0.229   5.228  0.3753  0.3524  1.3934
 6259TIP3   OH240191   6.285   3.805  15.565  0.1929 -0.1806 -0.1160
 6259TIP3    H140192   6.315   3.892  15.593  2.0820 -0.3840 -1.4214
 6259TIP3    H240193   6.307   3.748  15.639  0.1934  0.2056  0.1908
 6260TIP3   OH240194   1.910   4.270   4.950 -0.1469  0.1045 -0.3279
 6260TIP3    H140195   1.858   4.233   5.021 -0.3922 -0.3396 -0.7369
 6260TIP3    H240196   1.876   4.228   4.870 -0.2721  1.0298 -0.7728
 6261TIP3   OH240197   2.379   4.644  12.074  0.0410  0.0520  0.0889
 6261TIP3    H140198   2.425   4.704  12.016 -1.5387 -0.1112 -1.3861
 6261TIP3    H240199   2.448   4.603  12.127  1.3602  1.2610 -0.6737
 6262TIP3   OH240200   0.598   4.005   5.179  0.3678 -0.1071 -0.5457
 6262TIP3    H140201   0.594   4.093   5.142 -1.5144 -0.1322 -0.4492
 6262TIP3    H240202   0.567   4.016   5.269 -2.2262 -1.2473 -1.2672
 6263TIP3   OH240203   0.390   3.812   5.673  0.3300  0.3912 -0.6292
 6263TIP3    H140204   0.472   3.765   5.689 -0.1023  0.1473  0.9163
 6263TIP3    H240205   0.323   3.760   5.717 -0.8146  0.0920 -2.6529
 6264TIP3   OH240206   6.138   5.165   5.952  0.1933 -0.1650  0.5560
 6264TIP3    H140207   6.228   5.134   5.964  0.8449  0.7596 -1.6919
 6264TIP3    H240208   6.122   5.224   6.026  1.4202 -0.3398  0.9648
 6265TIP3   OH240209   4.667   5.259  14.163 -0.4368  0.4057 -0.1504
 6265TIP3    H140210   4.729   5.230  14.096  0.9837  0.3126  1.1740
 6265TIP3    H240211   4.582   5.260  14.118  0.8267  2.8676 -2.7028
 6266TIP3   OH240212   3.669   5.611   4.215  0.1784 -0.5553  0.0107
 6266TIP3    H140213   3.679   5.523   4.180  1.4493 -0.9993  1.4442
 6266TIP3    H240214   3.674   5.600   4.310 -0.9801  0.8992  0.2637
 6267TIP3   OH240215   4.627   1.360  11.701 -0.2811  0.3595  0.5006
 6267TIP3    H140216   4.594   1.292  11.642  0.3095  0.7443 -0.2737
 6267TIP3    H240217   4.553   1.418  11.715 -0.5781 -0.0336  0.5757
 6268TIP3   OH240218   6.309   1.666  13.243  0.3815  0.1580  0.0095
 6268TIP3    H140219   6.376   1.703  13.300  0.1834  0.3772  0.0955
 6268TIP3    H240220   6.329   1.702  13.156  0.2411  0.3972  0.0761
 6269TIP3   OH240221   4.465   2.784   6.560 -0.5776 -0.6695  0.7801
 6269TIP3    H140222   4.454   2.795   6.655  0.2137 -1.4584  0.9676
 6269TIP3    H240223   4.513   2.702   6.551 -0.7763 -0.6668 -0.3162
 6270TIP3   OH240224   1.399   2.183  13.784  0.2273  0.6672  0.2960
 6270TIP3    H140225   1.432   2.250  13.844  0.0064 -0.7361  2.0223
 6270TIP3    H240226   1.308   2.207  13.769  0.2844  1.0194  0.5048
 6271TIP3   OH240227   4.177   1.292   3.596 -0.4336 -0.3718  0.8300
 6271TIP3    H140228   4.108   1.278   3.661 -1.5982 -0.2951 -0.3735
 6271TIP3    H240229   4.170   1.385   3.572 -0.4552 -0.5628  0.0862
 6272TIP3   OH240230   2.197   5.390   2.072  0.6470 -0.5187 -0.6009
 6272TIP3    H140231   2.228   5.300   2.083 -0.3089 -0.6973  0.8496
 6272TIP3    H240232   2.262   5.444   2.117  0.5643 -0.6100 -0.3689
 6273TIP3   OH240233   1.917   1.203  14.795 -0.0423  0.7059 -0.8298
 6273TIP3    H140234   1.963   1.239  14.872  0.7691  0.4416 -1.1864
 6273TIP3    H240235   1.924   1.108  14.805 -1.9938  0.6351 -0.0059
 6274TIP3   OH240236   2.735   0.358   0.922  0.0299 -0.0723 -0.5730
 6274TIP3    H140237   2.704   0.448   0.932 -0.1477 -0.1801 -0.1399
 6274TIP3    H240238   2.761   0.351   0.830 -0.7794  0.1534 -0.8175
 6275TIP3   OH240239   2.202   3.555   2.566  0.1513 -0.0393 -0.4709
 6275TIP3    H140240   2.240   3.631   2.522  0.7551  0.1934  0.4383
 6275TIP3    H240241   2.108   3.559   2.544 -0.2520  2.3379  1.4875
 6276TIP3   OH240242   2.258   4.065   2.035  0.2088  0.1392 -0.2254
 6276TIP3    H140243   2.325   3.998   2.051  0.4033  0.3779 -0.0329
 6276TIP3    H240244   2.255   4.116   2.116  0.7483  0.9557 -0.7134
 6277TIP3   OH240245   5.129   2.749  11.543 -0.5106 -0.1330 -0.0182
 6277TIP3    H140246   5.177   2.831  11.532 -0.5931 -0.1477 -0.5011
 6277TIP3    H240247   5.197   2.681  11.545 -0.6413 -0.4960 -4.0035
 6278TIP3   OH240248   1.993   4.006   1.642 -0.3933  0.1720 -0.6008
 6278TIP3    H140249   2.051   3.931   1.654  0.6611  1.2730  1.5420
 6278TIP3    H240250   1.971   4.033   1.731  0.5603  3.3754 -1.2839
 6279TIP3   OH240251   0.380   1.575  16.529  0.4085  0.2206  0.0563
 6279TIP3    H140252   0.376   1.656  16.580  1.6350  0.2712  0.0880
 6279TIP3    H240253   0.449   1.524  16.570 -1.2288 -1.4208  0.8444
 6280TIP3   OH240254   6.760   5.643   5.516 -0.0591  0.4708 -0.0224
 6280TIP3    H140255   6.714   5.587   5.454  0.6948 -0.2665  0.0689
 6280TIP3    H240256   6.700   5.716   5.533 -0.1077  0.9093 -1.9435
 6281TIP3   OH240257   2.772   3.881   0.569 -0.7198  0.6432  0.0181
 6281TIP3    H140258   2.746   3.905   0.658  0.4059  0.4086  0.4207
 6281TIP3    H240259   2.822   3.956   0.537  0.3882  0.0186  0.2432
 6282TIP3   OH240260   1.067   0.102   4.258 -0.0401  0.0819 -0.5716
 6282TIP3    H140261   1.141   0.133   4.205  0.1636  0.9442  0.2035
 6282TIP3    H240262   1.103   0.094   4.346 -0.7484  0.0259 -0.2848
 6283TIP3   OH240263   0.842   4.596   6.950 -0.3942  0.2616 -0.5344
 6283TIP3    H140264   0.910   4.557   6.894 -0.4131  1.6527 -1.5410
 6283TIP3    H240265   0.801   4.663   6.895 -1.7679  0.2779  0.4798
 6284TIP3   OH240266   1.955   5.407   1.276  0.1071 -0.0884  0.5551
 6284TIP3    H140267   1.860   5.402   1.285  0.3368 -1.6607  2.5328
 6284TIP3    H240268   1.988   5.333   1.328  2.4111  0.4788 -0.0339
 6285TIP3   OH240269   6.688   6.040  17.027  0.0807  0.2573  0.5794
 6285TIP3    H140270   6.701   6.077  16.940  0.0795 -0.3354  0.3223
 6285TIP3    H240271   6.684   5.945  17.012 -0.3576  0.1816  1.1708
 6286TIP3   OH240272   1.027   3.478   4.307  0.2217 -0.1286 -0.6310
 6286TIP3    H140273   1.074   3.553   4.270 -1.4206  1.2582  0.0445
 6286TIP3    H240274   0.955   3.517   4.356 -0.2869 -2.1415  0.2444
 6287TIP3   OH240275   5.040   3.240  16.092  0.1970 -0.4423 -0.1558
 6287TIP3    H140276   5.121   3.275  16.057 -0.3543  0.3884 -0.6202
 6287TIP3    H240277   5.064   3.155  16.129  1.3200 -0.0856 -0.0607
 6288TIP3   OH240278   1.574   4.178  14.166  0.2743 -0.9184 -0.5245
 6288TIP3    H140279   1.522   4.198  14.088 -0.5097 -0.7762  0.0356
 6288TIP3    H240280   1.631   4.254  14.177 -0.4843 -0.3908 -0.2360
 6289TIP3   OH240281   0.471   6.759   3.385 -0.2269 -0.3031 -0.0738
 6289TIP3    H140282   0.418   6.762   3.464 -0.3215 -1.4528 -0.0901
 6289TIP3    H240283   0.477   6.666   3.363  0.4162 -0.0527 -0.9980
 6290TIP3   OH240284   2.464   0.096  14.064 -0.6454  0.1211  0.4260
 6290TIP3    H140285   2.559   0.091  14.075 -0.5391  1.0143 -0.0614
 6290TIP3    H240286   2.429   0.058  14.145  0.1279 -0.1677  0.6299
 6291TIP3   OH240287   1.612   4.641  11.101 -0.4387 -0.0185 -0.3534
 6291TIP3    H140288   1.536   4.614  11.153 -0.0833 -1.3914 -0.5215
 6291TIP3    H240289   1.674   4.569  11.110 -0.2987 -0.2101 -2.5330
 6292TIP3   OH240290   1.644   6.311   0.210  0.8333  0.1622 -0.3270
 6292TIP3    H140291   1.597   6.325   0.127  1.2408 -2.2722 -0.9979
 6292TIP3    H240292   1.736   6.305   0.184  1.3632  2.8669  0.7487
 6293TIP3   OH240293   0.381   4.121   1.389 -0.1414 -0.0428  0.3538
 6293TIP3    H140294   0.406   4.208   1.358  3.1075 -0.9542  0.2345
 6293TIP3    H240295   0.333   4.082   1.315  1.5474  0.3201 -0.9503
 6294TIP3   OH240296   0.850   4.013   2.228  0.0644 -0.4058 -0.4419
 6294TIP3    H140297   0.865   4.080   2.295 -1.4012  0.8978 -1.3799
 6294TIP3    H240298   0.921   3.949   2.241  2.1140  1.8502 -0.2094
 6295TIP3   OH240299   0.967   3.499   0.985  0.8221  0.1433  0.4108
 6295TIP3    H140300   0.945   3.575   0.932  1.1051  0.2463  0.4391
 6295TIP3    H240301   0.977   3.534   1.074 -0.9375 -0.2381  0.7712
 6296TIP3   OH240302   4.482   1.380  13.119  0.4500 -0.1027  0.0825
 6296TIP3    H140303   4.570   1.344  13.126  0.4840 -0.0829 -0.2419
 6296TIP3    H240304   4.424   1.303  13.128  0.5156 -0.1975 -0.2812
 6297TIP3   OH240305   2.292   5.763  15.621 -0.4044  0.1827 -0.5976
 6297TIP3    H140306   2.364   5.702  15.633 -2.0576 -1.5408  0.9419
 6297TIP3    H240307   2.306   5.830  15.688 -0.8541 -0.7860  0.4765
 6298TIP3   OH240308   2.896   2.340   4.193  0.5026 -0.1355  0.1458
 6298TIP3    H140309   2.937   2.295   4.267  0.6561  1.6911  1.2090
 6298TIP3    H240310   2.813   2.294   4.180 -1.0218  1.4151  3.5446
 6299TIP3   OH240311   4.154   2.640  17.085  0.3019  0.6520 -0.4441
 6299TIP3    H140312   4.113   2.720  17.117  2.8429  1.6978  0.3596
 6299TIP3    H240313   4.188   2.597  17.163 -1.0417 -1.2521 -0.8731
 6300TIP3   OH240314   2.273   6.598   5.105 -0.2733  0.0243 -0.1450
 6300TIP3    H140315   2.309   6.649   5.033 -2.7524  2.5782  0.3640
 6300TIP3    H240316   2.313   6.635   5.184  1.9125 -2.3152 -0.0999
 6301TIP3   OH240317   6.653   3.384  14.125 -0.1828  0.6006 -0.3112
 6301TIP3    H140318   6.662   3.352  14.036 -1.2964  1.4780 -0.7582
 6301TIP3    H240319   6.736   3.428  14.144  0.6190 -0.8580 -0.3672
 6302TIP3   OH240320   5.653   1.868   1.525 -0.2168  0.6709 -0.2065
 6302TIP3    H140321   5.680   1.816   1.449 -1.0341  2.3833 -1.7040
 6302TIP3    H240322   5.706   1.835   1.597  1.4800 -0.1352 -1.8004
 6303TIP3   OH240323   0.087   4.468  13.270 -0.0484  0.3650  0.0640
 6303TIP3    H140324  -0.004   4.475  13.242  0.3577  1.7018 -0.9850
 6303TIP3    H240325   0.099   4.541  13.331  1.1326  2.0457 -2.1430
 6304TIP3   OH240326   3.075   3.408  15.744  0.3070 -0.4043  0.0824
 6304TIP3    H140327   3.105   3.317  15.741 -2.3816 -1.3256  0.0117
 6304TIP3    H240328   3.104   3.445  15.661  0.6280 -1.4569 -0.2913
 6305TIP3   OH240329   4.415   1.949   3.606  1.0843  0.4806  0.4383
 6305TIP3    H140330   4.429   1.954   3.511  0.9762  1.1347  0.4573
 6305TIP3    H240331   4.503   1.939   3.642  1.1222  0.1691  0.2662
 6306TIP3   OH240332   1.094   5.665   3.168 -0.0040 -0.1273  0.4642
 6306TIP3    H140333   1.007   5.683   3.205  0.0371  0.5588  0.2419
 6306TIP3    H240334   1.139   5.749   3.171  1.7379 -1.0960  3.3820
 6307TIP3   OH240335   5.684   0.396   1.763 -0.6840  0.3630  0.3787
 6307TIP3    H140336   5.621   0.436   1.823  1.1417  1.4071  1.6418
 6307TIP3    H240337   5.715   0.469   1.709 -0.0412 -0.0149  0.2315
 6308TIP3   OH240338   6.266   1.478  12.292  0.1518 -0.0248  0.3709
 6308TIP3    H140339   6.237   1.491  12.382  0.6704 -0.3211  0.5847
 6308TIP3    H240340   6.189   1.442  12.247 -0.8421  2.2928  0.1267
 6309TIP3   OH240341   5.433   2.324  13.944 -0.1989  0.1920 -0.0511
 6309TIP3    H140342   5.479   2.334  14.028 -0.8126  2.0919  0.0754
 6309TIP3    H240343   5.390   2.408  13.930 -1.1463 -0.5449 -1.6658
 6310TIP3   OH240344   0.994   3.127   2.668  0.0976  0.1112 -0.0029
 6310TIP3    H140345   1.080   3.169   2.674 -0.0147  0.2186  0.8657
 6310TIP3    H240346   1.009   3.036   2.691 -0.3254  0.5151  1.8999
 6311TIP3   OH240347   4.947   5.252   1.036  0.4493 -0.2301  0.3689
 6311TIP3    H140348   4.903   5.300   1.107  1.2967 -0.7599  1.2713
 6311TIP3    H240349   4.944   5.312   0.961 -1.0092  0.0943  0.6597
 6312TIP3   OH240350   1.480   1.592  15.070  0.4895 -0.0751 -0.7919
 6312TIP3    H140351   1.430   1.519  15.106  0.4283  1.2659  1.9561
 6312TIP3    H240352   1.563   1.554  15.044 -0.2768 -1.4783 -1.2300
 6313TIP3   OH240353   1.081   5.208   5.971 -0.2154 -0.2841 -0.8153
 6313TIP3    H140354   1.118   5.125   5.942 -0.7505 -1.3948  1.5927
 6313TIP3    H240355   1.017   5.231   5.904  0.9639 -1.0651 -2.2291
 6314TIP3   OH240356   4.635   6.159   3.395 -0.5703 -0.3949 -0.0585
 6314TIP3    H140357   4.626   6.171   3.301 -1.2357  1.9586  0.2792
 6314TIP3    H240358   4.706   6.216   3.421 -1.6282  0.4233  1.1345
 6315TIP3   OH240359   3.119   4.209   5.627 -0.6409 -0.6059 -0.7454
 6315TIP3    H140360   3.039   4.159   5.606 -0.1235 -2.2675  1.0723
 6315TIP3    H240361   3.094   4.264   5.700 -0.9787  1.2695 -2.2390
 6316TIP3   OH240362   4.919   2.119  14.222  0.8589 -0.4072  0.4092
 6316TIP3    H140363   4.911   2.059  14.296 -0.0274  0.4568  1.0338
 6316TIP3    H240364   4.829   2.129  14.189  0.6101  2.2894  1.7194
 6317TIP3   OH240365   2.094   5.533   0.050 -0.1947  0.1709  0.0125
 6317TIP3    H140366   2.090   5.475   0.125  0.3536  0.4824  0.2847
 6317TIP3    H240367   2.163   5.496  -0.006 -0.4478  0.0638 -0.2296
 6318TIP3   OH240368   4.525   2.611   5.043 -0.2373 -0.3818 -0.5095
 6318TIP3    H140369   4.483   2.623   5.128 -0.3999  1.5733 -0.8407
 6318TIP3    H240370   4.513   2.695   4.998  2.8143 -0.2264 -1.1518
 6319TIP3   OH240371   5.830   3.785  13.620 -0.9058  0.3603 -0.3198
 6319TIP3    H140372   5.890   3.761  13.691 -0.2945  3.3217  0.2209
 6319TIP3    H240373   5.871   3.748  13.541  1.7030  2.3377  0.0392
 6320TIP3   OH240374   6.361   5.765   1.633  0.7438  0.2941 -0.1426
 6320TIP3    H140375   6.442   5.737   1.675  0.2705  1.5417  1.6522
 6320TIP3    H240376   6.345   5.853   1.667 -1.1589  0.2166 -0.7674
 6321TIP3   OH240377   3.906   3.300  11.679 -0.6100  0.4633  0.2180
 6321TIP3    H140378   3.977   3.279  11.618 -0.5599 -0.4429  0.5820
 6321TIP3    H240379   3.842   3.231  11.665 -0.5952  0.2523  1.1926
 6322TIP3   OH240380   5.844   0.656  15.727 -0.4492  0.4575  0.5188
 6322TIP3    H140381   5.825   0.663  15.820 -0.6506 -0.4402  0.5462
 6322TIP3    H240382   5.817   0.741  15.691 -0.7414  0.6588  1.2066
 6323TIP3   OH240383   5.419   2.735   0.334 -0.0651  0.1722  0.3349
 6323TIP3    H140384   5.328   2.740   0.365  0.7161 -2.4879  3.3770
 6323TIP3    H240385   5.427   2.647   0.298  1.0051  0.7977 -0.9926
 6324TIP3   OH240386   2.208   5.019   2.632  0.1286 -0.3207 -0.1913
 6324TIP3    H140387   2.281   4.961   2.613 -0.1429 -1.0793  1.0585
 6324TIP3    H240388   2.209   5.083   2.560  3.5396  1.1799  1.0887
 6325TIP3   OH240389   0.444   2.066   2.039  0.1669 -0.1451  0.3342
 6325TIP3    H140390   0.443   2.160   2.056  0.9195  0.0556 -0.6658
 6325TIP3    H240391   0.413   2.057   1.949  0.8292 -0.7926  0.1610
 6326TIP3   OH240392   1.989   3.600  17.219 -0.6321 -0.6163 -0.2465
 6326TIP3    H140393   1.906   3.552  17.211 -0.8813 -0.1528 -0.4705
 6326TIP3    H240394   2.034   3.556  17.291 -1.4660 -0.3084  0.4784
 6327TIP3   OH240395   4.206   5.193  12.808  0.2691 -0.0451  0.2840
 6327TIP3    H140396   4.222   5.200  12.902 -0.3620  2.5634  0.2477
 6327TIP3    H240397   4.129   5.136  12.801  0.3393 -0.2866  1.3480
 6328TIP3   OH240398   1.924   2.291  12.716  0.0953  0.0866  0.2137
 6328TIP3    H140399   2.011   2.317  12.745  0.3525 -1.7775  1.1997
 6328TIP3    H240400   1.864   2.348  12.764  0.7599  1.5107 -0.6179
 6329TIP3   OH240401   5.674   0.224   3.969 -0.3766  0.2770  0.2116
 6329TIP3    H140402   5.648   0.133   3.980  0.9250 -0.2080 -0.6895
 6329TIP3    H240403   5.698   0.253   4.057  0.0685 -0.5239  0.3576
 6330TIP3   OH240404   0.476   2.058   4.507 -0.3112 -0.1329 -0.5314
 6330TIP3    H140405   0.397   2.100   4.541 -0.3854  0.6967 -1.7158
 6330TIP3    H240406   0.445   2.002   4.436  0.0832 -0.3254 -0.5516
 6331TIP3   OH240407   2.411   0.874   5.458  0.2002 -0.0239 -0.0348
 6331TIP3    H140408   2.319   0.870   5.433  0.2519 -3.8911  0.1560
 6331TIP3    H240409   2.410   0.907   5.548 -1.1164 -1.3667  0.4594
 6332TIP3   OH240410   5.694   0.554   4.512 -0.1002 -0.2306 -0.3489
 6332TIP3    H140411   5.684   0.561   4.607 -0.1356  0.9774 -0.4327
 6332TIP3    H240412   5.739   0.635   4.487  0.3560 -0.7770 -1.2962
 6333TIP3   OH240413   1.785   1.343  14.182 -0.0202 -0.1301  0.1117
 6333TIP3    H140414   1.833   1.261  14.167  0.4719  0.2403 -0.3450
 6333TIP3    H240415   1.694   1.315  14.193  0.1055 -0.7186 -0.2825
 6334TIP3   OH240416   2.884   5.777   1.124  0.9062  0.4883  0.1567
 6334TIP3    H140417   2.974   5.801   1.102  1.1552  0.9886  1.6449
 6334TIP3    H240418   2.861   5.834   1.197 -0.5852  0.2845 -0.1327
 6335TIP3   OH240419   0.060   5.809   2.982 -0.1334 -0.2557 -0.9508
 6335TIP3    H140420   0.058   5.798   3.077 -1.9307 -0.9508 -1.0386
 6335TIP3    H240421   0.142   5.767   2.955 -0.0931 -0.9491  0.1981
 6336TIP3   OH240422   0.772   2.248  10.730 -0.0131  0.0709  0.9790
 6336TIP3    H140423   0.732   2.200  10.657  1.9639  0.0074 -0.1171
 6336TIP3    H240424   0.813   2.180  10.783 -1.7028  0.0922  2.3368
 6337TIP3   OH240425   4.861   1.553  15.412 -0.3210 -0.8257  0.2400
 6337TIP3    H140426   4.945   1.599  15.409  0.0588 -1.3743  1.7847
 6337TIP3    H240427   4.802   1.608  15.361  0.7455  0.0732 -0.0606
 6338TIP3   OH240428   0.877   4.714   0.358  0.0767  0.4674 -0.2681
 6338TIP3    H140429   0.882   4.809   0.347  0.4339  0.3391 -1.3235
 6338TIP3    H240430   0.784   4.693   0.346 -0.3219  0.9005  1.9465
 6339TIP3   OH240431   6.776   1.468  12.662 -0.0061 -0.4208  0.2008
 6339TIP3    H140432   6.762   1.472  12.757  0.5667 -0.0061  0.2700
 6339TIP3    H240433   6.794   1.375  12.644 -0.2635 -0.5241  0.4758
 6340TIP3   OH240434   3.992   1.636   3.018  0.2512 -0.0525  0.3137
 6340TIP3    H140435   3.982   1.541   3.019  0.0187 -0.0242  0.7860
 6340TIP3    H240436   4.004   1.658   2.926  0.7567 -0.5874  0.2463
 6341TIP3   OH240437   3.510   0.166   3.736  0.1955  0.0699  0.3220
 6341TIP3    H140438   3.478   0.189   3.649 -1.2922  2.1693  1.3899
 6341TIP3    H240439   3.587   0.112   3.719  0.6024  1.3675 -2.3028
 6342TIP3   OH240440   0.592   2.228   4.186 -0.0253 -0.2121 -0.4290
 6342TIP3    H140441   0.556   2.288   4.120  0.3622  0.4820 -0.0176
 6342TIP3    H240442   0.598   2.281   4.265 -1.5434 -1.3468  0.4875
 6343TIP3   OH240443   3.245   3.499  13.608  0.0713 -0.6635 -0.2983
 6343TIP3    H140444   3.206   3.584  13.627  0.5141 -0.0042 -2.2139
 6343TIP3    H240445   3.264   3.461  13.694  0.1101  1.2715  0.5654
 6344TIP3   OH240446   1.100   6.672   3.761 -0.5020 -0.2377 -0.3494
 6344TIP3    H140447   1.072   6.682   3.852  1.1991  0.7519  0.0924
 6344TIP3    H240448   1.195   6.687   3.763 -0.1031 -2.2222 -1.9784
 6345TIP3   OH240449   4.881   3.338  14.976 -0.1415  0.5958  0.1254
 6345TIP3    H140450   4.862   3.244  14.975 -0.9765  0.7571  0.7451
 6345TIP3    H240451   4.823   3.374  15.042 -0.5229  1.7095 -0.8015
 6346TIP3   OH240452   0.544   2.261  14.508  0.5348  0.0317 -0.2976
 6346TIP3    H140453   0.599   2.337  14.490  0.8035 -0.4738 -1.6964
 6346TIP3    H240454   0.600   2.202  14.559  1.0213 -0.1179 -0.9931
 6347TIP3   OH240455   1.025   2.574  10.878  0.2075 -0.1556 -0.5357
 6347TIP3    H140456   1.081   2.540  10.948  2.0257  1.2418 -1.2548
 6347TIP3    H240457   1.065   2.540  10.797 -2.2653 -2.3344 -0.9041
 6348TIP3   OH240458   0.360   2.658   4.048 -0.8115 -0.2515  0.7233
 6348TIP3    H140459   0.336   2.751   4.056 -2.4427 -0.6128  0.1025
 6348TIP3    H240460   0.304   2.624   3.978  0.2123 -1.5684  0.5275
 6349TIP3   OH240461   2.439   1.387   2.806  0.3763  0.9385  0.4156
 6349TIP3    H140462   2.449   1.424   2.719 -2.4195  0.7547 -0.0261
 6349TIP3    H240463   2.389   1.453   2.854  0.6364  0.3875  1.4593
 6350TIP3   OH240464   0.532   0.837  13.933  0.2339 -0.7334  0.3357
 6350TIP3    H140465   0.512   0.879  13.849 -2.1281  0.1193  1.2768
 6350TIP3    H240466   0.461   0.866  13.991  1.7251 -1.4755  2.5690
 6351TIP3   OH240467   1.001   2.899  14.019  0.1276 -0.2598  0.8255
 6351TIP3    H140468   0.941   2.911  14.092 -0.2265 -1.7383  0.7926
 6351TIP3    H240469   1.073   2.847  14.056 -0.2167 -1.3023  0.0576
 6352TIP3   OH240470   2.937   1.094   5.400  0.1411  0.0869 -0.4339
 6352TIP3    H140471   2.845   1.088   5.375 -0.0503  0.0800  0.2806
 6352TIP3    H240472   2.940   1.160   5.469  0.4016 -1.2575  0.8493
 6353TIP3   OH240473   5.075   2.892   0.977 -0.7886  0.1051  0.0259
 6353TIP3    H140474   4.992   2.920   1.016 -0.9236 -1.9003  1.2357
 6353TIP3    H240475   5.140   2.905   1.045  0.2868  3.4830 -1.5501
 6354TIP3   OH240476   3.172   6.676   5.865 -0.7489  0.3856 -0.6348
 6354TIP3    H140477   3.224   6.596   5.868  0.3000  1.0310 -1.3496
 6354TIP3    H240478   3.221   6.739   5.918 -0.7100  1.0375 -1.4384
 6355TIP3   OH240479   5.213   2.442   0.704 -0.5112 -0.0698 -0.8329
 6355TIP3    H140480   5.292   2.494   0.689 -1.4417  2.0566  1.2933
 6355TIP3    H240481   5.141   2.504   0.692 -1.7133 -1.2401  0.1772
 6356TIP3   OH240482   2.118   4.260  12.074 -0.0586  0.3291 -0.5605
 6356TIP3    H140483   2.038   4.276  12.124  0.1159  2.2178 -0.8415
 6356TIP3    H240484   2.156   4.347  12.062  1.5787 -0.4629 -1.1863
 6357TIP3   OH240485   0.541   3.473   0.581 -0.3346  0.1764 -0.3780
 6357TIP3    H140486   0.518   3.400   0.639  0.8253  0.9495  1.0876
 6357TIP3    H240487   0.593   3.432   0.511 -1.4707 -0.7107 -0.7238
 6358TIP3   OH240488   5.208   2.529   6.257  0.4085  0.3594  0.3467
 6358TIP3    H140489   5.140   2.595   6.273  1.6147  1.6909  0.1257
 6358TIP3    H240490   5.165   2.445   6.276 -0.5509  1.3238  2.6012
 6359TIP3   OH240491   6.548   3.982  16.772  0.1968 -0.3912  0.5054
 6359TIP3    H140492   6.562   3.888  16.764 -1.0936 -0.5083 -0.4741
 6359TIP3    H240493   6.628   4.022  16.737  0.1501 -1.0996 -0.4105
 6360TIP3   OH240494   6.280   3.311   0.601  0.4123 -0.3836  0.0815
 6360TIP3    H140495   6.291   3.317   0.696  1.1904  0.5317 -0.0612
 6360TIP3    H240496   6.306   3.397   0.568  1.4630 -1.1297 -1.0857
 6361TIP3   OH240497   1.506   4.249   4.777  0.1472 -0.2300 -0.0894
 6361TIP3    H140498   1.597   4.238   4.804 -0.3186 -1.1702  1.1390
 6361TIP3    H240499   1.467   4.162   4.786 -1.5652  0.7165  2.1136
 6362TIP3   OH240500   3.578   5.630  14.437  0.2087 -0.1929 -0.6739
 6362TIP3    H140501   3.632   5.668  14.368 -0.0856  0.7798 -0.3740
 6362TIP3    H240502   3.510   5.696  14.454  0.0784 -0.5714  0.3061
 6363TIP3   OH240503   1.907   4.891  14.300 -0.0055  0.0494  0.2024
 6363TIP3    H140504   1.924   4.947  14.224 -0.8574  1.7844  1.2678
 6363TIP3    H240505   1.862   4.815  14.263 -1.7636  1.5644 -0.8627
 6364TIP3   OH240506   5.938   6.784  13.104  0.5805 -0.4069  0.2195
 6364TIP3    H140507   5.951   6.875  13.079  0.7084  0.3536  2.9288
 6364TIP3    H240508   6.022   6.756  13.140  0.6853 -1.7745 -0.9970
 6365TIP3   OH240509   3.346   2.275  13.893 -0.2149  0.2501 -0.0418
 6365TIP3    H140510   3.414   2.336  13.866  0.0684 -0.1729 -0.2893
 6365TIP3    H240511   3.291   2.264  13.816  0.6218 -0.9920 -0.4768
 6366TIP3   OH240512   2.591   4.610  12.243 -0.2684 -0.2714  0.1911
 6366TIP3    H140513   2.604   4.530  12.295 -0.4073 -0.5838 -0.2489
 6366TIP3    H240514   2.629   4.680  12.296 -0.1801 -0.6260  0.5979
 6367TIP3   OH240515   3.779   5.351   3.361  0.5310 -0.2936 -0.3808
 6367TIP3    H140516   3.816   5.331   3.275 -0.3466  1.8510 -1.3079
 6367TIP3    H240517   3.855   5.367   3.416  1.0964  2.0686 -1.7562
 6368TIP3   OH240518   2.545   3.041   6.349  0.0105  0.5804  0.8982
 6368TIP3    H140519   2.576   3.086   6.427  0.3606 -1.3599  1.9130
 6368TIP3    H240520   2.450   3.051   6.350  0.1177  1.5968  0.9086
 6369TIP3   OH240521   4.287   0.049  15.896  0.0779 -0.6473  0.0024
 6369TIP3    H140522   4.285   0.058  15.991 -1.2019 -0.4513 -0.0438
 6369TIP3    H240523   4.196   0.052  15.869  0.4475 -0.4282 -1.2631
 6370TIP3   OH240524   4.203   3.171   3.734  0.5512 -0.8493  0.3873
 6370TIP3    H140525   4.250   3.157   3.816  0.5689 -3.0720  0.0308
 6370TIP3    H240526   4.126   3.113   3.741  0.5827 -1.1001 -1.1715
 6371TIP3   OH240527   1.247   5.617   2.722 -0.3668 -0.3383 -0.1654
 6371TIP3    H140528   1.211   5.587   2.639 -0.1093  2.1413 -1.2148
 6371TIP3    H240529   1.336   5.647   2.700 -1.3729  3.1913  0.3637
 6372TIP3   OH240530   6.306   3.448  16.242  0.8373  0.4263  0.2170
 6372TIP3    H140531   6.338   3.533  16.212  3.0243 -1.2351 -2.3662
 6372TIP3    H240532   6.377   3.413  16.296  0.1387 -0.0102  0.8796
 6373TIP3   OH240533   5.398   1.606   1.456  0.0150  0.3311 -0.4878
 6373TIP3    H140534   5.423   1.635   1.544  1.0640  0.3902 -0.7966
 6373TIP3    H240535   5.477   1.620   1.403  0.4051 -2.5670 -0.7620
 6374TIP3   OH240536   0.734   3.534   3.274  0.1737 -0.3307  0.4363
 6374TIP3    H140537   0.789   3.612   3.269  0.6167 -0.6311  0.5565
 6374TIP3    H240538   0.753   3.497   3.360 -2.8931  1.5028  1.9957
 6375TIP3   OH240539   3.653   2.719  12.904  0.5505 -0.9952 -0.0286
 6375TIP3    H140540   3.663   2.800  12.854  0.9537 -0.6895  0.5454
 6375TIP3    H240541   3.673   2.649  12.841  0.2544 -0.6505 -0.5054
 6376TIP3   OH240542   4.704   0.950  10.920 -0.5260  0.2721 -0.6173
 6376TIP3    H140543   4.626   0.961  10.866 -0.8168  2.9229  0.2326
 6376TIP3    H240544   4.775   0.937  10.858 -1.3972 -0.3831 -1.4809
 6377TIP3   OH240545   1.843   6.562   2.156  0.4370  0.1728 -0.0073
 6377TIP3    H140546   1.913   6.598   2.102  2.1902 -1.3093  1.2254
 6377TIP3    H240547   1.834   6.471   2.127 -2.2063  0.8160 -1.3400
 6378TIP3   OH240548   3.064   2.870   4.504  0.0049  0.2825  0.3229
 6378TIP3    H140549   3.036   2.849   4.593  0.6367 -1.5838  0.1094
 6378TIP3    H240550   3.157   2.891   4.512 -0.1070  0.8250  0.2064
 6379TIP3   OH240551   1.931   0.220   1.297 -0.4399  0.7896  0.2541
 6379TIP3    H140552   1.924   0.258   1.385 -1.4745  2.6247 -0.6038
 6379TIP3    H240553   1.972   0.288   1.244  1.7490 -0.9334 -0.3363
 6380TIP3   OH240554   5.997   3.283  15.713  0.4278 -0.4094  0.3150
 6380TIP3    H140555   6.022   3.367  15.675  1.1862 -1.4007 -1.3922
 6380TIP3    H240556   5.910   3.266  15.678 -0.2280  0.2145  1.6036
 6381TIP3   OH240557   0.401   6.395   3.982 -0.8583  0.4232 -0.2886
 6381TIP3    H140558   0.309   6.407   3.958 -1.4301  1.1242  2.1685
 6381TIP3    H240559   0.405   6.307   4.020 -0.6944  0.7651  0.4809
 6382TIP3   OH240560   0.896   1.953  16.555  0.2147 -0.4538 -0.3461
 6382TIP3    H140561   0.939   1.960  16.470 -1.2834 -1.7886 -1.2447
 6382TIP3    H240562   0.829   1.886  16.542 -1.4664  0.8832  1.2901
 6383TIP3   OH240563   3.652   3.323   3.433 -0.3826 -0.1902  0.5375
 6383TIP3    H140564   3.621   3.350   3.347 -0.4817 -0.0483  0.6171
 6383TIP3    H240565   3.742   3.293   3.418 -1.4057 -3.0103 -0.1121
 6384TIP3   OH240566   0.996   4.505  12.558  0.8660 -0.1026  0.0516
 6384TIP3    H140567   1.004   4.453  12.478  2.4659  0.5555 -0.2410
 6384TIP3    H240568   1.038   4.451  12.626  0.9102  0.0126  0.1167
 6385TIP3   OH240569   3.754   6.603  16.600 -0.1230 -0.1005  0.3124
 6385TIP3    H140570   3.671   6.588  16.644  0.6185 -2.1512  1.1055
 6385TIP3    H240571   3.777   6.693  16.620 -1.5890  0.1229  1.0427
 6386TIP3   OH240572   5.144   6.152  17.104  0.0242 -0.2279  0.2761
 6386TIP3    H140573   5.061   6.118  17.069  0.0925  1.4566 -1.5911
 6386TIP3    H240574   5.193   6.073  17.127 -1.2459 -1.3192 -0.6292
 6387TIP3   OH240575   6.115   5.642   6.022  0.8179 -0.1202  0.4836
 6387TIP3    H140576   6.209   5.647   6.002  0.3814  0.6780 -1.4983
 6387TIP3    H240577   6.111   5.598   6.107  2.9669 -0.5432  0.3999
 6388TIP3   OH240578   4.415   3.580   1.298  0.4157 -0.3109 -0.1094
 6388TIP3    H140579   4.329   3.569   1.339 -0.1592 -0.3440 -1.3024
 6388TIP3    H240580   4.398   3.570   1.204  1.7315 -0.3666 -0.3481
 6389TIP3   OH240581   0.332   5.019   5.820  0.3903 -0.8803  0.4583
 6389TIP3    H140582   0.412   4.970   5.844  0.3778 -1.6417 -1.0154
 6389TIP3    H240583   0.345   5.042   5.729 -0.7194 -0.2645  0.4539
 6390TIP3   OH240584   1.970   4.838  11.834  0.4058 -0.3981 -0.6156
 6390TIP3    H140585   1.910   4.840  11.759  0.2180 -0.5474 -0.4692
 6390TIP3    H240586   1.918   4.803  11.906  0.4012  0.3466 -0.2494
 6391TIP3   OH240587   4.524   6.169  15.579  0.9081  0.2625 -0.5562
 6391TIP3    H140588   4.557   6.238  15.637  2.4931  0.1012 -1.2423
 6391TIP3    H240589   4.567   6.186  15.495 -0.8221  0.0746 -1.5097
 6392TIP3   OH240590   3.904   2.681   3.900  0.1598 -0.2713  0.3401
 6392TIP3    H140591   3.999   2.689   3.888  0.2427 -0.9410  0.5521
 6392TIP3    H240592   3.867   2.736   3.831  0.7219  1.5573  1.4266
 6393TIP3   OH240593   1.080   4.041  11.767  0.2816 -0.6331 -0.1009
 6393TIP3    H140594   1.036   4.055  11.683  0.3254 -0.1962 -0.0522
 6393TIP3    H240595   1.059   4.118  11.818  0.8632 -0.5546  0.0284
 6394TIP3   OH240596   0.720   6.448  11.871  0.4024  0.4158 -0.0223
 6394TIP3    H140597   0.639   6.500  11.873 -0.1534 -0.4360 -0.3555
 6394TIP3    H240598   0.784   6.506  11.830  0.3075  1.5706  1.3740
 6395TIP3   OH240599   1.512   4.631   1.794 -0.1604  0.2344 -0.0371
 6395TIP3    H140600   1.444   4.596   1.852 -0.0601  2.4829  1.4920
 6395TIP3    H240601   1.464   4.690   1.735  0.0096 -0.6742 -1.1068
 6396TIP3   OH240602   5.119   5.222  16.407  0.8223  0.4919  0.5565
 6396TIP3    H140603   5.117   5.246  16.314  0.9567  0.3189  0.5095
 6396TIP3    H240604   5.027   5.216  16.432  0.7683 -0.7306  0.1028
 6397TIP3   OH240605   2.756   0.132  14.047  0.3339 -0.0099  0.5157
 6397TIP3    H140606   2.821   0.090  13.991  0.2411 -0.2641  0.5991
 6397TIP3    H240607   2.754   0.079  14.127 -0.8354 -0.7001  0.0347
 6398TIP3   OH240608   0.624   5.632   6.506  0.0247 -0.0836 -0.2731
 6398TIP3    H140609   0.607   5.674   6.421  1.7731 -2.6790 -1.9756
 6398TIP3    H240610   0.555   5.666   6.563 -2.7391 -0.1894 -3.3908
 6399TIP3   OH240611   3.898   6.306  12.801  0.1547  0.1291 -0.3587
 6399TIP3    H140612   3.941   6.386  12.833 -1.4365  1.5763 -1.7157
 6399TIP3    H240613   3.871   6.259  12.880  1.0698  0.9530  0.4557
 6400TIP3   OH240614   0.605   4.654   3.519 -0.6987  0.1859  0.4123
 6400TIP3    H140615   0.568   4.566   3.514  0.7312 -0.4797  1.2840
 6400TIP3    H240616   0.665   4.659   3.444  1.4342 -0.6713  1.9862
 6401TIP3   OH240617   2.599   1.232   5.479  0.3427 -0.2879 -0.1244
 6401TIP3    H140618   2.598   1.321   5.443 -1.5078 -0.3415 -0.2681
 6401TIP3    H240619   2.627   1.243   5.570  1.0288  0.3318 -0.4086
 6402TIP3   OH240620   1.538   4.858  11.463  0.5008  0.1028  0.2232
 6402TIP3    H140621   1.443   4.844  11.467  0.5460 -1.7974 -3.7468
 6402TIP3    H240622   1.548   4.942  11.418  0.6941 -0.8341 -1.5267
 6403TIP3   OH240623   5.980   1.174  16.909  0.0507  0.4520  0.1233
 6403TIP3    H140624   5.895   1.166  16.866  0.4453 -0.1849 -0.5710
 6403TIP3    H240625   5.983   1.263  16.941  0.4647  1.5639 -2.7984
 6404TIP3   OH240626   3.177   4.429   3.106 -0.1842  0.0325  0.5978
 6404TIP3    H140627   3.240   4.360   3.129  0.7545  0.5556 -0.3463
 6404TIP3    H240628   3.125   4.441   3.185  0.4764 -0.8723  1.1891
 6405TIP3   OH240629   1.176   6.331   4.112  0.7462  0.5407 -0.4655
 6405TIP3    H140630   1.254   6.346   4.059  1.0668 -2.4095 -0.9123
 6405TIP3    H240631   1.103   6.352   4.053  1.1504 -0.3913 -1.3262
 6406TIP3   OH240632   6.224   2.135   0.296 -0.6068 -0.0617 -0.4374
 6406TIP3    H140633   6.253   2.100   0.380 -1.5317  0.5736  0.1588
 6406TIP3    H240634   6.196   2.225   0.315 -1.7217 -0.2233 -1.2243
 6407TIP3   OH240635   5.630   2.800   0.908  0.1418 -0.2531  0.1282
 6407TIP3    H140636   5.694   2.827   0.974  1.0683  0.2495 -0.9406
 6407TIP3    H240637   5.586   2.724   0.946  1.5755 -0.7720  0.7870
 6408TIP3   OH240638   0.177   0.148   4.754  0.4499 -0.0953  0.5566
 6408TIP3    H140639   0.239   0.152   4.681 -0.0598  0.5075  0.1523
 6408TIP3    H240640   0.193   0.063   4.794  0.3751 -0.6478 -0.5733
 6409TIP3   OH240641   4.948   2.172   2.467  0.5147 -0.2918 -0.2645
 6409TIP3    H140642   4.902   2.106   2.416  1.5642 -1.8983  0.8478
 6409TIP3    H240643   4.915   2.256   2.432  1.0719 -1.3254 -3.4933
 6410TIP3   OH240644   0.490   2.697   6.027  0.1587 -0.6384 -0.1331
 6410TIP3    H140645   0.442   2.628   5.981  1.1407  0.1043 -2.3535
 6410TIP3    H240646   0.460   2.779   5.988 -0.1392  0.1449  1.6703
 6411TIP3   OH240647   6.280   1.374   1.289 -0.7310  0.5683  0.2940
 6411TIP3    H140648   6.194   1.331   1.286 -0.9026  0.8804  0.5870
 6411TIP3    H240649   6.270   1.442   1.357 -0.5255  1.1873 -0.2876
 6412TIP3   OH240650   3.419   1.314   6.060 -0.2356 -0.3749 -0.6245
 6412TIP3    H140651   3.329   1.339   6.039 -0.5083 -2.2061 -1.7609
 6412TIP3    H240652   3.411   1.254   6.133  0.0690 -0.5914 -0.7684
 6413TIP3   OH240653   3.557   4.231   3.662  0.2806  0.1258 -0.8082
 6413TIP3    H140654   3.586   4.323   3.666  1.5984 -0.3490  1.4428
 6413TIP3    H240655   3.603   4.194   3.587  1.5385  0.7161 -0.3302
 6414TIP3   OH240656   0.220   3.077   1.988 -0.4764 -0.5297  0.2003
 6414TIP3    H140657   0.269   3.039   1.915  1.5729 -1.4434  2.0054
 6414TIP3    H240658   0.243   3.170   1.987  1.6564 -1.0215  1.2837
 6415TIP3   OH240659   4.125   3.945   3.538 -0.3407 -0.3284  0.2244
 6415TIP3    H140660   4.080   3.924   3.620  1.0462  0.5936  1.2440
 6415TIP3    H240661   4.056   3.941   3.471 -1.6463 -0.2957  1.5448
 6416TIP3   OH240662   4.940   3.618   6.089 -0.3934 -0.1725 -0.3416
 6416TIP3    H140663   4.953   3.713   6.080 -0.2726 -0.2136 -0.5866
 6416TIP3    H240664   5.025   3.585   6.119 -0.2206 -0.3036 -0.9738
 6417TIP3   OH240665   4.498   4.523   3.870  0.4820 -0.1686 -0.4320
 6417TIP3    H140666   4.506   4.616   3.852  2.0424 -0.4624 -1.4293
 6417TIP3    H240667   4.481   4.517   3.964 -0.5475  1.1389 -0.5284
 6418TIP3   OH240668   0.553   6.390   3.447  0.6115  0.0225 -0.3424
 6418TIP3    H140669   0.509   6.370   3.530  0.5219  0.5231 -0.2661
 6418TIP3    H240670   0.578   6.304   3.412  1.0525 -0.1650  0.4165
 6419TIP3   OH240671   4.390   1.628   4.748  0.1088 -0.7506 -0.8107
 6419TIP3    H140672   4.483   1.644   4.763 -0.0701  1.2040 -1.6356
 6419TIP3    H240673   4.376   1.538   4.777  1.9634 -0.6147  0.5807
 6420TIP3   OH240674   3.027   0.655  13.274  0.1016 -0.4997  0.4355
 6420TIP3    H140675   3.120   0.632  13.274 -0.2452 -1.9531  1.2219
 6420TIP3    H240676   3.008   0.678  13.365 -0.4025 -0.5749  0.3491
 6421TIP3   OH240677   1.201   1.497  13.491  0.1239 -0.2533  0.1573
 6421TIP3    H140678   1.280   1.502  13.437 -1.5153 -1.7930 -2.4570
 6421TIP3    H240679   1.146   1.433  13.447 -3.5232  2.3397  0.7460
 6422TIP3   OH240680   3.649   0.393   0.960  0.3014 -0.3892 -0.0684
 6422TIP3    H140681   3.689   0.477   0.984  1.5064 -0.6121 -1.2551
 6422TIP3    H240682   3.592   0.415   0.886 -0.3292 -0.4104  0.4049
 6423TIP3   OH240683   6.274   3.201  15.110 -0.6965 -0.6090  0.3083
 6423TIP3    H140684   6.340   3.155  15.161  0.2594  0.4946  0.0746
 6423TIP3    H240685   6.190   3.168  15.144 -0.0419 -1.9769  0.6291
 6424TIP3   OH240686   6.338   0.806   3.413 -0.3632 -0.2765  0.0027
 6424TIP3    H140687   6.346   0.711   3.409 -3.1679 -0.4654 -4.0644
 6424TIP3    H240688   6.334   0.834   3.321 -0.2556  3.7146  1.1084
 6425TIP3   OH240689   5.968   3.432  15.266 -0.1276  0.0843 -0.2565
 6425TIP3    H140690   5.906   3.496  15.230 -0.6873 -1.1632 -1.5565
 6425TIP3    H240691   5.919   3.389  15.336  0.1178  0.7778  0.3560
 6426TIP3   OH240692   1.729   1.231   1.985  0.1882  0.0477  0.6538
 6426TIP3    H140693   1.748   1.170   1.914 -1.3385 -0.8573  0.9992
 6426TIP3    H240694   1.647   1.273   1.960  0.8052  1.3686  0.8224
 6427TIP3   OH240695   2.725   4.420  15.226 -0.4588 -0.0150  0.4589
 6427TIP3    H140696   2.704   4.327  15.216  0.1941 -0.1787  0.5758
 6427TIP3    H240697   2.641   4.461  15.247 -0.4194 -0.8954  2.4824
 6428TIP3   OH240698   1.604   5.208   2.820 -0.2911  0.0002 -0.0148
 6428TIP3    H140699   1.650   5.142   2.873 -0.4218 -1.0884 -1.2166
 6428TIP3    H240700   1.629   5.292   2.858 -0.8849 -0.7754  2.1648
 6429TIP3   OH240701   5.747   1.155   5.913  0.0293  0.5866 -0.0728
 6429TIP3    H140702   5.664   1.183   5.875 -0.5783  0.6460  1.2664
 6429TIP3    H240703   5.724   1.080   5.969  1.0431 -0.0927 -0.5449
 6430TIP3   OH240704   1.313   2.856   2.243  0.0451  0.0737  0.4164
 6430TIP3    H140705   1.268   2.876   2.161  0.5257 -0.8936 -0.0859
 6430TIP3    H240706   1.313   2.760   2.247  0.3447  0.1152  1.3665
 6431TIP3   OH240707   3.877   3.732  11.464 -0.3299  0.0056  0.1425
 6431TIP3    H140708   3.800   3.776  11.427 -0.8736 -0.0984  1.1592
 6431TIP3    H240709   3.850   3.642  11.477 -0.7864  0.4893  2.6730
 6432TIP3   OH240710   5.868   0.703  16.914 -0.0100 -0.2493  0.2697
 6432TIP3    H140711   5.856   0.636  16.847  1.3830  0.1163 -0.3633
 6432TIP3    H240712   5.912   0.657  16.986 -0.2271 -0.3169  0.3594
 6433TIP3   OH240713   0.024   4.647  14.067 -0.2077  0.0198  0.2715
 6433TIP3    H140714   0.008   4.741  14.057 -0.6325 -0.1779 -1.0177
 6433TIP3    H240715  -0.026   4.622  14.144 -0.0186  0.8715  0.6699
 6434TIP3   OH240716   2.295   2.217   0.558 -0.2456 -0.1014 -0.0411
 6434TIP3    H140717   2.347   2.225   0.638 -0.3937 -0.6808  0.1160
 6434TIP3    H240718   2.230   2.150   0.579 -1.9093  1.5468  0.2294
 6435TIP3   OH240719   1.535   4.916   6.397 -0.4704  0.3195  0.4361
 6435TIP3    H140720   1.480   4.987   6.427 -2.6826 -0.8310 -0.7522
 6435TIP3    H240721   1.518   4.844   6.458  1.3743  0.6142  1.3397
 6436TIP3   OH240722   4.589   6.367  13.103  0.1062  0.2281 -0.1047
 6436TIP3    H140723   4.655   6.299  13.092 -0.5781 -0.1617 -1.9722
 6436TIP3    H240724   4.635   6.449  13.086  0.8524  0.2214  1.8196
 6437TIP3   OH240725   1.247   5.364  13.996 -0.0327 -0.6346 -0.4159
 6437TIP3    H140726   1.306   5.329  14.062  0.0974 -0.0691 -0.2351
 6437TIP3    H240727   1.195   5.288  13.968 -1.0919 -0.6088  1.3871
 6438TIP3   OH240728   0.859   2.465  10.585 -0.2189 -0.4613 -0.0380
 6438TIP3    H140729   0.942   2.431  10.554 -0.9538 -1.4234 -0.9806
 6438TIP3    H240730   0.824   2.396  10.642 -0.3289 -0.0236  0.4324
 6439TIP3   OH240731   3.062   5.790  11.456 -0.2736 -0.0076 -0.1190
 6439TIP3    H140732   3.127   5.846  11.498 -0.0612  0.3875 -0.9651
 6439TIP3    H240733   3.004   5.851  11.410 -2.2629 -0.2261  2.0251
 6440TIP3   OH240734   3.337   0.192  16.042  0.1600  0.2081 -0.0062
 6440TIP3    H140735   3.285   0.237  15.975  0.9514 -0.6020 -1.1800
 6440TIP3    H240736   3.272   0.156  16.102 -0.5822  0.2720 -0.7647
 6441TIP3   OH240737   1.880   3.046  14.740 -0.5323  0.7605  0.0947
 6441TIP3    H140738   1.828   2.968  14.721  0.1676  0.7712 -1.9873
 6441TIP3    H240739   1.836   3.116  14.692 -0.2427  1.3363  0.6630
 6442TIP3   OH240740   4.107   0.184  15.506 -0.0706 -0.4609 -0.4534
 6442TIP3    H140741   4.140   0.122  15.440 -3.1865 -1.0145 -1.5749
 6442TIP3    H240742   4.035   0.229  15.462 -0.8654  0.6327  1.9235
 6443TIP3   OH240743   1.375   2.635   2.477 -0.3847  0.8500 -0.2090
 6443TIP3    H140744   1.402   2.595   2.560 -2.2101  1.7541  0.8608
 6443TIP3    H240745   1.429   2.713   2.470  0.8590 -0.0354 -0.6541
 6444TIP3   OH240746   5.940   3.863  14.853  0.3920 -0.4213 -0.2852
 6444TIP3    H140747   5.855   3.906  14.852  1.4458  1.7513 -0.6974
 6444TIP3    H240748   5.941   3.808  14.774 -0.7302 -0.6797 -0.1146
 6445TIP3   OH240749   5.509   2.958  16.843  0.5345  0.1059 -0.4046
 6445TIP3    H140750   5.499   2.911  16.760  2.0018  0.1337 -0.6150
 6445TIP3    H240751   5.532   2.889  16.906  2.9598  0.5172 -0.7681
 6446TIP3   OH240752   3.049   3.763  11.645  0.3161 -0.1167  0.0732
 6446TIP3    H140753   2.997   3.724  11.575 -0.8656  0.5972  0.5524
 6446TIP3    H240754   2.989   3.771  11.718  1.5867 -0.9940  1.2337
 6447TIP3   OH240755   3.415   1.943  11.337  0.6070  0.1343 -0.1225
 6447TIP3    H140756   3.499   1.974  11.305 -0.7185  0.9889 -2.9533
 6447TIP3    H240757   3.370   1.910  11.259 -1.1713 -1.5656  1.5415
 6448TIP3   OH240758   3.405   0.266   1.495 -0.8839  0.1042 -0.1388
 6448TIP3    H140759   3.312   0.275   1.472 -0.7614 -1.5667 -1.3696
 6448TIP3    H240760   3.446   0.342   1.454 -1.5017  0.0962 -0.7953
 6449TIP3   OH240761   4.671   2.868   4.581  0.1913  0.3446 -0.0560
 6449TIP3    H140762   4.668   2.882   4.486 -2.4913 -0.3624 -0.1155
 6449TIP3    H240763   4.706   2.950   4.616  0.4789  0.9023 -1.5940
 6450TIP3   OH240764   0.677   5.649   2.182 -0.7652  0.1113 -0.7114
 6450TIP3    H140765   0.739   5.584   2.148  1.2114  1.2642  0.6334
 6450TIP3    H240766   0.605   5.596   2.217  0.2202 -1.3126 -0.7758
 6451TIP3   OH240767   5.610   5.795   4.101 -0.0827  0.3367  0.1647
 6451TIP3    H140768   5.530   5.847   4.101  0.4809  1.1960  0.7034
 6451TIP3    H240769   5.639   5.794   4.192  0.3650 -0.2248  0.0204
 6452TIP3   OH240770   3.927   1.713   2.770  0.8963  0.0898  0.3518
 6452TIP3    H140771   3.839   1.749   2.781  0.6764 -0.6394  1.0127
 6452TIP3    H240772   3.923   1.664   2.688  0.3113 -1.0482  1.0577
 6453TIP3   OH240773   3.632   2.823  16.871 -0.4084 -0.2190 -0.3504
 6453TIP3    H140774   3.541   2.851  16.881 -0.8773 -1.8279 -0.0435
 6453TIP3    H240775   3.653   2.843  16.779 -0.8913  0.6098 -0.2906
 6454TIP3   OH240776   4.029   4.404   6.349 -0.6806 -0.5221  0.8800
 6454TIP3    H140777   4.101   4.356   6.389 -0.4514 -0.1948  0.8575
 6454TIP3    H240778   3.997   4.345   6.280 -0.7714 -0.8830  1.2287
 6455TIP3   OH240779   0.843   1.294  14.345 -0.1202  0.4452  0.0936
 6455TIP3    H140780   0.878   1.382  14.354 -0.5503  0.5295  0.9456
 6455TIP3    H240781   0.823   1.285  14.252  1.1868  0.7634 -0.2307
 6456TIP3   OH240782   0.085   6.303  15.305  0.3738 -0.6241  0.0879
 6456TIP3    H140783  -0.011   6.304  15.304  0.3772 -0.4120 -1.9412
 6456TIP3    H240784   0.110   6.253  15.228  1.9172 -1.5555  1.1503
 6457TIP3   OH240785   1.218   4.160   1.374  0.2671  0.8883  0.1134
 6457TIP3    H140786   1.214   4.246   1.331  0.4500  0.6314 -0.4178
 6457TIP3    H240787   1.133   4.120   1.356  0.4240  0.6925 -0.1970
 6458TIP3   OH240788   4.087   1.756   1.976  0.1949  0.1597 -0.1989
 6458TIP3    H140789   4.078   1.690   2.045 -0.7448 -0.0002 -0.4719
 6458TIP3    H240790   4.099   1.705   1.896 -0.2709  0.3301 -0.3749
 6459TIP3   OH240791   0.668   6.631  16.815  0.1546 -0.5250  0.1942
 6459TIP3    H140792   0.761   6.655  16.810 -0.0607  0.3874  0.5047
 6459TIP3    H240793   0.655   6.570  16.742  1.1065 -1.0138  0.4292
 6460TIP3   OH240794   5.513   6.091   4.762  0.7489 -0.2046  0.0582
 6460TIP3    H140795   5.501   6.060   4.672  3.6246  0.3147 -0.5327
 6460TIP3    H240796   5.511   6.187   4.755  0.4297 -0.1656  0.6416
 6461TIP3   OH240797   1.087   1.087   2.950 -0.2863  0.9153 -0.2132
 6461TIP3    H140798   1.122   0.999   2.963 -0.3938  0.3926 -3.0686
 6461TIP3    H240799   0.992   1.076   2.954 -0.3178  0.7638 -1.2952
 6462TIP3   OH240800   1.334   5.432   0.640 -0.0915 -0.5744  0.7580
 6462TIP3    H140801   1.397   5.503   0.631 -0.0029 -0.5801  1.3294
 6462TIP3    H240802   1.276   5.459   0.711 -0.8278 -0.5056  0.1406
 6463TIP3   OH240803   4.840   0.717   0.984 -0.0840 -0.0276 -0.2698
 6463TIP3    H140804   4.932   0.692   0.983  0.3751  1.4654  1.0495
 6463TIP3    H240805   4.792   0.635   0.982  1.2504 -0.7849 -2.3976
 6464TIP3   OH240806   3.431   2.525   4.901  0.1273  0.3774  0.1676
 6464TIP3    H140807   3.486   2.538   4.978  0.3061 -0.9519  0.2802
 6464TIP3    H240808   3.358   2.585   4.913  0.9894  1.3580  0.5622
 6465TIP3   OH240809   5.950   1.462  16.413 -0.2695  0.4565  0.2378
 6465TIP3    H140810   5.941   1.367  16.420 -0.5171  0.3868 -0.9442
 6465TIP3    H240811   5.887   1.496  16.477 -2.0538 -0.1587 -1.1639
 6466TIP3   OH240812   2.914   1.791   4.207 -0.4716 -0.2691 -0.0712
 6466TIP3    H140813   2.860   1.867   4.183  1.0434  1.3358  1.4732
 6466TIP3    H240814   2.953   1.763   4.124  1.5405  2.6952 -0.2110
 6467TIP3   OH240815   2.531   3.993   6.372  0.5896 -0.2941  0.2891
 6467TIP3    H140816   2.503   3.926   6.434  2.5840  0.4826  2.1050
 6467TIP3    H240817   2.625   3.977   6.360  0.5933  0.6776 -1.1371
 6468TIP3   OH240818   3.244   4.572   2.757  0.4261 -0.4341 -0.3345
 6468TIP3    H140819   3.325   4.527   2.781  1.5033  1.2444 -0.7789
 6468TIP3    H240820   3.260   4.604   2.668  0.2175  2.0759  0.5121
 6469TIP3   OH240821   6.418   6.579   0.237  0.0587 -0.3193 -0.3910
 6469TIP3    H140822   6.385   6.504   0.287  1.1720 -0.8895 -0.4989
 6469TIP3    H240823   6.504   6.597   0.274  0.1044  0.4380 -0.8620
 6470TIP3   OH240824   5.054   0.441   0.854 -0.6558 -0.1293  0.0698
 6470TIP3    H140825   5.024   0.441   0.763 -1.8780  0.5696  0.4645
 6470TIP3    H240826   4.974   0.434   0.905  0.1336 -1.9279  1.0684
 6471TIP3   OH240827   3.216   1.273  12.231  0.2946 -0.2742 -0.1916
 6471TIP3    H140828   3.140   1.216  12.242  0.1510  0.0326  0.4100
 6471TIP3    H240829   3.185   1.346  12.178  0.0259  0.1318  0.5238
 6472TIP3   OH240830   0.507   4.093   2.855  0.1937  0.1211 -0.0227
 6472TIP3    H140831   0.586   4.049   2.884  0.8445  0.7199 -0.8775
 6472TIP3    H240832   0.483   4.049   2.774  0.9208  1.3971 -0.9532
 6473TIP3   OH240833   6.467   3.909   2.942 -0.3630  0.3686  0.4466
 6473TIP3    H140834   6.500   3.828   2.982 -1.4318 -0.1826  0.2123
 6473TIP3    H240835   6.469   3.892   2.848  0.7522  1.1392  0.3161
 6474TIP3   OH240836   3.767   6.066   4.165  0.2689  0.4468 -0.0795
 6474TIP3    H140837   3.826   6.129   4.205  0.0107  0.2324  0.6417
 6474TIP3    H240838   3.797   5.981   4.196  0.4799  0.2304 -0.8744
 6475TIP3   OH240839   2.937   0.098   3.863 -0.0824  0.1199 -0.0371
 6475TIP3    H140840   2.847   0.102   3.832 -0.2033  0.6207  0.3589
 6475TIP3    H240841   2.930   0.069   3.954  0.2237 -0.7660 -0.2919
 6476TIP3   OH240842   5.502   0.354   5.347 -0.4283 -0.2264  0.0736
 6476TIP3    H140843   5.433   0.307   5.392 -1.9291  0.0273 -1.8916
 6476TIP3    H240844   5.583   0.321   5.387 -1.4927 -3.3243 -0.1444
 6477TIP3   OH240845   2.761   1.030   1.090 -0.3272  0.0104  0.0881
 6477TIP3    H140846   2.759   1.054   0.998 -0.5077  0.3554  0.1845
 6477TIP3    H240847   2.751   1.112   1.138 -2.3393 -0.3694  0.4061
 6478TIP3   OH240848   4.798   0.425   0.955 -0.4449 -0.1977 -0.0803
 6478TIP3    H140849   4.725   0.443   1.014 -0.9510 -0.0921 -0.7434
 6478TIP3    H240850   4.758   0.387   0.878  0.2225 -0.3332 -0.3615
 6479TIP3   OH240851   2.513   0.890  15.387 -0.3519  0.0562 -0.3496
 6479TIP3    H140852   2.547   0.892  15.476 -0.4970  0.4978 -0.3015
 6479TIP3    H240853   2.418   0.901  15.397 -0.3407  0.3595 -0.5726
 6480TIP3   OH240854   1.344   6.504   2.179  1.0188  0.2798  0.7818
 6480TIP3    H140855   1.355   6.411   2.203  1.0153 -0.4446 -1.8964
 6480TIP3    H240856   1.252   6.511   2.153  1.7210  0.3310 -1.8034
 6481TIP3   OH240857   4.408   3.561   2.111  0.1995 -0.0234 -0.1587
 6481TIP3    H140858   4.490   3.599   2.078 -1.2498  1.8353 -1.7550
 6481TIP3    H240859   4.354   3.549   2.033 -1.7784  0.6336  1.0838
 6482TIP3   OH240860   1.038   6.023  11.821  0.1212 -0.0480 -0.6958
 6482TIP3    H140861   1.087   5.999  11.899  0.6633  3.0091 -0.0565
 6482TIP3    H240862   0.983   5.946  11.803  1.5223 -1.6058  1.4227
 6483TIP3   OH240863   1.801   2.732  16.959 -0.0961 -0.6887  0.3912
 6483TIP3    H140864   1.858   2.789  17.011  1.1235 -0.5294 -1.0684
 6483TIP3    H240865   1.853   2.653  16.945 -0.3796 -0.6956 -0.6402
 6484TIP3   OH240866   0.878   3.279   2.197  0.0971 -0.0043 -0.0005
 6484TIP3    H140867   0.949   3.304   2.255  0.3376 -0.9330  0.1140
 6484TIP3    H240868   0.809   3.343   2.213  1.3989  1.6981 -1.0653
 6485TIP3   OH240869   2.458   6.267   0.795 -0.4932 -0.4785 -0.1200
 6485TIP3    H140870   2.420   6.185   0.827 -2.8450  0.4470 -0.4262
 6485TIP3    H240871   2.491   6.245   0.707 -1.2700 -1.0530 -0.2770
 6486TIP3   OH240872   1.275   1.200   5.814  0.0431 -0.4268  0.1640
 6486TIP3    H140873   1.216   1.242   5.877  0.8123  1.7983 -0.5668
 6486TIP3    H240874   1.352   1.175   5.866 -0.1709 -0.3988  0.4948
 6487TIP3   OH240875   3.531   5.564   2.162  0.1173  0.3678  0.3701
 6487TIP3    H140876   3.589   5.514   2.219 -1.0160  1.1264  2.2416
 6487TIP3    H240877   3.487   5.626   2.220  0.3648  2.5183 -1.6569
 6488TIP3   OH240878   6.221   5.316   4.884 -0.1936  0.1060 -0.2743
 6488TIP3    H140879   6.169   5.370   4.944 -0.5278 -0.6398  0.1047
 6488TIP3    H240880   6.300   5.369   4.867 -0.6466  0.8389 -0.1326
 6489TIP3   OH240881   5.611   5.244   1.533  0.1378 -0.1604 -0.5251
 6489TIP3    H140882   5.533   5.287   1.500  0.2601  0.2499 -0.2870
 6489TIP3    H240883   5.579   5.168   1.581 -0.1918  0.6121  0.5069
 6490TIP3   OH240884   3.592   3.168   4.104 -0.5479  0.2888 -0.5017
 6490TIP3    H140885   3.646   3.114   4.161  0.3238  0.9159 -0.7212
 6490TIP3    H240886   3.502   3.146   4.128 -0.1939 -0.5281  0.0883
 6491TIP3   OH240887   3.532   5.285  15.388 -0.4407 -0.3209 -0.3430
 6491TIP3    H140888   3.575   5.312  15.307  0.1684 -0.6871 -0.1533
 6491TIP3    H240889   3.443   5.317  15.381 -0.2954 -0.0659 -1.0159
 6492TIP3   OH240890   6.309   3.540   6.257  0.3016 -0.3068 -0.9385
 6492TIP3    H140891   6.253   3.618   6.259  0.2801 -0.3278 -0.7618
 6492TIP3    H240892   6.397   3.572   6.277  0.0268 -0.5618  0.7894
 6493TIP3   OH240893   0.039   3.978   2.800  0.4049 -0.0338  0.0905
 6493TIP3    H140894   0.082   3.972   2.715 -1.9408 -3.1115 -0.9545
 6493TIP3    H240895  -0.001   3.892   2.813 -2.5058  1.5922  2.5526
 6494TIP3   OH240896   3.869   4.019  13.212  0.5471 -0.1280  0.1395
 6494TIP3    H140897   3.908   3.935  13.190 -1.2060 -0.8866 -0.1495
 6494TIP3    H240898   3.836   4.053  13.129 -1.2714 -0.4899  0.6832
 6495TIP3   OH240899   0.227   6.599  12.216  0.2653  0.0901 -0.5905
 6495TIP3    H140900   0.277   6.545  12.155 -0.6603 -0.6886 -0.6623
 6495TIP3    H240901   0.226   6.549  12.297 -0.0459  0.2934 -0.4683
 6496TIP3   OH240902   3.971   1.904  13.484 -0.5603 -1.0405 -0.5725
 6496TIP3    H140903   3.942   1.943  13.401 -1.9497 -0.0659  0.3567
 6496TIP3    H240904   4.030   1.833  13.457  0.4367  0.4043 -2.3418
 6497TIP3   OH240905   0.440   5.726   1.233  0.1778  1.0423  0.0480
 6497TIP3    H140906   0.455   5.688   1.147  0.5835  0.5314  0.3447
 6497TIP3    H240907   0.362   5.780   1.222 -0.9512 -0.5968 -0.1514
 6498TIP3   OH240908   1.879   3.826   1.075  0.2472 -0.6776 -0.1288
 6498TIP3    H140909   1.870   3.866   0.989  0.5986 -1.4731 -0.5335
 6498TIP3    H240910   1.799   3.850   1.121  0.6815  0.9491 -0.1782
 6499TIP3   OH240911   3.890   4.087   2.921  0.3299 -0.3329 -0.2602
 6499TIP3    H140912   3.899   4.083   3.016 -0.2446 -1.1047 -0.2268
 6499TIP3    H240913   3.951   4.021   2.888 -0.4587 -1.0218 -0.3526
 6500TIP3   OH240914   6.442   5.643   5.133  0.1771 -0.2347  0.2063
 6500TIP3    H140915   6.448   5.738   5.119 -0.8213 -0.1889  0.0490
 6500TIP3    H240916   6.362   5.632   5.185 -0.0012 -1.0452 -0.2371
 6501TIP3   OH240917   3.259   5.651   6.481  0.2320  0.1750  0.0284
 6501TIP3    H140918   3.223   5.729   6.522 -0.6956  0.2269 -0.8639
 6501TIP3    H240919   3.217   5.578   6.525  0.5561  0.1867  0.3640
 6502TIP3   OH240920   0.450   5.910  11.481  0.1396  0.6787 -0.1385
 6502TIP3    H140921   0.420   5.925  11.571 -1.7572  1.8721 -0.9332
 6502TIP3    H240922   0.402   5.832  11.453 -0.4148  1.1811 -0.6038
 6503TIP3   OH240923   2.642   4.842  15.564  1.1326  0.5191  0.3772
 6503TIP3    H140924   2.610   4.932  15.567 -0.6641 -0.0852  0.4620
 6503TIP3    H240925   2.594   4.802  15.490  0.7846 -0.7456  1.2542
 6504TIP3   OH240926   5.871   2.868  16.826 -0.0450  0.1280 -0.0360
 6504TIP3    H140927   5.818   2.922  16.885  0.5396  1.1451 -0.4329
 6504TIP3    H240928   5.819   2.789  16.812 -1.5513  1.2038 -0.5999
 6505TIP3   OH240929   6.450   4.127   1.027  0.6269 -0.4460 -0.2668
 6505TIP3    H140930   6.487   4.191   0.966  0.8828 -0.2515  0.0926
 6505TIP3    H240931   6.523   4.068   1.047  1.1883  0.8497  1.6652
 6506TIP3   OH240932   4.606   0.198   3.979  0.1624  0.2977 -0.1138
 6506TIP3    H140933   4.695   0.162   3.981 -0.0468 -0.2093  0.2634
 6506TIP3    H240934   4.598   0.237   3.892  0.8951  0.7100 -0.0053
 6507TIP3   OH240935   1.994   5.192   0.453 -0.2749 -0.3183 -0.0803
 6507TIP3    H140936   1.911   5.155   0.424 -1.2453  0.9231  1.0833
 6507TIP3    H240937   2.004   5.162   0.543 -1.0079  2.0785  0.8368
 6508TIP3   OH240938   1.191   6.334  10.744  0.1500 -0.6519 -0.0943
 6508TIP3    H140939   1.255   6.372  10.684 -0.0918  2.2841  1.4298
 6508TIP3    H240940   1.108   6.338  10.696 -0.0598  1.7619  0.4111
 6509TIP3   OH240941   0.006   4.758   5.476 -0.0538 -0.0780  0.3032
 6509TIP3    H140942   0.048   4.780   5.559  1.3506 -2.7550  0.3619
 6509TIP3    H240943   0.011   4.662   5.471 -0.5417 -0.0038 -2.6298
 6510TIP3   OH240944   5.797   1.659  12.266 -0.6262 -0.4521 -0.1914
 6510TIP3    H140945   5.891   1.643  12.273 -0.5236  0.5062  0.7416
 6510TIP3    H240946   5.770   1.682  12.355 -1.2175  2.0561 -0.9873
 6511TIP3   OH240947   5.623   3.657   1.168 -0.0280 -0.0911 -0.1454
 6511TIP3    H140948   5.667   3.701   1.240 -1.4106  0.7821  0.1814
 6511TIP3    H240949   5.621   3.564   1.193  3.7910 -0.5697 -1.3037
 6512TIP3   OH240950   4.094   2.737  13.928 -0.1215  0.1375  0.3923
 6512TIP3    H140951   4.138   2.789  13.862 -0.9485 -0.3060 -0.5316
 6512TIP3    H240952   4.127   2.648  13.915 -0.2222  0.0620  0.6347
 6513TIP3   OH240953   1.594   2.441  14.773  0.0843 -0.1288 -0.0512
 6513TIP3    H140954   1.605   2.374  14.705  1.1420 -0.1854  0.1610
 6513TIP3    H240955   1.568   2.520  14.725  3.2231  0.4924 -0.8317
 6514TIP3   OH240956   2.289   4.926   1.780  0.3498 -0.2569 -0.3756
 6514TIP3    H140957   2.235   4.942   1.858 -1.0718 -0.0726 -1.3863
 6514TIP3    H240958   2.367   4.882   1.814  1.4329  3.0626  1.6514
 6515TIP3   OH240959   1.196   4.878  11.807  0.0088  0.6352 -0.3185
 6515TIP3    H140960   1.147   4.797  11.790 -1.1295  1.0394  0.9242
 6515TIP3    H240961   1.132   4.948  11.796  0.7779  1.3095 -0.5452
 6516TIP3   OH240962   4.973   5.257   4.509 -0.0320 -0.2307 -0.0028
 6516TIP3    H140963   4.923   5.187   4.551 -2.3608  1.2528 -0.1855
 6516TIP3    H240964   4.995   5.223   4.423 -1.5654 -0.5749 -0.2756
 6517TIP3   OH240965   1.897   4.741  13.676  0.0239  0.3722  0.0312
 6517TIP3    H140966   1.899   4.650  13.649 -0.6892  0.1212  0.8026
 6517TIP3    H240967   1.986   4.773  13.661  0.4352 -0.6195  0.3358
 6518TIP3   OH240968   3.968   3.193   0.007  0.0194  0.0666 -0.0931
 6518TIP3    H140969   3.903   3.123   0.000 -1.8720  1.7834 -0.0003
 6518TIP3    H240970   3.990   3.213  -0.084  0.7362 -0.7833 -0.1163
 6519TIP3   OH240971   2.659   3.475   4.318 -0.8286  0.5418 -0.5989
 6519TIP3    H140972   2.625   3.431   4.396  2.0238  1.6054  1.3271
 6519TIP3    H240973   2.670   3.405   4.254 -2.1632 -0.5149  0.2906
 6520TIP3   OH240974   5.015   5.293   2.049 -0.9778 -0.2080  0.2111
 6520TIP3    H140975   5.027   5.380   2.087  0.1921 -0.4532  0.4137
 6520TIP3    H240976   5.038   5.233   2.120 -0.6314 -0.6730 -0.2925
 6521TIP3   OH240977   6.038   4.044  14.100 -0.2317  0.2490  0.8644
 6521TIP3    H140978   6.097   4.046  14.025 -2.2863 -0.5029 -0.8433
 6521TIP3    H240979   6.025   3.951  14.119  1.6479  0.4307  3.3420
 6522TIP3   OH240980   1.839   3.491  12.131 -0.3871 -0.1760 -0.2300
 6522TIP3    H140981   1.746   3.483  12.152 -0.7562 -0.3691 -1.8356
 6522TIP3    H240982   1.875   3.547  12.199 -1.6052 -0.4198  0.6201
 6523TIP3   OH240983   2.231   4.193  14.811 -0.1197  0.1479 -0.1311
 6523TIP3    H140984   2.190   4.265  14.763  3.0924  1.0874 -1.6068
 6523TIP3    H240985   2.277   4.237  14.883 -1.9360 -0.9141  1.7177
 6524TIP3   OH240986   3.563   0.012   4.023 -0.4676  0.5435 -0.1369
 6524TIP3    H140987   3.545   0.064   3.945  0.3017 -0.4967 -1.0225
 6524TIP3    H240988   3.651   0.040   4.051 -0.6001  0.6715  0.1525
 6525TIP3   OH240989   2.348   5.545   2.588 -0.2139  0.1952 -0.3645
 6525TIP3    H140990   2.419   5.572   2.531 -0.2465 -1.3267 -1.1384
 6525TIP3    H240991   2.347   5.449   2.583  0.0918 -0.0072  2.5429
 6526TIP3   OH240992   0.717   6.474  12.905 -0.2850  0.1467 -0.1702
 6526TIP3    H140993   0.680   6.388  12.887 -0.4544  0.2910 -0.5042
 6526TIP3    H240994   0.786   6.485  12.840 -1.1036  0.7989 -0.9347
 6527TIP3   OH240995   2.277   1.881  15.735 -0.2339 -0.0363 -0.0224
 6527TIP3    H140996   2.301   1.972  15.754  0.8485 -0.7425  2.1531
 6527TIP3    H240997   2.360   1.834  15.732 -0.8390 -1.0937 -0.4141
 6528TIP3   OH240998   0.337   6.294  15.454 -0.0542  0.0467  0.4676
 6528TIP3    H140999   0.350   6.343  15.373  1.0906 -1.1886 -0.1208
 6528TIP3    H241000   0.260   6.240  15.437  0.7465 -0.9200 -0.1765
 6529TIP3   OH241001   0.876   2.598   5.457  0.3338 -0.1014 -0.3353
 6529TIP3    H141002   0.873   2.517   5.406 -0.2009  0.5344 -1.3158
 6529TIP3    H241003   0.786   2.628   5.460  0.4212  0.0843  0.6526
 6530TIP3   OH241004   4.329   0.299  15.719  0.2626  0.2733 -0.2574
 6530TIP3    H141005   4.256   0.287  15.658  0.1502 -0.3654 -0.0036
 6530TIP3    H241006   4.343   0.212  15.756 -0.2923  0.8584  1.3446
 6531TIP3   OH241007   0.344   3.372  11.681 -0.0693 -0.6736  0.3420
 6531TIP3    H141008   0.402   3.448  11.687 -0.7340 -0.3556  3.3263
 6531TIP3    H241009   0.276   3.399  11.618  1.5483 -0.0907 -1.1862
 6532TIP3   OH241010   5.254   1.930  11.599  0.5111  0.2332  0.3843
 6532TIP3    H141011   5.161   1.925  11.618  0.6101 -0.7159  0.6416
 6532TIP3    H241012   5.259   1.979  11.517 -0.1983  0.4550  0.4700
 6533TIP3   OH241013   2.338   3.386   2.823 -0.3222  0.1009  0.1406
 6533TIP3    H141014   2.359   3.294   2.838  0.5740  0.2634 -0.0649
 6533TIP3    H241015   2.243   3.389   2.820 -0.3437 -0.8950 -0.2962
 6534TIP3   OH241016   5.893   4.809  12.062  0.3700 -0.1241 -0.0791
 6534TIP3    H141017   5.814   4.791  12.112 -0.0180  0.7042 -0.3729
 6534TIP3    H241018   5.934   4.724  12.049  0.0989 -0.4258  1.0181
 6535TIP3   OH241019   1.892   5.776  12.986  0.2562 -0.0855 -0.0965
 6535TIP3    H141020   1.925   5.729  13.063  0.9283  0.4407 -0.0581
 6535TIP3    H241021   1.807   5.811  13.014  1.5669  2.1733  1.2494
 6536TIP3   OH241022   0.229   2.415  14.082  0.0712  0.0191  0.0688
 6536TIP3    H141023   0.186   2.490  14.042 -0.5889 -0.8379 -0.8716
 6536TIP3    H241024   0.164   2.380  14.144 -0.1404 -0.5584 -0.4691
 6537TIP3   OH241025   6.514   5.222   1.725  0.7598  0.0940 -0.3464
 6537TIP3    H141026   6.429   5.206   1.685  0.7002 -1.9416  0.5615
 6537TIP3    H241027   6.504   5.307   1.769 -0.8861 -0.2647  0.0046
 6538TIP3   OH241028   0.674   3.711   6.555  0.3735 -0.4596 -0.3655
 6538TIP3    H141029   0.605   3.646   6.573 -0.3090  0.3687  0.0221
 6538TIP3    H241030   0.641   3.792   6.592  1.7058 -0.1159  0.0884
 6539TIP3   OH241031   5.334   2.143  12.458  0.1617  0.5709 -0.7552
 6539TIP3    H141032   5.372   2.065  12.418  1.4818  0.2537  1.0102
 6539TIP3    H241033   5.361   2.215  12.402  1.3278  0.0529 -0.8831
 6540TIP3   OH241034   2.809   4.255   4.789  0.6926 -0.0711  0.5737
 6540TIP3    H141035   2.776   4.203   4.716 -0.7111  0.3800  0.8708
 6540TIP3    H241036   2.885   4.301   4.754  1.0698 -1.1918 -0.1028
 6541TIP3   OH241037   1.225   1.074   3.262  0.1717  0.0332 -0.1707
 6541TIP3    H141038   1.185   1.047   3.180  0.1394 -1.7932  0.4124
 6541TIP3    H241039   1.266   0.994   3.296 -0.6180  0.5077  2.0299
 6542TIP3   OH241040   1.683   1.594   1.861  0.1733  0.3141  0.0266
 6542TIP3    H141041   1.729   1.599   1.945  1.1260  2.4833 -0.5854
 6542TIP3    H241042   1.727   1.524   1.813  0.7424  0.2125  0.6994
 6543TIP3   OH241043   6.468   4.793   5.365  0.1548  0.0531  0.1209
 6543TIP3    H141044   6.375   4.783   5.344 -0.0640 -0.1254  1.1867
 6543TIP3    H241045   6.512   4.728   5.311 -0.2008  1.0694 -1.4353
 6544TIP3   OH241046   1.128   6.557   1.635  0.5181 -0.4014 -0.2750
 6544TIP3    H141047   1.107   6.650   1.639  1.7892  0.1457 -4.2203
 6544TIP3    H241048   1.084   6.519   1.711 -2.0923  3.0222  0.0291
 6545TIP3   OH241049   4.812   0.975   4.148  0.4642  0.1482 -0.1514
 6545TIP3    H141050   4.904   0.957   4.126  0.0480 -0.4627 -1.4426
 6545TIP3    H241051   4.767   0.977   4.064 -1.0163 -1.3550  0.5644
 6546TIP3   OH241052   1.659   1.425  15.596 -0.2804 -0.8480  0.1329
 6546TIP3    H141053   1.617   1.510  15.611  0.0688 -0.2283 -2.2171
 6546TIP3    H241054   1.705   1.406  15.678 -1.8442  0.3394  1.3369
 6547TIP3   OH241055   2.947   4.467   0.757 -0.5005  0.3457  0.4175
 6547TIP3    H141056   3.002   4.401   0.799 -1.5214 -0.4549  0.5239
 6547TIP3    H241057   2.939   4.537   0.822 -0.6525 -0.1076  0.8878
 6548TIP3   OH241058   6.176   3.380  16.645 -0.6655 -0.2947  0.1671
 6548TIP3    H141059   6.121   3.389  16.568 -0.8235 -0.3837  0.2656
 6548TIP3    H241060   6.114   3.380  16.718 -0.3399  2.8642  0.5310
 6549TIP3   OH241061   6.473   5.623  12.067 -0.1230 -0.8909 -0.0923
 6549TIP3    H141062   6.438   5.635  11.979  0.7736 -0.0436 -0.3495
 6549TIP3    H241063   6.524   5.542  12.063  0.1971 -0.6733 -0.4500
 6550TIP3   OH241064   5.192   6.065   3.848  0.1000  0.3464  0.3282
 6550TIP3    H141065   5.185   6.109   3.764  0.1169  1.5778  0.9612
 6550TIP3    H241066   5.152   5.980   3.834  1.1521  0.0918 -1.2456
 6551TIP3   OH241067   6.481   5.794  11.607 -0.2507  0.4645  0.2577
 6551TIP3    H141068   6.509   5.728  11.543 -0.7813  1.3190 -0.8733
 6551TIP3    H241069   6.562   5.839  11.632 -0.1688  0.8238 -0.6196
 6552TIP3   OH241070   2.232   2.735   5.710  0.2489  0.3886 -0.2895
 6552TIP3    H141071   2.285   2.660   5.685 -1.3420 -0.2632 -1.7935
 6552TIP3    H241072   2.145   2.699   5.727 -0.6221  1.9034 -1.3708
 6553TIP3   OH241073   4.586   6.073   0.477 -0.3960 -0.2319 -0.1022
 6553TIP3    H141074   4.658   6.082   0.413 -0.1391 -0.3654  0.1673
 6553TIP3    H241075   4.596   6.150   0.534 -0.7090 -0.0390 -0.3048
 6554TIP3   OH241076   5.230   6.345  13.076  0.2674  0.4094  0.4541
 6554TIP3    H141077   5.279   6.273  13.115 -0.9028 -0.3512  0.5533
 6554TIP3    H241078   5.183   6.385  13.149 -0.8342 -0.1424  0.0701
 6555TIP3   OH241079   1.395   2.763  11.285 -0.8298 -0.0753 -0.0780
 6555TIP3    H141080   1.447   2.699  11.334 -1.8164 -1.1642 -0.4390
 6555TIP3    H241081   1.307   2.754  11.319 -0.9197  1.3442  0.0935
 6556TIP3   OH241082   3.574   6.056   6.066 -0.1729 -0.4153 -0.1174
 6556TIP3    H141083   3.517   6.102   6.127 -0.9229 -0.6437 -0.6415
 6556TIP3    H241084   3.636   6.009   6.122 -0.6011 -0.3017  0.4545
 6557TIP3   OH241085   3.512   0.616  15.187  0.2990  0.2104 -0.0768
 6557TIP3    H141086   3.562   0.688  15.150 -0.1330  0.6654  0.2097
 6557TIP3    H241087   3.577   0.551  15.213  0.7100  0.6321 -0.0525
 6558TIP3   OH241088   5.968   3.742  17.002  0.9825  0.0715  0.0705
 6558TIP3    H141089   5.939   3.822  16.958 -1.6184 -1.0284 -0.2506
 6558TIP3    H241090   6.019   3.774  17.077 -0.4051  2.0666  0.2141
 6559TIP3   OH241091   4.697   5.078   4.374  0.0150  0.0866  0.4256
 6559TIP3    H141092   4.693   5.171   4.355 -0.4266 -0.1029 -0.4507
 6559TIP3    H241093   4.674   5.071   4.467  4.6515  1.2437  1.7883
 6560TIP3   OH241094   4.043   4.028   5.658 -0.3162 -0.0639 -0.3675
 6560TIP3    H141095   4.009   4.056   5.743 -0.0993 -0.7897 -0.0445
 6560TIP3    H241096   4.138   4.019   5.672 -0.0613  1.3259 -1.0965
 6561TIP3   OH241097   2.189   4.906  12.009  0.7242 -0.4389 -0.0346
 6561TIP3    H141098   2.235   4.971  11.957  0.0742  0.0658  0.0166
 6561TIP3    H241099   2.117   4.877  11.953 -0.0480  0.1910  0.6240
 6562TIP3   OH241100   6.571   6.400  13.470  0.2464  0.6180  0.2264
 6562TIP3    H141101   6.532   6.456  13.404 -2.7212 -1.2475  0.3231
 6562TIP3    H241102   6.610   6.328  13.420 -0.7361 -0.0391  0.3869
 6563TIP3   OH241103   0.511   0.634  11.256  0.2237  0.0467  0.0848
 6563TIP3    H141104   0.454   0.558  11.266  1.0267 -0.7579 -1.3044
 6563TIP3    H241105   0.491   0.689  11.332 -1.0517 -1.0897  0.5965
 6564TIP3   OH241106   5.177   6.762  11.891  0.6309  0.2555  0.0461
 6564TIP3    H141107   5.132   6.778  11.974  1.1625  0.2823  0.3344
 6564TIP3    H241108   5.137   6.823  11.830  0.7108  0.7162  0.4529
 6565TIP3   OH241109   4.038   2.334   1.944  0.5371 -0.3074  0.4120
 6565TIP3    H141110   4.097   2.279   1.893 -0.2213 -0.3056 -0.4840
 6565TIP3    H241111   4.086   2.416   1.958 -0.0732  0.5471 -2.2269
 6566TIP3   OH241112   2.509   4.681   1.658  0.4860  0.1168  0.1872
 6566TIP3    H141113   2.492   4.712   1.747 -0.1910 -0.1500  0.1494
 6566TIP3    H241114   2.505   4.761   1.604 -0.0286  0.1478  0.2662
 6567TIP3   OH241115   1.527   3.100   0.222  0.3837  0.1269 -0.2402
 6567TIP3    H141116   1.504   3.099   0.129  3.1067  0.0713 -0.9759
 6567TIP3    H241117   1.452   3.060   0.266 -0.6855 -0.4282 -2.4744
 6568TIP3   OH241118   3.378   2.676   3.777 -0.2617 -0.2151 -0.1409
 6568TIP3    H141119   3.371   2.727   3.697 -1.7218 -0.4779 -0.1939
 6568TIP3    H241120   3.361   2.739   3.848 -0.2549 -0.2468 -0.1109
 6569TIP3   OH241121   5.758   0.959  14.159 -0.1961 -0.6994  0.3099
 6569TIP3    H141122   5.800   0.883  14.118 -0.9377  0.1089 -2.0387
 6569TIP3    H241123   5.747   1.022  14.087 -0.2937  1.3282  2.0609
 6570TIP3   OH241124   2.085   4.804  16.399  0.3413 -0.1589 -0.1400
 6570TIP3    H141125   2.102   4.738  16.466 -0.7071 -0.1413  0.1522
 6570TIP3    H241126   1.996   4.834  16.417  1.1884  2.1195  0.4126
 6571TIP3   OH241127   5.381   5.567   1.525  0.1581  0.2696  0.2517
 6571TIP3    H141128   5.295   5.559   1.565  0.6694 -0.2622  1.2328
 6571TIP3    H241129   5.419   5.646   1.564 -0.7168  1.7337 -1.7480
 6572TIP3   OH241130   3.541   5.595   0.498  0.9868  0.2143  0.1042
 6572TIP3    H141131   3.507   5.520   0.450  1.5219  1.1781 -1.8093
 6572TIP3    H241132   3.636   5.586   0.494  1.0422  0.1230  1.2941
 6573TIP3   OH241133   4.720   3.432  17.093  0.5573  0.5097 -0.7935
 6573TIP3    H141134   4.693   3.523  17.103  0.2517  0.3393 -0.1078
 6573TIP3    H241135   4.639   3.383  17.085  0.7005  0.1799 -0.2091
 6574TIP3   OH241136   4.287   1.712  16.608 -0.3708 -0.2722 -0.2726
 6574TIP3    H141137   4.263   1.782  16.548 -0.9366  0.5847  0.9416
 6574TIP3    H241138   4.223   1.719  16.679  0.7436 -0.8292  0.7870
 6575TIP3   OH241139   6.229   5.199  15.065  0.4507 -0.0663 -0.1873
 6575TIP3    H141140   6.216   5.169  14.975 -0.2176 -0.6800  0.1085
 6575TIP3    H241141   6.155   5.258  15.082  2.3759  2.7332 -1.1620
 6576TIP3   OH241142   2.519   2.597   3.541 -0.3023 -0.0942 -0.8452
 6576TIP3    H141143   2.512   2.605   3.636 -0.2629 -1.4212 -0.7212
 6576TIP3    H241144   2.574   2.671   3.515 -0.9630  0.7249  0.0714
 6577TIP3   OH241145   0.962   2.370   5.274  0.2484  0.5996 -0.1139
 6577TIP3    H141146   1.000   2.282   5.280 -0.5717  0.1519 -1.2161
 6577TIP3    H241147   0.867   2.354   5.272  0.1357  1.4156 -1.7622
 6578TIP3   OH241148   1.639   5.135  15.013 -0.3514 -0.1522 -0.3218
 6578TIP3    H141149   1.616   5.224  14.987  2.1712  0.3088 -1.1528
 6578TIP3    H241150   1.613   5.081  14.938 -1.5389 -0.0758  0.0315
 6579TIP3   OH241151   2.585   1.233  12.199 -0.0166  0.5816 -0.1720
 6579TIP3    H141152   2.674   1.267  12.211  1.0230 -1.7615 -1.0718
 6579TIP3    H241153   2.594   1.164  12.134 -2.3166 -0.4957  0.6062
 6580TIP3   OH241154   2.246   3.104   2.333  0.4644  0.5599  0.0715
 6580TIP3    H141155   2.213   3.160   2.403  0.7123  0.8534 -0.0445
 6580TIP3    H241156   2.340   3.122   2.330  0.3275  1.1962 -0.9004
 6581TIP3   OH241157   4.575   3.300  16.695 -0.2962  0.2120 -0.1540
 6581TIP3    H141158   4.609   3.213  16.676  2.6257  0.5681  3.2069
 6581TIP3    H241159   4.634   3.359  16.650 -0.5990  0.5910 -0.0576
 6582TIP3   OH241160   3.883   1.381  15.163 -0.7321 -0.3329  0.6411
 6582TIP3    H141161   3.788   1.394  15.162 -0.6634  0.1530  0.4382
 6582TIP3    H241162   3.895   1.291  15.131 -1.2908 -1.5147  3.5458
 6583TIP3   OH241163   6.561   5.231   0.598 -0.1494  0.1032 -0.0876
 6583TIP3    H141164   6.497   5.237   0.527 -0.4506  1.2894  0.2842
 6583TIP3    H241165   6.509   5.246   0.677  0.1580 -1.3480  0.4063
 6584TIP3   OH241166   2.480   5.200  13.325 -0.6734  0.2439 -0.1936
 6584TIP3    H141167   2.437   5.195  13.239 -1.2317  0.7657  0.0504
 6584TIP3    H241168   2.409   5.184  13.387 -0.0403 -1.3957  0.1335
 6585TIP3   OH241169   1.626   5.330   3.867 -0.5231 -0.4950  0.1467
 6585TIP3    H141170   1.651   5.265   3.802 -1.2109  0.1355 -0.7525
 6585TIP3    H241171   1.707   5.350   3.914 -0.0571 -1.0344 -0.4252
 6586TIP3   OH241172   4.754   0.752  11.410  0.8227  0.1161 -0.0778
 6586TIP3    H141173   4.681   0.690  11.404  0.4940  0.3267  1.4098
 6586TIP3    H241174   4.734   0.820  11.346 -0.6464  0.5266  0.8046
 6587TIP3   OH241175   4.671   5.416   5.272  0.4008  0.7024  0.2588
 6587TIP3    H141176   4.670   5.503   5.310 -1.2780  0.2826  1.2079
 6587TIP3    H241177   4.640   5.358   5.342  0.0184 -0.4518 -0.8361
 6588TIP3   OH241178   2.081   3.294   2.854 -0.3134  0.0507  0.6003
 6588TIP3    H141179   2.085   3.358   2.925 -0.2334  1.0620 -0.2975
 6588TIP3    H241180   1.990   3.295   2.826  0.1955  1.6683 -1.0990
 6589TIP3   OH241181   1.295   2.170   1.913  0.5902 -0.0915  0.1111
 6589TIP3    H141182   1.379   2.135   1.941 -0.2325 -0.7371  1.8410
 6589TIP3    H241183   1.302   2.264   1.929  0.4506 -0.3343  1.7568
 6590TIP3   OH241184   5.553   0.433  14.364  0.3245  0.9252  0.5880
 6590TIP3    H141185   5.598   0.420  14.280 -1.6167 -2.1513 -0.1015
 6590TIP3    H241186   5.589   0.365  14.421 -0.9280  0.6892  1.1101
 6591TIP3   OH241187   3.254   1.956  13.691 -0.2690 -0.3651  0.3308
 6591TIP3    H141188   3.277   2.038  13.647 -0.2131 -1.4740 -1.7911
 6591TIP3    H241189   3.160   1.946  13.676 -0.2362 -0.7798  0.3957
 6592TIP3   OH241190   2.499   5.179   3.847  0.2792 -0.1412 -0.1127
 6592TIP3    H141191   2.439   5.141   3.783  1.2649  0.1833 -1.2372
 6592TIP3    H241192   2.477   5.273   3.847  0.5655 -0.0755 -0.2743
 6593TIP3   OH241193   5.541   1.771  15.047 -0.0391 -0.5040  0.5957
 6593TIP3    H141194   5.554   1.854  15.093  1.0666 -1.1370  1.4617
 6593TIP3    H241195   5.589   1.781  14.965 -0.8446  0.1156  0.1943
 6594TIP3   OH241196   0.406   0.634  17.226  0.4472 -0.6274 -0.6424
 6594TIP3    H141197   0.334   0.606  17.283 -0.3233  0.7988 -0.8816
 6594TIP3    H241198   0.447   0.553  17.197 -0.4035 -1.4264  0.3584
 6595TIP3   OH241199   5.791   2.086   6.701 -0.0899 -0.3029  0.3114
 6595TIP3    H141200   5.864   2.041   6.743 -0.5547 -0.1671  1.2605
 6595TIP3    H241201   5.732   2.016   6.672 -1.3920 -0.2855  2.8321
 6596TIP3   OH241202   1.450   0.595   2.957 -0.2620 -0.1159 -0.0677
 6596TIP3    H141203   1.420   0.595   2.866  1.6103  3.6680 -0.7470
 6596TIP3    H241204   1.386   0.649   3.003 -0.0557 -0.3141  0.4555
 6597TIP3   OH241205   1.562   1.035   1.127  0.4261  0.6081 -0.2420
 6597TIP3    H141206   1.515   1.099   1.179 -3.8183 -0.5593 -2.3308
 6597TIP3    H241207   1.598   1.085   1.053  0.9879  1.2595  0.4702
 6598TIP3   OH241208   1.479   4.819  11.885 -0.2961  0.7112  0.0349
 6598TIP3    H141209   1.502   4.746  11.826  0.6880  0.7826  0.3213
 6598TIP3    H241210   1.385   4.832  11.871 -0.8601 -1.6933  1.1730
 6599TIP3   OH241211   2.345   3.713  16.073 -0.3211  0.0561  0.3044
 6599TIP3    H141212   2.301   3.753  15.997  0.3137  1.4766  0.6701
 6599TIP3    H241213   2.295   3.633  16.090 -0.7384 -0.0646 -1.3465
 6600TIP3   OH241214   0.291   1.204  15.622  0.3535 -0.5679  0.3442
 6600TIP3    H141215   0.293   1.179  15.714  1.3045  0.5534  0.6454
 6600TIP3    H241216   0.233   1.281  15.619  0.9397 -0.1238  0.1482
 6601TIP3   OH241217   0.599   0.763   1.945 -0.9550 -0.1938  0.1732
 6601TIP3    H141218   0.546   0.764   1.865  0.6673  2.0472 -0.9219
 6601TIP3    H241219   0.635   0.851   1.952  2.0804 -1.4197  1.2495
 6602TIP3   OH241220   6.230   5.183   1.892 -0.2239  0.5708 -0.2283
 6602TIP3    H141221   6.156   5.153   1.944  0.5542 -1.3680 -0.2039
 6602TIP3    H241222   6.202   5.173   1.802 -0.0558 -0.0307 -0.2173
 6603TIP3   OH241223   4.202   5.781   2.134  0.3630 -0.2908 -0.3007
 6603TIP3    H141224   4.271   5.814   2.191  1.1191 -1.5637 -0.4540
 6603TIP3    H241225   4.243   5.708   2.087 -1.4236 -1.8370  0.4803
 6604TIP3   OH241226   4.669   5.372   6.018  0.4011 -0.7191  0.0698
 6604TIP3    H141227   4.585   5.411   6.043  0.7973  0.3084 -0.1890
 6604TIP3    H241228   4.710   5.348   6.101  0.2417 -0.4292  0.2326
 6605TIP3   OH241229   6.668   5.845  13.843  0.5502 -0.4933  0.5151
 6605TIP3    H141230   6.618   5.763  13.847  0.7637 -0.6105  0.8622
 6605TIP3    H241231   6.610   5.910  13.883  0.6530 -0.6213  0.8794
 6606TIP3   OH241232   6.652   1.834   2.645  0.1796  0.7687  0.1599
 6606TIP3    H141233   6.733   1.817   2.596 -0.7828 -1.2286 -0.8387
 6606TIP3    H241234   6.611   1.908   2.600 -0.2988 -0.5435 -1.6388
 6607TIP3   OH241235   2.121   3.149  11.348 -0.6628  0.1086 -0.5599
 6607TIP3    H141236   2.126   3.210  11.274 -0.2389  0.0213 -0.6037
 6607TIP3    H241237   2.121   3.062  11.308 -0.8215  0.0704 -0.4760
 6608TIP3   OH241238   0.741   5.568  13.665  0.0649 -0.0648 -0.5842
 6608TIP3    H141239   0.690   5.500  13.709  0.9514  0.9920  2.1835
 6608TIP3    H241240   0.832   5.545  13.683  0.4472  0.3407 -1.9761
 6609TIP3   OH241241   2.867   4.183  16.124 -0.7713 -0.0803  0.2673
 6609TIP3    H141242   2.901   4.111  16.071 -0.4735 -1.1210  1.8350
 6609TIP3    H241243   2.936   4.249  16.122 -0.1278 -0.7330  0.5652
 6610TIP3   OH241244   4.624   4.762   6.183  0.5088 -0.1805  0.0300
 6610TIP3    H141245   4.647   4.837   6.238 -2.2476 -0.1290  1.2067
 6610TIP3    H241246   4.650   4.686   6.234 -0.2543 -0.0993  0.5351
 6611TIP3   OH241247   1.094   5.132  12.871  0.2459  0.8620 -0.0181
 6611TIP3    H141248   1.139   5.211  12.840  0.7168  0.4313 -0.4385
 6611TIP3    H241249   1.097   5.139  12.966  0.8816  1.0317 -0.0437
 6612TIP3   OH241250   0.047   0.763  13.891 -0.6023  0.2109  0.2985
 6612TIP3    H141251   0.019   0.805  13.972 -0.3598  1.3034 -0.1670
 6612TIP3    H241252   0.039   0.670  13.908  0.9948  0.3781  2.1458
 6613TIP3   OH241253   6.137   4.287  15.097  0.2760  0.3704  0.1753
 6613TIP3    H141254   6.045   4.270  15.118  0.3185  1.3407  1.2059
 6613TIP3    H241255   6.147   4.382  15.108  1.6799  0.1195  1.2681
 6614TIP3   OH241256   0.868   5.016   0.356  0.5600  0.0594  0.5424
 6614TIP3    H141257   0.781   5.005   0.394  0.5314 -3.2442 -0.3237
 6614TIP3    H241258   0.851   5.050   0.268  0.1005 -0.6117  0.3615
 6615TIP3   OH241259   5.391   2.033   3.137  0.0508  0.1709  0.3547
 6615TIP3    H141260   5.336   2.027   3.058 -1.5070  0.7649  1.3641
 6615TIP3    H241261   5.480   2.045   3.104 -0.6539  0.9816 -1.3128
 6616TIP3   OH241262   6.785   3.600   5.812  0.2923 -0.1620  0.1046
 6616TIP3    H141263   6.725   3.528   5.790  0.9060 -0.8007  0.5176
 6616TIP3    H241264   6.727   3.674   5.832 -0.3324 -0.3685 -0.8826
 6617TIP3   OH241265   3.547   5.434  13.808  0.4058 -0.4795  0.3933
 6617TIP3    H141266   3.641   5.452  13.797  0.4924 -0.8482  0.5271
 6617TIP3    H241267   3.507   5.469  13.728  0.6700 -0.4263  0.2829
 6618TIP3   OH241268   3.426   5.705  14.851  0.2742 -0.0383  0.2318
 6618TIP3    H141269   3.492   5.733  14.788 -0.1130  0.6371  0.1303
 6618TIP3    H241270   3.344   5.707  14.803  0.3055 -1.8416  0.0704
 6619TIP3   OH241271   5.151   6.225  12.464 -0.2992 -0.5055  0.0406
 6619TIP3    H141272   5.213   6.152  12.466 -0.1531 -0.6410 -4.4141
 6619TIP3    H241273   5.069   6.187  12.436 -1.7776  0.1614  3.2473
 6620TIP3   OH241274   3.607   2.074   5.419 -0.3370  0.3984 -0.1421
 6620TIP3    H141275   3.669   2.089   5.348  0.8951 -0.2188  0.7868
 6620TIP3    H241276   3.530   2.037   5.375  1.9066 -3.9155 -0.7642
 6621TIP3   OH241277   2.322   5.518  11.113 -0.1356  0.2179 -0.2274
 6621TIP3    H141278   2.321   5.554  11.202  2.0388 -1.8733  0.7115
 6621TIP3    H241279   2.364   5.586  11.060  0.0774  0.8015  0.6718
 6622TIP3   OH241280   6.654   3.485   1.513  0.1772  0.0696  0.3180
 6622TIP3    H141281   6.575   3.529   1.483 -0.6296 -1.6484 -0.0965
 6622TIP3    H241282   6.720   3.505   1.447 -1.0693 -2.0808 -1.6439
 6623TIP3   OH241283   4.578   2.515   1.834 -0.0667 -0.0119  0.2434
 6623TIP3    H141284   4.601   2.558   1.916 -0.8797 -0.5197  0.7484
 6623TIP3    H241285   4.547   2.586   1.777 -0.0575  0.2593  0.5781
 6624TIP3   OH241286   0.760   2.925   5.247  0.2086 -0.2830 -0.2947
 6624TIP3    H141287   0.752   3.001   5.189  0.8983 -0.1629 -0.2344
 6624TIP3    H241288   0.847   2.890   5.228  0.5827 -0.0351  0.9195
 6625TIP3   OH241289   3.124   5.556   2.150  0.1548  0.1106 -0.1655
 6625TIP3    H141290   3.080   5.583   2.230  0.1042 -1.2237  0.2655
 6625TIP3    H241291   3.112   5.630   2.090 -0.5641  0.7518  0.7590
 6626TIP3   OH241292   0.413   3.329  13.186 -0.0891  0.3340  0.0215
 6626TIP3    H141293   0.470   3.328  13.109 -0.5781 -0.0394 -0.3371
 6626TIP3    H241294   0.465   3.287  13.255  0.6239  1.3289  0.0942
 6627TIP3   OH241295   1.732   2.143  13.313 -0.6413  0.0176  0.3216
 6627TIP3    H141296   1.672   2.075  13.284  0.2634 -0.7932  0.3324
 6627TIP3    H241297   1.676   2.219  13.329 -1.7738 -0.9814  1.1784
 6628TIP3   OH241298   5.165   2.784  16.227  0.6974  0.8390 -0.3693
 6628TIP3    H141299   5.170   2.873  16.262  2.8812  0.1740  1.1250
 6628TIP3    H241300   5.256   2.755  16.224  0.0525 -1.1215 -1.4397
 6629TIP3   OH241301   1.509   1.903   0.340  0.9534 -0.2743 -0.1474
 6629TIP3    H141302   1.474   1.816   0.360  1.5601 -0.7755 -1.2343
 6629TIP3    H241303   1.471   1.960   0.407 -0.8579 -1.0483 -0.5023
 6630TIP3   OH241304   0.589   6.420   4.469 -0.3347 -0.8260  0.4773
 6630TIP3    H141305   0.498   6.435   4.442 -0.4042 -1.4653  0.3684
 6630TIP3    H241306   0.591   6.329   4.498 -0.1038 -0.3509  2.0061
 6631TIP3   OH241307   6.751   1.214  16.327  0.5382 -0.4373 -0.6907
 6631TIP3    H141308   6.756   1.228  16.233 -3.1836 -0.6966 -0.9967
 6631TIP3    H241309   6.777   1.298  16.366  1.3367 -0.0938 -1.9499
 6632TIP3   OH241310   1.343   4.586  11.481  0.3594 -0.6979 -0.0651
 6632TIP3    H141311   1.329   4.560  11.572 -0.0852  0.9315  0.3443
 6632TIP3    H241312   1.437   4.599  11.474  0.2876  0.0554  0.4009
 6633TIP3   OH241313   4.363   3.697  14.737  0.1796  0.1750 -0.0346
 6633TIP3    H141314   4.387   3.735  14.822 -1.0597  0.5806  0.1489
 6633TIP3    H241315   4.303   3.625  14.759  0.0025  0.1603 -0.5495
 6634TIP3   OH241316   4.187   1.685   6.486 -0.3058 -0.4676  0.3254
 6634TIP3    H141317   4.126   1.635   6.432 -1.1758  1.6570 -0.7100
 6634TIP3    H241318   4.133   1.753   6.526  0.6002 -1.1103  2.7934
 6635TIP3   OH241319   3.457   1.485  15.510  0.0132  0.3994 -0.3277
 6635TIP3    H141320   3.437   1.525  15.426  0.4045 -0.1607 -0.6935
 6635TIP3    H241321   3.495   1.400  15.487 -3.3071 -1.3828  0.4416
 6636TIP3   OH241322   2.612   1.770   2.366 -0.0817 -0.2400 -0.7369
 6636TIP3    H141323   2.551   1.696   2.362 -0.6161  0.1925 -0.7456
 6636TIP3    H241324   2.699   1.730   2.366 -0.3748 -0.8923  0.0143
 6637TIP3   OH241325   0.506   0.029  16.251  0.5894  0.5341  0.5518
 6637TIP3    H141326   0.559   0.043  16.173  0.1504  0.0016  0.1486
 6637TIP3    H241327   0.424   0.075  16.232 -0.6672 -2.0195 -0.5656
 6638TIP3   OH241328   4.339   1.094   3.748 -0.1093 -0.3213 -0.4867
 6638TIP3    H141329   4.254   1.134   3.726 -0.5196 -1.0588 -0.2524
 6638TIP3    H241330   4.395   1.169   3.768 -1.5125  0.0772  2.2014
 6639TIP3   OH241331   4.825   4.417   5.883  0.2692  0.2961  0.0498
 6639TIP3    H141332   4.774   4.367   5.819 -1.2172  0.7859  0.8425
 6639TIP3    H241333   4.837   4.356   5.956 -0.3482  0.6196  0.4277
 6640TIP3   OH241334   2.200   3.368  16.278 -0.7716  0.3506 -0.2387
 6640TIP3    H141335   2.183   3.389  16.370  0.7993  1.5936 -0.2090
 6640TIP3    H241336   2.184   3.274  16.272 -2.0281  0.4612  1.0290
 6641TIP3   OH241337   3.958   6.406  14.024  0.0410  0.4873  0.1448
 6641TIP3    H141338   3.971   6.361  13.940 -1.4612 -0.2944  0.3110
 6641TIP3    H241339   3.874   6.451  14.014 -2.1302 -2.7315  2.5059
 6642TIP3   OH241340   2.210   2.788   3.579  0.0561 -0.3269  0.2057
 6642TIP3    H141341   2.199   2.750   3.491 -0.1141  0.9567 -0.3457
 6642TIP3    H241342   2.297   2.828   3.577 -0.8573  1.7545 -0.2073
 6643TIP3   OH241343   6.176   5.708   5.449 -0.4153  0.1461  0.1702
 6643TIP3    H141344   6.150   5.777   5.387 -2.0358  0.6434  1.3739
 6643TIP3    H241345   6.199   5.634   5.393 -3.5790 -0.0106 -1.0410
 6644TIP3   OH241346   4.078   6.589  15.839 -0.2157  0.2784 -0.1750
 6644TIP3    H141347   4.044   6.579  15.750 -0.4834  0.5371 -0.1035
 6644TIP3    H241348   4.172   6.605  15.828  0.0458 -1.2974 -0.3398
 6645TIP3   OH241349   0.258   3.744  15.546 -0.5530  0.1994  0.1150
 6645TIP3    H141350   0.189   3.809  15.559 -0.5323  0.0841  0.7778
 6645TIP3    H241351   0.258   3.692  15.626  0.5577  0.4280  0.2734
 6646TIP3   OH241352   0.248   6.066  15.763  0.2435  0.3992  0.0985
 6646TIP3    H141353   0.279   6.148  15.724  0.2727  0.2774 -0.1393
 6646TIP3    H241354   0.157   6.082  15.785  0.2087  0.4501 -0.0823
 6647TIP3   OH241355   5.001   4.943  11.553 -0.4789 -0.4882 -0.1295
 6647TIP3    H141356   5.050   4.878  11.504 -0.6379  1.5046 -3.0596
 6647TIP3    H241357   4.938   4.979  11.490 -2.1632  0.6599  2.1236
 6648TIP3   OH241358   0.167   1.850  13.271  0.1934 -0.2907  0.0746
 6648TIP3    H141359   0.167   1.936  13.230  2.3954 -0.6505 -0.7288
 6648TIP3    H241360   0.205   1.792  13.206  0.8634 -1.4437  1.4630
 6649TIP3   OH241361   6.148   2.843  14.707  0.6428 -0.2744  0.1215
 6649TIP3    H141362   6.119   2.917  14.760  0.2571 -0.9109  0.8021
 6649TIP3    H241363   6.243   2.852  14.703  0.8697 -1.2349  2.4668
 6650TIP3   OH241364   4.636   2.603  16.896 -0.4429 -0.2880 -0.3044
 6650TIP3    H141365   4.615   2.521  16.941 -1.3667 -0.1725 -0.5256
 6650TIP3    H241366   4.613   2.586  16.805 -0.5237  0.1846 -0.3719
 6651TIP3   OH241367   6.034   5.071   3.984 -0.2420  0.1261  0.1637
 6651TIP3    H141368   6.009   5.117   4.063  1.1375 -0.0773  0.7385
 6651TIP3    H241369   6.095   5.131   3.940 -0.3927 -0.0917 -0.3495
 6652TIP3   OH241370   3.989   1.855  13.044  0.5046 -0.6556 -0.0219
 6652TIP3    H141371   4.059   1.790  13.050 -0.0408 -1.3343 -0.7938
 6652TIP3    H241372   3.929   1.819  12.978  0.6504  1.0586 -1.1291
 6653TIP3   OH241373   0.609   3.580   2.997 -0.0826  0.1368  0.0280
 6653TIP3    H141374   0.616   3.488   3.024 -1.2194 -0.0459 -0.2903
 6653TIP3    H241375   0.515   3.595   2.987  0.2154  0.7896 -1.8600
 6654TIP3   OH241376   6.358   6.011  10.621  0.1769 -0.0932  0.3999
 6654TIP3    H141377   6.341   5.957  10.698  2.0125  1.1654  1.7316
 6654TIP3    H241378   6.439   5.976  10.584 -0.5791 -0.5548 -0.8513
 6655TIP3   OH241379   5.779   0.606   6.252  0.2686 -0.2596  0.3167
 6655TIP3    H141380   5.864   0.566   6.232  0.1604 -0.1383 -0.3916
 6655TIP3    H241381   5.719   0.531   6.258  0.5243 -0.3911  1.3613
 6656TIP3   OH241382   4.659   5.902   1.656  0.0059 -0.3940 -0.0017
 6656TIP3    H141383   4.630   5.990   1.679  0.2640 -0.6246  1.2488
 6656TIP3    H241384   4.616   5.845   1.719 -0.0837 -1.1622 -0.7404
 6657TIP3   OH241385   5.574   6.751   3.988  0.1699 -0.7434 -0.1987
 6657TIP3    H141386   5.521   6.694   3.932  0.1641 -2.2591  1.3240
 6657TIP3    H241387   5.663   6.715   3.982  0.9772  1.4609 -2.3166
 6658TIP3   OH241388   2.345   1.913   0.493  0.0998  0.5284  0.4775
 6658TIP3    H141389   2.291   1.849   0.446 -0.5183  1.8300 -0.6058
 6658TIP3    H241390   2.309   1.914   0.581 -1.8508  1.5677 -0.2985
 6659TIP3   OH241391   1.602   1.239  12.675 -0.1813 -0.0440 -0.3775
 6659TIP3    H141392   1.579   1.147  12.676 -1.0344  0.1749  0.5412
 6659TIP3    H241393   1.565   1.273  12.594  1.0208 -0.7178 -1.2341
 6660TIP3   OH241394   3.033   0.879  12.574  0.5200 -0.3592  0.4328
 6660TIP3    H141395   3.078   0.956  12.539 -1.4934  0.6019 -0.1004
 6660TIP3    H241396   2.941   0.893  12.554  0.1957 -3.3989 -0.5921
 6661TIP3   OH241397   0.602   2.600   1.431 -0.3957 -0.2459 -0.3275
 6661TIP3    H141398   0.653   2.548   1.494 -1.1348 -0.7958 -0.1761
 6661TIP3    H241399   0.662   2.615   1.358 -0.1068 -1.1489 -0.2849
 6662TIP3   OH241400   2.017   1.012  12.932  0.2758  0.0750  0.4570
 6662TIP3    H141401   2.103   0.979  12.907  0.2245  0.9409 -0.9632
 6662TIP3    H241402   1.962   0.995  12.855 -0.6332  0.1769  1.0803
 6663TIP3   OH241403   0.287   0.173  15.367 -0.1132 -0.4518  0.0234
 6663TIP3    H141404   0.276   0.268  15.373 -0.1877 -0.4159 -0.6052
 6663TIP3    H241405   0.318   0.158  15.278 -2.9647 -1.2521 -0.9187
 6664TIP3   OH241406   1.213   3.936  16.164 -0.1813 -0.0821  0.1092
 6664TIP3    H141407   1.138   3.924  16.222  0.7085  0.4362  1.3893
 6664TIP3    H241408   1.179   3.920  16.077 -1.6135 -0.5862  0.7490
 6665TIP3   OH241409   0.371   6.459   2.552  0.5474 -0.9830  0.3025
 6665TIP3    H141410   0.437   6.450   2.621  0.0499  0.3584  0.9545
 6665TIP3    H241411   0.345   6.369   2.533  0.4849 -1.3671  2.0699
 6666TIP3   OH241412   6.638   4.360  16.224 -0.2437  0.5614 -0.1135
 6666TIP3    H141413   6.558   4.402  16.254  0.5070  0.7077  1.7696
 6666TIP3    H241414   6.707   4.423  16.242  0.4826 -0.1559 -0.3353
 6667TIP3   OH241415   0.613   2.471   3.990 -0.5772  0.2622  0.2562
 6667TIP3    H141416   0.520   2.461   3.973 -0.3378 -0.5868 -0.5964
 6667TIP3    H241417   0.656   2.440   3.910  0.3764  2.6813 -0.2137
 6668TIP3   OH241418   4.861   4.002  15.649 -0.1215 -0.1400  0.4728
 6668TIP3    H141419   4.843   3.932  15.586 -0.9578  1.2189 -0.8169
 6668TIP3    H241420   4.880   3.956  15.731 -0.6713 -1.8706 -0.3508
 6669TIP3   OH241421   5.241   0.030  12.328  0.5329  0.6008 -0.5123
 6669TIP3    H141422   5.275   0.055  12.414  1.3728  0.8056 -0.9003
 6669TIP3    H241423   5.212   0.112  12.288 -0.1414  0.4662 -0.3038
 6670TIP3   OH241424   4.685   3.208   2.150  0.6106  0.8694  0.3746
 6670TIP3    H141425   4.610   3.214   2.210  0.7168  1.5430  0.4437
 6670TIP3    H241426   4.688   3.294   2.107  1.3422  0.8414  0.3727
 6671TIP3   OH241427   5.643   2.891  14.986  0.2786  0.3204 -0.4794
 6671TIP3    H141428   5.706   2.818  14.993  0.6069  0.5166 -1.2765
 6671TIP3    H241429   5.695   2.969  15.004 -0.3130  0.2749  1.4702
 6672TIP3   OH241430   5.405   4.520  16.143  0.6877 -0.2954  0.2937
 6672TIP3    H141431   5.453   4.453  16.191 -0.0145 -0.3980  0.8668
 6672TIP3    H241432   5.471   4.586  16.121  0.9983 -0.1678  1.5471
 6673TIP3   OH241433   1.936   3.486  11.838 -0.2318 -0.1908  0.7262
 6673TIP3    H141434   1.926   3.574  11.802  0.1039 -0.2146  0.5819
 6673TIP3    H241435   1.894   3.492  11.924 -1.5155 -0.2739  0.1299
 6674TIP3   OH241436   3.856   6.302   1.388 -0.1945 -0.1466 -0.5829
 6674TIP3    H141437   3.814   6.305   1.474  0.4903 -1.1480 -0.1982
 6674TIP3    H241438   3.839   6.388   1.350 -2.3109 -0.4170 -0.3189
 6675TIP3   OH241439   6.601   1.167  14.189 -0.5788  0.0842 -0.3206
 6675TIP3    H141440   6.629   1.162  14.281 -1.0727 -0.3466 -0.1923
 6675TIP3    H241441   6.513   1.129  14.189  0.5750 -2.6503 -1.4760
 6676TIP3   OH241442   0.198   0.073  13.483 -0.1316 -0.4829 -0.2955
 6676TIP3    H141443   0.117   0.054  13.532 -0.4116 -1.8329 -1.2593
 6676TIP3    H241444   0.172   0.065  13.391  0.6930  0.8063 -0.6386
 6677TIP3   OH241445   5.595   3.375   1.281 -0.1073 -0.2335  0.2043
 6677TIP3    H141446   5.581   3.352   1.372 -0.1238  0.0374  0.2719
 6677TIP3    H241447   5.534   3.321   1.232 -0.3018 -0.1689  0.3763
 6678TIP3   OH241448   6.157   6.373   2.514 -0.1988  0.4696  0.2086
 6678TIP3    H141449   6.140   6.318   2.438 -1.2780 -0.1060  0.8502
 6678TIP3    H241450   6.071   6.409   2.538 -0.5427 -2.0794  3.1880
 6679TIP3   OH241451   3.581   2.038  17.218 -0.1915 -0.1780  0.5953
 6679TIP3    H141452   3.536   2.121  17.233  0.5283  0.1623  0.8989
 6679TIP3    H241453   3.531   1.973  17.268 -2.2307 -0.4044 -1.6029
 6680TIP3   OH241454   3.196   4.609  13.544 -0.3270  0.0856  0.3698
 6680TIP3    H141455   3.207   4.689  13.595 -2.6103  0.4353  0.3699
 6680TIP3    H241456   3.111   4.575  13.570  1.8486 -4.0307  2.6370
 6681TIP3   OH241457   2.303   4.771   0.370  0.4218 -0.8882 -0.0529
 6681TIP3    H141458   2.217   4.783   0.412 -0.3536  0.4721 -1.9557
 6681TIP3    H241459   2.305   4.836   0.300  2.7919 -1.2965 -0.4184
 6682TIP3   OH241460   0.071   5.576  13.701  0.1451 -0.1067  0.3450
 6682TIP3    H141461  -0.017   5.601  13.672  0.2037 -0.2626  0.0316
 6682TIP3    H241462   0.056   5.505  13.765  0.0099  0.3277  0.7994
 6683TIP3   OH241463   3.570   4.750   1.891  0.7577 -0.5175 -0.2603
 6683TIP3    H141464   3.614   4.735   1.807 -0.1802 -2.5984 -0.4108
 6683TIP3    H241465   3.510   4.823   1.874  2.0366  0.4284 -0.8215
 6684TIP3   OH241466   1.236   1.502   1.606 -0.0795 -0.2964 -0.0317
 6684TIP3    H141467   1.182   1.460   1.538 -0.5399  2.0318 -1.1580
 6684TIP3    H241468   1.326   1.488   1.576 -0.2431 -0.1062 -0.6256
 6685TIP3   OH241469   2.682   4.734   3.433 -0.1725 -0.0913  0.0344
 6685TIP3    H141470   2.604   4.679   3.420 -1.0306  0.9922  0.5170
 6685TIP3    H241471   2.747   4.674   3.470 -0.2235 -1.3930 -1.9133
 6686TIP3   OH241472   2.866   5.862  15.232 -0.1342  0.0697 -0.5373
 6686TIP3    H141473   2.845   5.791  15.171 -0.9949 -0.5265  0.4327
 6686TIP3    H241474   2.929   5.823  15.292 -0.8458  0.0262  0.1841
 6687TIP3   OH241475   6.536   3.556  15.213  0.4156 -0.2011  0.2728
 6687TIP3    H141476   6.622   3.515  15.226  0.4194  0.1774  1.6047
 6687TIP3    H241477   6.556   3.642  15.176  0.5331 -0.5948 -0.5821
 6688TIP3   OH241478   1.058   2.118  15.195 -0.2155 -0.5312 -0.0528
 6688TIP3    H141479   1.126   2.155  15.251 -0.1290  0.4925 -0.8248
 6688TIP3    H241480   0.976   2.146  15.235 -0.1992 -1.3771  0.6115
 6689TIP3   OH241481   1.132   3.422  15.068  0.0594  0.3541  0.0914
 6689TIP3    H141482   1.158   3.467  14.988  1.7365 -0.4070  0.1927
 6689TIP3    H241483   1.053   3.469  15.098  0.7569  2.0838 -0.7444
 6690TIP3   OH241484   6.298   2.203  12.907  0.0346 -0.2982 -0.1957
 6690TIP3    H141485   6.243   2.149  12.964  0.8017 -0.2348  0.6199
 6690TIP3    H241486   6.326   2.275  12.963 -1.3660  1.2045 -1.4066
 6691TIP3   OH241487   4.278   2.136   3.346 -0.3561  0.3747 -0.0712
 6691TIP3    H141488   4.357   2.086   3.365  0.0946  0.4225 -1.7273
 6691TIP3    H241489   4.208   2.071   3.345  0.0824 -0.0835 -1.2689
 6692TIP3   OH241490   0.695   6.271   4.945 -0.1307  0.7715 -0.0596
 6692TIP3    H141491   0.772   6.244   4.895  0.1117 -1.8746  1.6603
 6692TIP3    H241492   0.622   6.264   4.882  0.4825 -0.4398 -0.6590
 6693TIP3   OH241493   6.115   1.976  15.896 -0.0576 -0.4947  0.6168
 6693TIP3    H141494   6.079   1.904  15.948 -1.3183  0.0910  0.5584
 6693TIP3    H241495   6.202   1.945  15.869 -0.6092 -2.0170  0.5518
 6694TIP3   OH241496   2.027   1.339   1.004 -0.3511  0.3201 -0.4094
 6694TIP3    H141497   2.023   1.256   0.956  0.5777  0.3205 -0.4998
 6694TIP3    H241498   2.049   1.405   0.937  1.3290  0.2643  0.0487
 6695TIP3   OH241499   2.384   1.924  15.411 -0.2243  0.0812  0.4057
 6695TIP3    H141500   2.445   1.888  15.346 -1.4015 -1.6521  0.2206
 6695TIP3    H241501   2.439   1.976  15.469  1.1116  0.2500 -0.9749
 6696TIP3   OH241502   3.895   3.033  15.464 -0.1715 -0.1779 -0.3018
 6696TIP3    H141503   3.957   3.042  15.393  2.1862  0.6693  1.7820
 6696TIP3    H241504   3.949   3.032  15.543 -2.7640  0.1018  1.5510
 6697TIP3   OH241505   6.777   4.261  12.500  0.0494 -0.0384  0.6433
 6697TIP3    H141506   6.701   4.212  12.468 -0.1360  3.1854 -4.3609
 6697TIP3    H241507   6.741   4.345  12.529  1.4021  0.4473  0.9462
 6698TIP3   OH241508   0.645   6.410   1.752 -0.4190 -0.0993 -0.0720
 6698TIP3    H141509   0.634   6.400   1.657 -1.3415 -0.7732  0.1112
 6698TIP3    H241510   0.566   6.455   1.781  0.0572  0.5039  0.3286
 6699TIP3   OH241511   2.391   1.927   5.417 -0.3912  0.0188  0.0207
 6699TIP3    H141512   2.421   1.970   5.497 -0.5631  2.1128 -0.9821
 6699TIP3    H241513   2.370   2.000   5.358  0.1640 -1.4780 -2.0876
 6700TIP3   OH241514   2.892   6.769  12.796 -0.4057 -0.0935  0.2082
 6700TIP3    H141515   2.871   6.860  12.772  1.3239 -0.0466 -1.2384
 6700TIP3    H241516   2.943   6.777  12.876  0.2479  0.2650 -0.2380
 6701TIP3   OH241517   3.085   3.345   5.571  0.8405  0.4129  0.5467
 6701TIP3    H141518   3.152   3.405   5.604  0.2528  0.7622  1.1170
 6701TIP3    H241519   3.002   3.386   5.596  0.3971  0.3370 -0.7519
 6702TIP3   OH241520   2.245   2.398   5.451  0.1269 -0.3051 -0.3688
 6702TIP3    H141521   2.232   2.399   5.546 -2.6979  0.6973 -0.7205
 6702TIP3    H241522   2.290   2.480   5.432 -0.4785  0.1159 -0.0138
 6703TIP3   OH241523   2.258   0.966   0.511  0.4561  0.2823 -0.2576
 6703TIP3    H141524   2.209   0.922   0.580  2.1456 -1.8364 -0.3623
 6703TIP3    H241525   2.245   1.060   0.528 -1.0754 -0.2249  1.5026
 6704TIP3   OH241526   5.544   6.559  13.812 -0.1133  0.0283 -1.1286
 6704TIP3    H141527   5.581   6.616  13.745 -0.5451 -1.6877 -2.9103
 6704TIP3    H241528   5.523   6.478  13.764  0.8000 -1.7439  1.3553
 6705TIP3   OH241529   2.284   3.660  13.205 -0.0939 -0.0260  0.3992
 6705TIP3    H141530   2.259   3.680  13.296  1.3422 -0.4779  0.9076
 6705TIP3    H241531   2.225   3.714  13.152 -1.4600 -0.3032  1.5699
 6706TIP3   OH241532   0.283   2.395  13.543  0.3377 -0.1380 -0.2555
 6706TIP3    H141533   0.228   2.409  13.620  0.4996 -0.0502 -0.1551
 6706TIP3    H241534   0.367   2.435  13.566  0.0639  0.8258 -0.8768
 6707TIP3   OH241535   0.151   0.732   3.999  0.9432  0.4379 -0.1414
 6707TIP3    H141536   0.127   0.707   3.910  0.2298 -0.0486  0.1779
 6707TIP3    H241537   0.070   0.719   4.050  1.4210  0.4307  0.6250
 6708TIP3   OH241538   3.228   3.627   3.751  0.2398  0.0233  0.1878
 6708TIP3    H141539   3.252   3.617   3.659  0.9897 -0.0285  0.3824
 6708TIP3    H241540   3.312   3.625   3.798 -0.0526  1.1545  0.7711
 6709TIP3   OH241541   6.214   4.551  15.162  0.1008 -0.3424 -0.2549
 6709TIP3    H141542   6.144   4.617  15.166  0.0498 -0.5229  2.1553
 6709TIP3    H241543   6.285   4.595  15.114 -0.1733  1.2625  0.7613
 6710TIP3   OH241544   5.730   0.036   1.207 -0.6381 -0.0436 -0.5545
 6710TIP3    H141545   5.677   0.106   1.244 -0.5097 -0.2000 -0.0668
 6710TIP3    H241546   5.666  -0.026   1.170 -0.8740 -1.0867  1.5618
 6711TIP3   OH241547   6.229   6.021  11.094  0.6892  0.0327 -0.0829
 6711TIP3    H141548   6.236   5.940  11.145  1.7052 -0.1457 -0.5013
 6711TIP3    H241549   6.152   6.008  11.039 -1.3034  0.8117  2.4352
 6712TIP3   OH241550   3.572   2.198  11.990  0.0494  0.6493  0.2525
 6712TIP3    H141551   3.565   2.128  11.925  1.0633  0.6607  0.1136
 6712TIP3    H241552   3.486   2.240  11.990 -0.4339 -0.3097  0.0125
 6713TIP3   OH241553   2.853   5.670  16.714 -0.9051  0.2140 -0.2269
 6713TIP3    H141554   2.825   5.581  16.692  2.1140 -0.6620 -0.8471
 6713TIP3    H241555   2.929   5.685  16.659 -0.6293  2.7321  0.7769
 6714TIP3   OH241556   1.654   5.330   2.352 -0.4980 -0.3091 -0.4057
 6714TIP3    H141557   1.562   5.336   2.377 -0.1699 -2.2626  1.3856
 6714TIP3    H241558   1.702   5.362   2.428  0.3601 -0.9387 -0.6654
 6715TIP3   OH241559   1.019   1.713   1.219 -0.4320 -0.4494 -0.0404
 6715TIP3    H141560   0.992   1.685   1.307 -0.3896  0.9969  0.4422
 6715TIP3    H241561   0.938   1.739   1.176 -0.3336 -0.2585 -0.1076
 6716TIP3   OH241562   2.662   0.313   4.642 -0.4139  0.2472 -0.3788
 6716TIP3    H141563   2.647   0.236   4.696  1.3328 -0.0570 -0.3139
 6716TIP3    H241564   2.666   0.280   4.552 -1.2896  0.4866 -0.5126
 6717TIP3   OH241565   1.504   1.521  13.361  0.0675 -0.2939 -0.4001
 6717TIP3    H141566   1.528   1.522  13.269  1.3425  0.9278 -0.0572
 6717TIP3    H241567   1.571   1.573  13.405 -0.4319 -0.9982  1.2446
 6718TIP3   OH241568   6.539   0.588   2.472 -0.4037  0.1311 -0.3290
 6718TIP3    H141569   6.452   0.584   2.512 -1.0469  0.2943 -1.6874
 6718TIP3    H241570   6.542   0.675   2.431  1.0142  0.7707  1.0608
 6719TIP3   OH241571   0.476   1.972   1.475  0.1313 -0.1841 -0.4186
 6719TIP3    H141572   0.537   2.040   1.504  0.8415 -0.5590 -1.0073
 6719TIP3    H241573   0.519   1.890   1.501 -0.0598 -0.4538 -0.9450
 6720TIP3   OH241574   4.504   0.604   4.301  0.8158  0.2237 -0.8048
 6720TIP3    H141575   4.540   0.678   4.252  0.5622  0.1055 -1.1693
 6720TIP3    H241576   4.485   0.538   4.235  0.1558  0.1954 -0.5945
 6721TIP3   OH241577   1.453   4.542  14.846  0.1937 -0.2113 -0.5924
 6721TIP3    H141578   1.373   4.490  14.836  0.9962 -1.6779  0.3970
 6721TIP3    H241579   1.422   4.628  14.875 -0.9616 -1.2955  1.5196
 6722TIP3   OH241580   5.064   2.058   1.922  0.0922  0.0558  0.1917
 6722TIP3    H141581   5.014   2.058   2.004  1.0196  0.2224  0.7729
 6722TIP3    H241582   5.085   1.965   1.907  0.3753  0.0793  0.4324
 6723TIP3   OH241583   4.015   3.019   1.992 -0.0445 -0.1117  0.8849
 6723TIP3    H141584   3.942   2.958   1.979 -0.5679  0.9080 -1.2238
 6723TIP3    H241585   3.973   3.097   2.029 -0.2421  0.9136 -1.4405
 6724TIP3   OH241586   6.472   2.864  16.991 -0.5544  0.2818  0.2383
 6724TIP3    H141587   6.476   2.784  16.939  0.3411  1.1657 -1.0800
 6724TIP3    H241588   6.394   2.910  16.961 -1.0349 -0.0593  0.9513
 6725TIP3   OH241589   0.679   3.729  12.059  0.0214  0.1694  0.4908
 6725TIP3    H141590   0.596   3.695  12.026  1.3883 -1.2146 -1.6556
 6725TIP3    H241591   0.739   3.655  12.055  2.2504  1.9595 -1.3279
 6726TIP3   OH241592   1.262   6.198  15.005  0.1393  0.5417  0.1302
 6726TIP3    H141593   1.345   6.231  15.040  0.0416  1.2670 -0.3129
 6726TIP3    H241594   1.205   6.192  15.082  0.5016  0.3445  0.3864
 6727TIP3   OH241595   5.467   0.561  15.197 -0.0111 -0.2701  0.0147
 6727TIP3    H141596   5.489   0.653  15.179  1.0766 -0.5761 -0.3005
 6727TIP3    H241597   5.488   0.516  15.115  1.7250 -1.1569  0.9272
 6728TIP3   OH241598   5.900   3.950   2.668 -0.4573 -0.3673 -0.7095
 6728TIP3    H141599   5.843   3.968   2.593  0.6238  3.0383 -0.7974
 6728TIP3    H241600   5.882   4.021   2.730  0.5052 -1.7157  1.1648
 6729TIP3   OH241601   1.308   4.643   4.168 -0.3287  0.3231  0.1577
 6729TIP3    H141602   1.226   4.608   4.204 -0.0594 -0.8141 -0.3257
 6729TIP3    H241603   1.371   4.572   4.179  0.1188  0.5103 -1.2118
 6730TIP3   OH241604   5.650   6.159  15.732  0.3848 -0.3170  0.0600
 6730TIP3    H141605   5.659   6.109  15.651 -0.8115  0.6212 -0.6587
 6730TIP3    H241606   5.582   6.224  15.713  1.0160  0.7498  1.3980
 6731TIP3   OH241607   1.368   0.172   6.104  0.1072 -0.3991 -0.3979
 6731TIP3    H141608   1.295   0.234   6.106 -1.5458 -2.2775 -0.9601
 6731TIP3    H241609   1.415   0.192   6.022 -0.2281  0.3056 -0.4162
 6732TIP3   OH241610   0.480   4.065  16.079 -0.1530 -0.0747 -0.2810
 6732TIP3    H141611   0.393   4.071  16.117  0.4873  1.0343  1.0303
 6732TIP3    H241612   0.491   4.146  16.030  0.4094  0.1085  0.1373
 6733TIP3   OH241613   2.658   5.785   0.046  0.3997  0.4379 -0.4971
 6733TIP3    H141614   2.637   5.778   0.139  0.7637 -1.2950 -0.5372
 6733TIP3    H241615   2.625   5.704   0.007 -0.6399  1.5718 -2.0622
 6734TIP3   OH241616   2.731   4.516   3.165  0.1421  0.0208 -0.1685
 6734TIP3    H141617   2.783   4.584   3.123  0.7789  0.3719  1.1690
 6734TIP3    H241618   2.774   4.434   3.139 -1.1810  0.0577 -2.5412
 6735TIP3   OH241619   4.133   2.882   1.241 -0.0011  0.1807 -0.3416
 6735TIP3    H141620   4.197   2.853   1.177  1.7337  4.1192 -0.5266
 6735TIP3    H241621   4.174   2.864   1.326 -0.9553 -2.0823 -0.3064
 6736TIP3   OH241622   2.254   4.376  10.717  0.2453  0.1461  0.2209
 6736TIP3    H141623   2.190   4.356  10.649 -0.6335  1.0087  0.7768
 6736TIP3    H241624   2.222   4.329  10.794  0.5809  0.1398  0.3546
 6737TIP3   OH241625   1.211   3.352   0.758  0.3671 -0.4152  0.3182
 6737TIP3    H141626   1.132   3.380   0.803 -1.8101 -1.3820 -2.7706
 6737TIP3    H241627   1.247   3.433   0.721 -1.2502 -0.4411 -1.3901
 6738TIP3   OH241628   6.435   2.463   4.520  0.2162  0.2440  0.2515
 6738TIP3    H141629   6.527   2.441   4.506 -0.0456 -1.0558  0.5070
 6738TIP3    H241630   6.400   2.479   4.432  0.4716 -0.1469  0.0784
 6739TIP3   OH241631   2.579   2.103   3.688  0.6910 -0.5555 -0.5430
 6739TIP3    H141632   2.486   2.107   3.712  0.9730 -1.5272  0.7573
 6739TIP3    H241633   2.586   2.027   3.630  0.5979 -0.1595 -1.0868
 6740TIP3   OH241634   5.669   2.891  15.343  0.3318 -0.1790  0.2146
 6740TIP3    H141635   5.689   2.979  15.309  2.4270 -0.1754  1.3546
 6740TIP3    H241636   5.600   2.905  15.407 -0.8886  0.3245 -1.1644
 6741TIP3   OH241637   1.159   3.608   5.325  0.1348  0.2186  0.4687
 6741TIP3    H141638   1.112   3.641   5.401  0.1317 -0.4104  0.7455
 6741TIP3    H241639   1.252   3.615   5.349  0.1167 -0.6587  0.8284
 6742TIP3   OH241640   5.340   0.325  15.255  0.3850 -0.4664  0.3179
 6742TIP3    H141641   5.320   0.310  15.162  0.9832 -0.5861  0.2026
 6742TIP3    H241642   5.358   0.419  15.260 -3.2114  0.2508  1.0179
 6743TIP3   OH241643   1.683   1.570  15.972 -0.3036 -0.4151 -0.2563
 6743TIP3    H141644   1.689   1.489  15.922  1.3553  0.4974 -1.5758
 6743TIP3    H241645   1.635   1.630  15.915 -0.9739 -0.2536  0.4578
 6744TIP3   OH241646   2.017   1.448   1.499  0.0715 -0.0944 -0.1355
 6744TIP3    H141647   2.046   1.537   1.519  0.3146 -0.3486  0.6422
 6744TIP3    H241648   2.051   1.432   1.411 -1.6862  1.3156 -1.1056
 6745TIP3   OH241649   6.553   1.731   3.701  0.4031  0.4335 -0.0032
 6745TIP3    H141650   6.547   1.639   3.727  0.1010 -0.3552 -2.7550
 6745TIP3    H241651   6.500   1.777   3.766 -0.2558 -1.4589  0.8278
 6746TIP3   OH241652   3.432   6.150  17.105 -0.2393  0.0938  0.2420
 6746TIP3    H141653   3.472   6.125  17.022  0.9462 -0.3914  0.9406
 6746TIP3    H241654   3.339   6.136  17.092 -0.3276  2.1226 -1.7333
 6747TIP3   OH241655   0.266   0.512   4.164 -0.4519 -0.3466  0.1870
 6747TIP3    H141656   0.299   0.465   4.088  1.9598  2.4810 -0.5903
 6747TIP3    H241657   0.226   0.592   4.128 -1.0527  0.0770  1.7297
 6748TIP3   OH241658   3.764   0.250   0.182  0.3909  0.3807  0.6675
 6748TIP3    H141659   3.806   0.327   0.143  0.8465  0.3485  1.0951
 6748TIP3    H241660   3.676   0.249   0.143  0.6210  0.7156  0.1253
 6749TIP3   OH241661   3.323   0.301   1.125 -0.1574 -0.5550  0.4124
 6749TIP3    H141662   3.333   0.250   1.044 -0.0811 -1.1884  0.8177
 6749TIP3    H241663   3.410   0.298   1.166 -0.6679 -1.7677  1.4155
 6750TIP3   OH241664   0.581   1.024   2.089  0.4094 -0.1482  0.0287
 6750TIP3    H141665   0.619   1.072   2.015 -2.7199  1.5850 -0.5612
 6750TIP3    H241666   0.589   1.085   2.162  1.3848 -0.9422  0.5907
 6751TIP3   OH241667   3.428   5.263   0.598  0.0865 -0.4943  0.0616
 6751TIP3    H141668   3.383   5.330   0.547  1.3053  0.7861  0.6400
 6751TIP3    H241669   3.497   5.231   0.540  0.4735 -0.1589  0.3359
 6752TIP3   OH241670   2.755   1.313  16.327 -0.1466  0.2828 -0.2861
 6752TIP3    H141671   2.812   1.308  16.250  0.9766 -0.3736  0.5840
 6752TIP3    H241672   2.736   1.407  16.337  1.1510  0.5492 -0.3024
 6753TIP3   OH241673   2.593   5.826  12.338 -0.6020 -0.1583  0.7535
 6753TIP3    H141674   2.531   5.828  12.265  0.0945 -1.2573  0.1202
 6753TIP3    H241675   2.557   5.888  12.402 -2.0691 -0.4037  0.1732
 6754TIP3   OH241676   6.114   4.164  14.848 -0.3697 -0.0892 -0.1340
 6754TIP3    H141677   6.173   4.096  14.879  0.8837  0.1353 -1.9251
 6754TIP3    H241678   6.094   4.216  14.926  1.0096 -0.7658  0.6912
 6755TIP3   OH241679   6.265   3.904  14.848  0.4694  0.0245  0.1236
 6755TIP3    H141680   6.182   3.872  14.884 -0.1872 -0.0145 -1.3802
 6755TIP3    H241681   6.310   3.824  14.819  0.5415  0.1477 -0.0995
 6756TIP3   OH241682   4.661   5.080  14.954  0.1540  0.2418 -0.5741
 6756TIP3    H141683   4.650   5.157  14.899 -0.5000 -0.2553 -1.1395
 6756TIP3    H241684   4.735   5.033  14.915 -1.1318 -0.7797 -1.8131
 6757TIP3   OH241685   6.453   5.154   5.592  0.0512 -0.4765  0.6753
 6757TIP3    H141686   6.487   5.235   5.630  1.9763 -0.4953 -0.9386
 6757TIP3    H241687   6.470   5.088   5.659  1.5948 -0.1424  0.6489
 6758TIP3   OH241688   4.462   2.647   3.970 -0.1836  0.0573 -0.3345
 6758TIP3    H141689   4.524   2.636   3.898  0.4552  0.6559  0.1067
 6758TIP3    H241690   4.426   2.560   3.986  1.5941 -0.5775  0.3244
 6759TIP3   OH241691   6.156   1.845   0.843  0.0613  0.3499 -0.6019
 6759TIP3    H141692   6.073   1.835   0.889  1.1267  0.4184  1.3935
 6759TIP3    H241693   6.174   1.939   0.846  0.8789  0.1753  0.1998
 6760TIP3   OH241694   3.880   1.466  11.496  0.3586 -0.7881  0.1447
 6760TIP3    H141695   3.848   1.427  11.577 -0.8981 -0.7862 -0.3429
 6760TIP3    H241696   3.940   1.401  11.460  2.4827  0.0428  2.0580
 6761TIP3   OH241697   3.663   2.665  14.206  0.2847  0.0428 -0.0641
 6761TIP3    H141698   3.750   2.656  14.168  0.2518  0.8322 -0.3318
 6761TIP3    H241699   3.611   2.597  14.163  0.7495 -0.3825  0.0455
 6762TIP3   OH241700   5.369   5.700   3.321  0.2485  0.2318  0.6846
 6762TIP3    H141701   5.421   5.671   3.246  1.7194 -0.2146  1.8582
 6762TIP3    H241702   5.323   5.777   3.290  3.8044  2.3586  0.4641
 6763TIP3   OH241703   5.462   4.890   4.998 -0.2589 -0.4424 -0.2957
 6763TIP3    H141704   5.394   4.888   5.066 -0.8396  1.6786 -0.7420
 6763TIP3    H241705   5.544   4.898   5.047 -0.6614  0.9663  0.1911
 6764TIP3   OH241706   5.490   3.731   2.884  0.0245  0.1803  0.1392
 6764TIP3    H141707   5.462   3.798   2.946 -0.8562 -0.0871  0.0363
 6764TIP3    H241708   5.433   3.744   2.808  0.2023 -0.3554 -0.0859
 6765TIP3   OH241709   5.629   3.142   1.458  0.2287  0.1041 -0.2397
 6765TIP3    H141710   5.693   3.070   1.461 -2.3909 -2.2325  2.8595
 6765TIP3    H241711   5.629   3.177   1.547 -1.6150  1.1858 -0.6516
 6766TIP3   OH241712   3.129   2.052   1.649  0.6752 -0.0966 -0.0750
 6766TIP3    H141713   3.127   2.102   1.730 -1.9210 -0.7943  0.3413
 6766TIP3    H241714   3.070   2.098   1.590  2.3568  0.2660 -1.5066
 6767TIP3   OH241715   0.910   2.417  13.672 -0.0532  0.0731 -0.1125
 6767TIP3    H141716   0.969   2.352  13.709  1.3173 -0.6599 -3.4192
 6767TIP3    H241717   0.840   2.365  13.631 -0.9323  0.8210  0.4112
 6768TIP3   OH241718   1.988   4.580   6.473 -0.8355  0.1306 -0.5705
 6768TIP3    H141719   1.983   4.496   6.518  0.0707  0.7058  0.6177
 6768TIP3    H241720   1.906   4.586   6.424 -0.7893 -1.5580 -0.8714
 6769TIP3   OH241721   0.376   2.787   5.761  0.0141  0.0592 -0.0600
 6769TIP3    H141722   0.468   2.761   5.750 -0.8524 -2.4131 -2.0506
 6769TIP3    H241723   0.352   2.823   5.676  0.2199  4.5207  1.6764
 6770TIP3   OH241724   6.242   2.839   5.475 -0.0871 -0.3047  0.4090
 6770TIP3    H141725   6.208   2.750   5.476  0.4588 -0.5163  0.2853
 6770TIP3    H241726   6.288   2.847   5.391  1.0950 -0.3818  1.0371
 6771TIP3   OH241727   0.521   1.033   2.993  0.4364  0.0887 -0.1311
 6771TIP3    H141728   0.585   1.016   3.062  1.1872 -0.8244 -1.0303
 6771TIP3    H241729   0.559   1.104   2.941  1.3688 -1.3268 -1.4356
 6772TIP3   OH241730   2.274   1.624   3.150 -0.6154  0.1650  0.1117
 6772TIP3    H141731   2.329   1.702   3.161 -0.6405  0.3634 -1.1184
 6772TIP3    H241732   2.316   1.558   3.206  1.1927  0.1697 -1.1761
 6773TIP3   OH241733   4.048   0.876   5.729  0.0568  0.1714  0.0283
 6773TIP3    H141734   4.089   0.934   5.665 -2.9086  0.4692 -1.7336
 6773TIP3    H241735   4.084   0.790   5.710  1.9744  0.8790  0.4196
 6774TIP3   OH241736   3.515   5.602   0.031 -0.1210  0.3566  0.3452
 6774TIP3    H141737   3.482   5.514   0.013 -0.1623  0.5145 -0.3772
 6774TIP3    H241738   3.495   5.618   0.123  0.6145 -0.7120  0.7015
 6775TIP3   OH241739   0.592   6.120  12.466 -0.2610 -0.1630  0.1145
 6775TIP3    H141740   0.561   6.157  12.384  0.2916 -0.2909 -0.1580
 6775TIP3    H241741   0.588   6.025  12.453  0.0681 -0.1822  0.1403
 6776TIP3   OH241742   1.290   6.582  17.006 -0.1418  0.3106 -0.2508
 6776TIP3    H141743   1.243   6.518  17.060 -0.0027  1.8338  1.7680
 6776TIP3    H241744   1.360   6.533  16.965  0.6015 -0.6651  2.0742
 6777TIP3   OH241745   4.854   0.485   2.110 -0.9419 -0.6957  0.5131
 6777TIP3    H141746   4.879   0.510   2.199 -1.7231  0.3772  0.4433
 6777TIP3    H241747   4.771   0.529   2.095 -0.4053 -0.1698 -1.0565
 6778TIP3   OH241748   3.368   0.172   3.505 -0.8085  0.3714  0.0017
 6778TIP3    H141749   3.341   0.263   3.492 -2.0020 -0.1430 -1.3081
 6778TIP3    H241750   3.286   0.122   3.506 -0.1667 -0.7080  0.6123
 6779TIP3   OH241751   0.077   4.881   1.576  0.0380  0.6507  0.0732
 6779TIP3    H141752   0.048   4.941   1.644  3.9689 -1.4749  3.8801
 6779TIP3    H241753   0.042   4.796   1.603  2.5621 -0.4094  0.1501
 6780TIP3   OH241754   2.083   5.266  11.842  0.2311  0.1968 -0.3183
 6780TIP3    H141755   2.153   5.200  11.851 -0.9567 -1.0040  0.3399
 6780TIP3    H241756   2.066   5.271  11.748  0.4671 -0.2859 -0.3874
 6781TIP3   OH241757   1.946   6.293  15.177 -0.4223  0.1863  0.0168
 6781TIP3    H141758   1.919   6.204  15.156 -0.7792  0.3046 -0.0441
 6781TIP3    H241759   1.879   6.348  15.135 -1.4830  0.4158  1.9635
 6782TIP3   OH241760   0.405   1.057   1.603 -0.7459  0.3425 -0.1797
 6782TIP3    H141761   0.437   0.977   1.561  0.2161 -0.2318  1.6147
 6782TIP3    H241762   0.330   1.083   1.549 -1.4448 -2.0799 -0.4462
 6783TIP3   OH241763   1.720   4.702   1.986 -0.1873 -0.1602 -0.2764
 6783TIP3    H141764   1.639   4.666   1.950 -0.4368  0.7651 -0.6771
 6783TIP3    H241765   1.727   4.789   1.945  1.4226 -0.5522 -0.8554
 6784TIP3   OH241766   4.206   2.098  12.581  0.3806 -0.4037  0.1168
 6784TIP3    H141767   4.157   2.173  12.616 -0.9218 -1.3258  0.3352
 6784TIP3    H241768   4.209   2.113  12.487  0.2510  0.0025  0.1752
 6785TIP3   OH241769   5.905   0.869  12.661  0.3764  0.9765  0.5337
 6785TIP3    H141770   5.873   0.954  12.632 -0.8312  0.3694  0.0231
 6785TIP3    H241771   5.908   0.816  12.581  0.2391  0.2729  0.9888
 6786TIP3   OH241772   2.580   0.103   5.576 -0.2141  0.5777 -0.6166
 6786TIP3    H141773   2.498   0.058   5.595  0.9605 -1.5643 -0.4918
 6786TIP3    H241774   2.570   0.189   5.617 -2.4438  0.4232 -0.7576
 6787TIP3   OH241775   5.137   0.597   2.587  0.2795  0.0607  0.0841
 6787TIP3    H141776   5.129   0.574   2.680  1.7813  0.5907  0.3482
 6787TIP3    H241777   5.059   0.649   2.569 -1.2674 -2.0471  0.4230
 6788TIP3   OH241778   5.296   3.973   0.346 -0.5004  0.2554  0.1335
 6788TIP3    H141779   5.309   3.892   0.395 -0.3525  1.1568  1.6183
 6788TIP3    H241780   5.211   4.006   0.376 -0.7908  0.3968 -0.8317
 6789TIP3   OH241781   0.723   2.121   3.544 -0.1049 -0.0578 -0.1730
 6789TIP3    H141782   0.680   2.131   3.459 -0.1790 -1.7162 -0.3387
 6789TIP3    H241783   0.688   2.039   3.579  0.2935  0.3622  1.2427
 6790TIP3   OH241784   5.337   4.704  12.153 -0.6215  0.5850  0.3222
 6790TIP3    H141785   5.360   4.623  12.108  2.1343  1.7963 -0.5758
 6790TIP3    H241786   5.244   4.716  12.136 -0.7278 -1.6118 -0.7837
 6791TIP3   OH241787   1.926   3.864   0.058  0.3161 -0.7331  0.2507
 6791TIP3    H141788   1.985   3.789   0.051  0.4070 -0.6351 -0.0553
 6791TIP3    H241789   1.983   3.938   0.080  0.2258 -0.7526  0.5585
 6792TIP3   OH241790   6.492   2.607  10.951 -0.5139 -0.2388  0.4739
 6792TIP3    H141791   6.444   2.577  10.874  2.2811 -0.5253 -1.2240
 6792TIP3    H241792   6.530   2.691  10.924 -0.6203  0.3214  2.0126
 6793TIP3   OH241793   3.770   0.659   0.986  0.2065  0.4808 -0.0155
 6793TIP3    H141794   3.812   0.726   1.039 -0.5854  0.5445  0.5358
 6793TIP3    H241795   3.814   0.664   0.901 -0.4640  2.3053 -0.2736
 6794TIP3   OH241796   1.415   1.041   2.069 -0.0387  0.7215 -0.5006
 6794TIP3    H141797   1.345   1.001   2.121  0.4891 -0.9517 -1.0510
 6794TIP3    H241798   1.412   0.996   1.985  0.5964  1.8430 -1.1402
 6795TIP3   OH241799   0.464   1.904  13.302  0.1298 -0.2083 -0.1008
 6795TIP3    H141800   0.432   1.915  13.391 -2.6090 -1.6020 -0.8341
 6795TIP3    H241801   0.466   1.809  13.289 -4.3031 -0.0381 -3.0723
 6796TIP3   OH241802   0.944   3.673  13.343  0.2722 -0.6280  0.1981
 6796TIP3    H141803   0.934   3.666  13.438 -0.6427 -0.7926  0.0920
 6796TIP3    H241804   0.891   3.750  13.319  1.3045  0.0166 -0.0516
 6797TIP3   OH241805   1.058   0.202   0.682  0.9334  0.6023 -0.4176
 6797TIP3    H141806   1.042   0.117   0.640 -1.6395 -0.0134  1.6243
 6797TIP3    H241807   1.100   0.179   0.765 -0.7246  1.1997  0.6130
 6798TIP3   OH241808   6.385   1.953  15.862  0.1742 -0.1598  0.2710
 6798TIP3    H141809   6.380   2.042  15.828  2.6052 -0.3211 -0.6132
 6798TIP3    H241810   6.416   1.963  15.951 -1.0601 -0.0560  0.7029
 6799TIP3   OH241811   5.313   1.093   2.566 -0.3768 -0.7494 -0.2955
 6799TIP3    H141812   5.337   1.125   2.479  1.4443 -1.3593 -0.0559
 6799TIP3    H241813   5.373   1.138   2.625 -0.6532 -1.3951  0.4890
 6800TIP3   OH241814   6.495   4.112   5.971 -0.2919 -0.0031  0.0383
 6800TIP3    H141815   6.549   4.189   5.955  0.9446 -0.5336  1.5140
 6800TIP3    H241816   6.409   4.147   5.994 -0.5927  0.8482 -2.2055
 6801TIP3   OH241817   0.579   3.432   6.830 -0.2970 -0.2877 -0.3245
 6801TIP3    H141818   0.566   3.348   6.876 -1.3399 -0.0588 -0.1751
 6801TIP3    H241819   0.668   3.428   6.797 -1.3778 -2.8582 -3.1567
 6802TIP3   OH241820   1.283   3.582  11.716 -0.2810  0.3008 -0.0675
 6802TIP3    H141821   1.340   3.645  11.672 -1.1511  1.3613  0.2873
 6802TIP3    H241822   1.332   3.557  11.794  0.1826  0.3599 -0.3387
 6803TIP3   OH241823   0.451   1.754  13.749 -0.3647  0.1452  1.0091
 6803TIP3    H141824   0.419   1.837  13.714  0.1786  0.7564  1.9282
 6803TIP3    H241825   0.518   1.726  13.687 -0.6898  0.2959  0.5920
 6804TIP3   OH241826   0.398   4.685   4.431  0.0019 -0.3989 -0.0144
 6804TIP3    H141827   0.356   4.634   4.500  0.4081 -0.1421  0.4237
 6804TIP3    H241828   0.442   4.619   4.376  0.4825 -0.5267  0.5200
 6805TIP3   OH241829   1.674   5.733   4.719 -0.0935  0.0490 -0.0590
 6805TIP3    H141830   1.604   5.727   4.653  2.1852 -0.8612 -2.4664
 6805TIP3    H241831   1.695   5.826   4.723 -1.0052  0.2471  0.2063
 6806TIP3   OH241832   2.152   4.592  14.266  0.2774  0.9433 -0.3075
 6806TIP3    H141833   2.184   4.680  14.247  0.7404  0.2998 -2.6967
 6806TIP3    H241834   2.135   4.553  14.180 -1.4677 -0.7467  0.7493
 6807TIP3   OH241835   6.220   1.230   2.985 -0.3584  0.1946  0.2226
 6807TIP3    H141836   6.307   1.265   3.005 -0.8401  1.6300 -0.1967
 6807TIP3    H241837   6.160   1.301   3.006 -1.3903 -0.5737 -0.1111
 6808TIP3   OH241838   2.049   6.721  17.138 -0.1100 -0.5227 -0.1251
 6808TIP3    H141839   2.080   6.636  17.170  2.3491 -0.4668 -2.1686
 6808TIP3    H241840   2.032   6.706  17.045 -0.1250  1.1039 -0.3943
 6809TIP3   OH241841   6.406   4.329   1.820  0.5471 -0.4488 -0.3310
 6809TIP3    H141842   6.456   4.410   1.813 -1.1489  0.6340 -0.0834
 6809TIP3    H241843   6.413   4.288   1.734  1.9182 -0.3623 -0.2719
 6810TIP3   OH241844   4.855   0.092   2.992  0.3797 -0.3436  0.5529
 6810TIP3    H141845   4.869   0.153   3.064 -0.4992 -0.1721  0.5907
 6810TIP3    H241846   4.888   0.008   3.024 -0.5306 -0.3926  1.3748
 6811TIP3   OH241847   0.435   4.353   4.921 -0.0570  0.7648  0.3271
 6811TIP3    H141848   0.477   4.431   4.886  0.8561 -0.1454 -0.6123
 6811TIP3    H241849   0.507   4.301   4.957 -0.4729 -0.3928 -0.4989
 6812TIP3   OH241850   3.228   1.550  11.491 -0.0284  0.6145 -0.4531
 6812TIP3    H141851   3.239   1.585  11.403 -0.4323 -0.1909 -0.8181
 6812TIP3    H241852   3.241   1.456  11.482 -0.1301  0.5213  0.3384
 6813TIP3   OH241853   0.452   5.723   1.703  0.2594  0.2458  0.1651
 6813TIP3    H141854   0.382   5.788   1.704  1.6121  1.7481 -0.4915
 6813TIP3    H241855   0.493   5.730   1.789  0.7250  0.6130 -0.0871
 6814TIP3   OH241856   6.116   3.949  13.539 -0.4391  0.6320 -0.6066
 6814TIP3    H141857   6.129   3.890  13.612  0.5038  1.9687  0.3417
 6814TIP3    H241858   6.137   4.036  13.574 -1.1470  1.4462 -2.1281
 6815TIP3   OH241859   0.923   1.199  15.905 -0.6153 -0.3816 -0.2329
 6815TIP3    H141860   0.916   1.294  15.890  3.1979 -0.3820 -2.7777
 6815TIP3    H241861   0.997   1.189  15.964 -2.1358 -1.7187  1.4859
 6816TIP3   OH241862   4.893   1.057   0.091  0.2808  0.7645 -0.1225
 6816TIP3    H141863   4.798   1.055   0.088  0.3006 -0.2972 -0.1261
 6816TIP3    H241864   4.914   1.101   0.174 -0.2056  0.2766  0.2534
 6817TIP3   OH241865   4.811   1.951   2.367 -0.4249  0.3477  0.1075
 6817TIP3    H141866   4.753   1.895   2.316 -0.7991  0.0861  0.8195
 6817TIP3    H241867   4.763   1.968   2.448  1.0763 -1.0763  1.3286
 6818TIP3   OH241868   6.110   0.090   5.916  0.6138 -0.2696  0.0088
 6818TIP3    H141869   6.098   0.165   5.974  0.0482 -0.9998  0.8478
 6818TIP3    H241870   6.194   0.052   5.944  0.1479 -0.8565  0.6322
 6819TIP3   OH241871   5.952   2.554  15.539 -0.1270 -0.5831 -0.0762
 6819TIP3    H141872   6.029   2.551  15.481 -0.9763 -0.7496 -1.2069
 6819TIP3    H241873   5.935   2.647  15.552 -0.9498 -0.5193 -1.4827
 6820TIP3   OH241874   4.690   2.004  12.966 -0.4682 -0.3332 -1.0296
 6820TIP3    H141875   4.727   1.971  12.884  1.3084  0.1732 -0.4553
 6820TIP3    H241876   4.698   2.099  12.959 -1.1020 -0.2486 -0.6224
 6821TIP3   OH241877   1.416   6.020  11.304  0.1323 -0.1950  0.1792
 6821TIP3    H141878   1.345   5.969  11.266 -0.7989  2.0831 -1.2371
 6821TIP3    H241879   1.484   6.021  11.235  0.9026 -1.0376  0.9122
 6822TIP3   OH241880   6.001   3.661   5.423 -0.1119 -0.4831  0.4399
 6822TIP3    H141881   5.935   3.729   5.407 -0.2020 -0.6575  0.0761
 6822TIP3    H241882   5.950   3.581   5.436  0.0628 -0.8366 -0.9394
 6823TIP3   OH241883   6.569   5.544  11.051  0.3887 -0.1929  0.4735
 6823TIP3    H141884   6.492   5.600  11.066  0.2092 -0.5839  1.0649
 6823TIP3    H241885   6.545   5.461  11.093  0.4748 -0.8536 -0.7663
 6824TIP3   OH241886   2.818   0.759   0.631 -0.2488  0.4773  0.0894
 6824TIP3    H141887   2.725   0.757   0.609 -0.8392 -2.2381  2.4521
 6824TIP3    H241888   2.819   0.772   0.726  1.8376  1.5209 -0.0580
 6825TIP3   OH241889   2.041   1.139   0.383  0.0258 -0.6363  0.0528
 6825TIP3    H141890   1.958   1.118   0.425 -0.6104 -0.3900 -1.0622
 6825TIP3    H241891   2.087   1.055   0.377  0.5877 -0.5006  2.2084
 6826TIP3   OH241892   1.557   1.883  14.321  0.0639 -0.3325  0.3189
 6826TIP3    H141893   1.533   1.790  14.326 -0.7435 -0.1036  0.7858
 6826TIP3    H241894   1.584   1.896  14.230 -1.7987 -0.5431 -0.2816
 6827TIP3   OH241895   6.075   1.820  16.139  1.1263 -0.3936  0.0436
 6827TIP3    H141896   6.033   1.807  16.225  0.3192  0.6885 -0.1753
 6827TIP3    H241897   6.145   1.755  16.137  0.3264 -1.3147  0.9941
 6828TIP3   OH241898   1.898   4.748   5.295 -0.2632  0.0976  0.1556
 6828TIP3    H141899   1.865   4.689   5.362 -1.1378  1.0730  0.5927
 6828TIP3    H241900   1.838   4.736   5.221 -2.1746  2.4653  1.2357
 6829TIP3   OH241901   5.178   5.121   6.037  0.7237 -0.6101 -0.9561
 6829TIP3    H141902   5.223   5.180   6.098  0.8143 -3.1050  1.5285
 6829TIP3    H241903   5.088   5.151   6.036  1.2189  0.8805 -1.4060
 6830TIP3   OH241904   2.038   6.533  12.777 -0.4835 -0.3148  0.4430
 6830TIP3    H141905   1.953   6.494  12.801 -0.2937  0.1110  1.8664
 6830TIP3    H241906   2.097   6.458  12.769 -0.4191 -0.4360  1.9080
 6831TIP3   OH241907   0.518   3.583  14.105 -0.6411  0.0449  0.0869
 6831TIP3    H141908   0.473   3.498  14.105  0.9311 -0.8160  1.0963
 6831TIP3    H241909   0.465   3.639  14.049 -1.6127 -1.6629 -0.7138
 6832TIP3   OH241910   5.431   5.742  15.483  0.6152 -0.5198  0.7154
 6832TIP3    H141911   5.372   5.696  15.542 -0.3468 -1.6463 -1.0728
 6832TIP3    H241912   5.377   5.810  15.443  0.5244 -1.4806 -0.8491
 6833TIP3   OH241913   2.946   2.434  14.194  0.5310  0.0443  0.2049
 6833TIP3    H141914   2.980   2.521  14.175 -1.7144  0.7079 -1.0230
 6833TIP3    H241915   2.999   2.375  14.141  0.1241  0.9883 -1.2789
 6834TIP3   OH241916   1.513   0.204  13.657  0.4245 -0.3620 -0.2162
 6834TIP3    H141917   1.529   0.230  13.748  0.6319  0.1028 -0.3899
 6834TIP3    H241918   1.490   0.285  13.612 -2.7955 -1.0214  0.0904
 6835TIP3   OH241919   1.518   0.432  13.528 -0.4713  0.0432  0.1279
 6835TIP3    H141920   1.542   0.519  13.497  0.4868 -0.5783 -0.9305
 6835TIP3    H241921   1.427   0.440  13.556 -0.0197  1.6634  1.1685
 6836TIP3   OH241922   4.652   1.277  16.499  0.0538 -0.4246 -0.1780
 6836TIP3    H141923   4.613   1.239  16.421 -0.5850 -0.7481  0.2918
 6836TIP3    H241924   4.745   1.259  16.491  0.1547  0.5205 -1.4096
 6837TIP3   OH241925   2.554   5.649   0.704 -0.0342  0.3921 -0.3659
 6837TIP3    H141926   2.547   5.554   0.701  1.7447  0.2349 -0.1503
 6837TIP3    H241927   2.482   5.680   0.649  0.8943 -1.1671 -2.5586
 6838TIP3   OH241928   1.085   3.963   0.144 -0.4022 -0.1294  0.1321
 6838TIP3    H141929   1.127   3.895   0.092 -0.8387 -0.9567  0.8634
 6838TIP3    H241930   1.137   4.042   0.126 -0.4836 -0.4196 -1.4735
 6839TIP3   OH241931   2.476   5.796   4.735 -0.3898 -0.1535 -0.5032
 6839TIP3    H141932   2.388   5.800   4.772  0.1037  0.3009  0.6057
 6839TIP3    H241933   2.462   5.764   4.645 -2.0289  3.4479 -1.5898
 6840TIP3   OH241934   2.578   0.530  11.456 -0.0740  0.1193 -0.3703
 6840TIP3    H141935   2.613   0.619  11.459  1.7511 -0.5692 -0.8374
 6840TIP3    H241936   2.623   0.489  11.383 -0.3359 -1.4384  0.3291
 6841TIP3   OH241937   2.834   0.079   4.192  0.3077 -0.4472  0.0506
 6841TIP3    H141938   2.902   0.016   4.170 -0.4592 -1.5847  0.8268
 6841TIP3    H241939   2.881   0.156   4.223  1.2761 -0.4071 -1.4666
 6842TIP3   OH241940   2.256   4.012  15.662  0.3160  0.4384 -0.2654
 6842TIP3    H141941   2.217   3.944  15.716  0.9027  1.2318  1.1915
 6842TIP3    H241942   2.188   4.036  15.599  0.4219 -2.1314 -1.4288
 6843TIP3   OH241943   6.433   0.364   4.962 -0.5395  0.0925 -0.1044
 6843TIP3    H141944   6.469   0.382   4.875  0.4290 -1.1238  0.0244
 6843TIP3    H241945   6.344   0.397   4.958  0.3857  2.6687 -0.6162
 6844TIP3   OH241946   1.108   4.657   1.113 -0.1904  0.1136  0.0634
 6844TIP3    H141947   1.049   4.582   1.111 -1.7055  1.2891 -0.3845
 6844TIP3    H241948   1.095   4.696   1.199 -1.5399  1.5004 -0.7448
 6845TIP3   OH241949   6.157   2.095  10.540 -0.5414  0.0030 -0.2080
 6845TIP3    H141950   6.102   2.045  10.480  0.3566  0.1017 -1.1274
 6845TIP3    H241951   6.127   2.186  10.531 -0.7412 -0.0543 -0.1262
 6846TIP3   OH241952   4.300   6.316   4.699 -0.0917 -0.5486 -0.1066
 6846TIP3    H141953   4.395   6.311   4.690  0.2925  0.4978  3.0528
 6846TIP3    H241954   4.274   6.229   4.729 -0.1038 -0.7021 -0.5530
 6847TIP3   OH241955   1.281   0.989   0.106  0.5187  0.2974 -0.0433
 6847TIP3    H141956   1.350   0.929   0.135 -0.5932 -0.2606  1.5080
 6847TIP3    H241957   1.307   1.074   0.140  2.1232  0.7664 -2.2818
 6848TIP3   OH241958   1.405   6.635   1.771  0.4862 -0.0592  0.1315
 6848TIP3    H141959   1.491   6.599   1.794  0.8167 -0.1046 -1.1247
 6848TIP3    H241960   1.343   6.564   1.787  0.8744 -0.5103 -0.3673
 6849TIP3   OH241961   6.425   4.655  14.490 -0.1832  0.6419 -0.0946
 6849TIP3    H141962   6.333   4.675  14.509  0.1197  1.6455  0.3475
 6849TIP3    H241963   6.468   4.740  14.491  0.9344  0.0716  0.7242
 6850TIP3   OH241964   0.451   6.130   3.353  0.1116  0.2851  0.3940
 6850TIP3    H141965   0.360   6.140   3.324 -0.7754  0.7174  3.1170
 6850TIP3    H241966   0.456   6.040   3.385  0.9130 -0.0323 -0.6222
 6851TIP3   OH241967   3.302   1.775   0.548 -0.0781  0.1718 -0.2493
 6851TIP3    H141968   3.347   1.720   0.612 -0.4204  0.3773  0.1770
 6851TIP3    H241969   3.249   1.713   0.497 -4.3592  0.5440  3.4538
 6852TIP3   OH241970   4.411   0.986   2.507  0.4696 -0.2320 -0.2288
 6852TIP3    H141971   4.502   0.967   2.483  0.6259  1.3834 -1.0274
 6852TIP3    H241972   4.397   1.075   2.475 -2.3576 -1.5148 -2.7633
 6853TIP3   OH241973   5.630   1.248  16.433  0.1304 -0.0512  0.0973
 6853TIP3    H141974   5.634   1.254  16.337 -1.8674 -2.6174 -0.2058
 6853TIP3    H241975   5.652   1.336  16.463 -0.7189  1.2198 -2.7923
 6854TIP3   OH241976   4.043   0.594   2.258 -0.1084  0.2165  0.2421
 6854TIP3    H141977   4.094   0.520   2.293 -1.5501 -0.7252  0.3853
 6854TIP3    H241978   3.962   0.593   2.309 -0.2512  1.7466  0.0621
 6855TIP3   OH241979   6.013   1.408   0.524  0.1531 -0.3175 -0.0057
 6855TIP3    H141980   6.077   1.337   0.518 -1.9988 -2.4667  1.2044
 6855TIP3    H241981   6.052   1.471   0.584  1.3099 -1.3525  0.3505
 6856TIP3   OH241982   0.930   5.603   0.256  0.1555 -0.0920 -0.0059
 6856TIP3    H141983   1.005   5.545   0.266 -1.2533 -2.0798 -0.5688
 6856TIP3    H241984   0.899   5.619   0.345  0.4443 -0.3410  0.1373
 6857TIP3   OH241985   5.285   4.552   5.126 -0.3327 -0.1918 -0.2220
 6857TIP3    H141986   5.212   4.604   5.093 -0.3905  0.0402  0.2543
 6857TIP3    H241987   5.339   4.534   5.049  0.6520  2.1480 -0.1003
 6858TIP3   OH241988   5.849   2.461   5.928  0.2933 -0.1342  0.4900
 6858TIP3    H141989   5.773   2.500   5.972 -0.3553 -0.0291 -0.7097
 6858TIP3    H241990   5.814   2.386   5.881  1.1273 -0.7282  0.8069
 6859TIP3   OH241991   0.794   0.720  14.744 -0.0828 -0.6563 -0.3424
 6859TIP3    H141992   0.803   0.626  14.762 -1.7988 -0.8553 -0.4023
 6859TIP3    H241993   0.865   0.739  14.682 -1.4093 -2.5535 -2.5224
 6860TIP3   OH241994   3.437   4.543  14.110 -0.1559  0.1572  0.0547
 6860TIP3    H141995   3.432   4.638  14.111 -0.2455  0.1478  0.7923
 6860TIP3    H241996   3.531   4.524  14.113 -0.0759  0.2317 -1.6880
 6861TIP3   OH241997   4.608   2.613  11.677 -0.4281 -0.2444  0.1144
 6861TIP3    H141998   4.559   2.631  11.596 -0.0018 -0.6488 -0.2363
 6861TIP3    H241999   4.640   2.523  11.666 -0.1035 -0.1890  0.5987
 6862TIP3   OH242000   3.136   1.396  14.617 -0.0666 -0.1565  0.4378
 6862TIP3    H142001   3.153   1.306  14.590  0.3420 -0.4433  1.6429
 6862TIP3    H242002   3.045   1.395  14.646 -0.0999 -0.1490  0.3339
 6863TIP3   OH242003   1.616   2.153   5.690  0.5423  0.2127  0.5747
 6863TIP3    H142004   1.702   2.130   5.726  1.5609 -0.3784 -2.1005
 6863TIP3    H242005   1.580   2.069   5.659  0.8832  1.0185 -2.1616
 6864TIP3   OH242006   6.367   5.210  15.542 -0.9996 -0.4474  0.8432
 6864TIP3    H142007   6.374   5.180  15.451  0.8492  0.8482  0.5200
 6864TIP3    H242008   6.376   5.130  15.594  0.7305 -0.8846 -0.0792
 6865TIP3   OH242009   4.741   3.260   3.612  0.2506  0.0711 -0.7983
 6865TIP3    H142010   4.766   3.349   3.637 -0.6189 -0.0368  0.4867
 6865TIP3    H242011   4.647   3.255   3.632  0.4657 -1.3907 -0.1011
 6866TIP3   OH242012   2.187   1.982   2.990  0.3352  0.0438  0.3230
 6866TIP3    H142013   2.244   1.960   2.916 -0.8196  0.4921 -0.7035
 6866TIP3    H242014   2.127   1.909   2.997 -0.1820  0.4575  0.2006
 6867TIP3   OH242015   0.095   1.451   3.799 -0.0774  0.1188 -0.2598
 6867TIP3    H142016   0.061   1.538   3.779  0.8401  0.5517  0.0157
 6867TIP3    H242017   0.031   1.391   3.762 -1.5468  0.9125  0.9301
 6868TIP3   OH242018   4.007   5.408  16.512 -0.1419 -0.4277  0.2267
 6868TIP3    H142019   4.030   5.426  16.603 -0.4011 -2.4729  0.7315
 6868TIP3    H242020   3.921   5.447  16.500  0.8242  1.7758  0.1882
 6869TIP3   OH242021   3.479   1.209  12.165  0.0226 -0.0323 -0.2855
 6869TIP3    H142022   3.476   1.127  12.215 -1.5128  0.1584 -0.0531
 6869TIP3    H242023   3.395   1.251  12.183  0.7562  1.5401 -0.5052
 6870TIP3   OH242024   0.007   5.850   3.532 -0.3877 -0.5705 -0.8699
 6870TIP3    H142025  -0.086   5.860   3.553 -0.0764  0.1598  0.2187
 6870TIP3    H242026   0.041   5.794   3.602  0.3704  0.7052 -0.1956
 6871TIP3   OH242027   2.119   3.977  16.882  0.1368  0.0115 -0.5190
 6871TIP3    H142028   2.113   3.888  16.917 -1.6417  0.0394 -0.6645
 6871TIP3    H242029   2.035   4.018  16.907  0.8839  1.6093 -0.5428
 6872TIP3   OH242030   5.794   0.915  15.653  0.5278 -0.1961 -0.0004
 6872TIP3    H142031   5.778   0.950  15.741  2.7949  0.2632  0.2531
 6872TIP3    H242032   5.782   0.990  15.595 -1.5843 -0.6344 -0.1894
 6873TIP3   OH242033   6.701   2.561   0.133  0.1924 -0.0534  0.1190
 6873TIP3    H142034   6.656   2.617   0.071  0.9029 -0.5673 -0.8872
 6873TIP3    H242035   6.658   2.577   0.217 -1.4314 -0.0934 -0.6998
 6874TIP3   OH242036   0.152   5.549  16.113  0.0469  0.6465  0.9108
 6874TIP3    H142037   0.146   5.460  16.077  0.9052  0.7103  0.5913
 6874TIP3    H242038   0.148   5.605  16.035  0.8521  0.8308  1.0026
 6875TIP3   OH242039   5.632   2.186   2.784  0.3383  0.1988  0.1891
 6875TIP3    H142040   5.552   2.133   2.776  0.6048 -0.0873 -0.6067
 6875TIP3    H242041   5.695   2.127   2.824  0.6757 -0.1335 -0.8250
 6876TIP3   OH242042   5.780   3.711  16.382  0.3296  0.0275  0.2495
 6876TIP3    H142043   5.738   3.685  16.300  0.8634  0.5319 -0.1852
 6876TIP3    H242044   5.800   3.628  16.426  2.3383 -0.3418 -1.3028
 6877TIP3   OH242045   3.754   4.967   1.626 -0.1076 -0.2459 -0.1589
 6877TIP3    H142046   3.837   5.004   1.657 -0.9018  0.9040  0.6515
 6877TIP3    H242047   3.773   4.936   1.538  0.7874  1.4095 -0.5750
 6878TIP3   OH242048   0.073   1.959   1.292 -0.3650  0.0609  0.4901
 6878TIP3    H142049   0.005   2.019   1.261 -0.7595 -1.6051 -1.9948
 6878TIP3    H242050   0.152   2.013   1.297 -0.7109  0.8312 -1.7140
 6879TIP3   OH242051   5.566   6.405  15.121 -0.3996  0.2358  0.2519
 6879TIP3    H142052   5.628   6.471  15.089 -0.5314 -0.7270 -2.0695
 6879TIP3    H242053   5.551   6.348  15.046 -1.6308 -1.4337  1.7335
 6880TIP3   OH242054   4.595   5.619  14.271  0.1403 -0.1098 -0.5610
 6880TIP3    H142055   4.614   5.711  14.291 -0.0327  0.0912 -1.2973
 6880TIP3    H242056   4.669   5.571  14.307  0.1258  0.2982  0.0219
 6881TIP3   OH242057   4.246   0.212  11.011 -0.0554 -0.1725 -0.5252
 6881TIP3    H142058   4.211   0.172  11.091  0.6550 -1.4848 -0.8495
 6881TIP3    H242059   4.172   0.259  10.973 -1.0924 -1.7088 -0.4513
 6882TIP3   OH242060   1.364   2.160  13.100 -0.3008 -0.4131 -0.3385
 6882TIP3    H142061   1.430   2.229  13.103  1.0737 -1.7370 -0.2353
 6882TIP3    H242062   1.293   2.193  13.155  0.7444  0.5086  0.4749
 6883TIP3   OH242063   2.921   2.563   1.145 -0.0395 -0.6607 -0.0369
 6883TIP3    H142064   3.008   2.524   1.153  0.5293  0.7991  1.2744
 6883TIP3    H242065   2.932   2.631   1.078 -0.1291 -0.4124  0.1969
 6884TIP3   OH242066   0.565   0.478  13.031  0.0967  0.0827  0.0627
 6884TIP3    H142067   0.550   0.565  13.067  0.4671 -0.3616  1.3062
 6884TIP3    H242068   0.657   0.479  13.004  0.6838 -0.5571  1.9309
 6885TIP3   OH242069   2.169   0.191   2.325  0.2578  0.0660 -0.3043
 6885TIP3    H142070   2.236   0.255   2.350 -0.5678  0.5385  0.7419
 6885TIP3    H242071   2.134   0.224   2.242 -0.8117  1.5114  0.6900
 6886TIP3   OH242072   4.278   3.922   2.601 -0.2129 -0.4161 -0.3884
 6886TIP3    H142073   4.200   3.941   2.549 -1.2229  0.2939  1.3398
 6886TIP3    H242074   4.329   4.003   2.598 -1.1318  0.2273  1.1875
 6887TIP3   OH242075   0.561   2.783  14.370  0.1829 -0.5583  0.0076
 6887TIP3    H142076   0.628   2.728  14.330 -0.6387 -0.4764 -1.5362
 6887TIP3    H242077   0.483   2.728  14.373 -0.0759 -0.1755  0.4220
 6888TIP3   OH242078   0.703   4.841  16.987  0.1848  0.4885  0.2114
 6888TIP3    H142079   0.654   4.759  16.979  0.3033  0.5502 -1.3016
 6888TIP3    H242080   0.793   4.814  17.004  0.2294  0.2958 -0.3194
 6889TIP3   OH242081   3.752   5.131  13.743 -0.3900 -0.2424  0.0161
 6889TIP3    H142082   3.724   5.089  13.662  2.2147 -1.0820 -0.5175
 6889TIP3    H242083   3.828   5.184  13.717  1.2389 -1.4807  2.0728
 6890TIP3   OH242084   1.890   0.755  13.470 -0.1436  0.2286  0.0261
 6890TIP3    H142085   1.972   0.706  13.474 -0.3105 -0.0309  0.2138
 6890TIP3    H242086   1.882   0.781  13.378 -0.8486 -1.4212 -0.3862
 6891TIP3   OH242087   1.449   0.109   3.557 -0.2656  0.0613  0.2196
 6891TIP3    H142088   1.520   0.167   3.587 -0.1963 -0.6432  1.4322
 6891TIP3    H242089   1.483   0.072   3.475  0.9831 -0.6486  1.0383
 6892TIP3   OH242090   4.152   3.005  12.436 -0.3319 -0.2230 -0.5227
 6892TIP3    H142091   4.246   3.021  12.442 -0.6122  0.3424  3.1602
 6892TIP3    H242092   4.130   2.955  12.515 -3.4533  1.3556 -0.3156
 6893TIP3   OH242093   4.658   1.578  17.137  0.2713  0.2414  0.0191
 6893TIP3    H142094   4.739   1.625  17.156 -0.8239  1.8656  0.7920
 6893TIP3    H242095   4.610   1.635  17.077  0.5006 -1.5742 -1.9844
 6894TIP3   OH242096   4.205   3.051   5.001  0.5841 -0.2495  0.8301
 6894TIP3    H142097   4.220   3.058   5.095 -1.1280 -0.0544  1.0986
 6894TIP3    H242098   4.115   3.079   4.988  1.4674  1.9285 -1.1617
 6895TIP3   OH242099   3.108   3.155   0.325 -0.0065  0.0112  0.1987
 6895TIP3    H142100   3.029   3.178   0.374 -0.5488  1.6639 -1.3942
 6895TIP3    H242101   3.179   3.195   0.375 -0.5593  1.7180 -0.3271
 6896TIP3   OH242102   6.784   2.692  13.610  0.2907  0.3486  0.1059
 6896TIP3    H142103   6.850   2.751  13.572 -0.2836 -0.7655 -2.6878
 6896TIP3    H242104   6.745   2.648  13.535 -0.6897 -2.1467  2.0261
 6897TIP3   OH242105   3.105   4.918  14.341 -0.1822  0.2990 -0.0686
 6897TIP3    H142106   3.090   4.935  14.434 -0.0968 -0.4343  0.0800
 6897TIP3    H242107   3.161   4.840  14.340  1.1766  1.2592 -0.6794
 6898TIP3   OH242108   3.494   2.831  13.393  0.2205  0.0615 -0.1964
 6898TIP3    H142109   3.456   2.885  13.324 -1.9766 -1.1109  0.0637
 6898TIP3    H242110   3.545   2.765  13.345 -0.6862 -0.2962 -0.6651
 6899TIP3   OH242111   5.298   6.357   1.639 -0.3577  0.1255 -0.3868
 6899TIP3    H142112   5.264   6.427   1.695 -1.9584 -0.0646 -1.0803
 6899TIP3    H242113   5.357   6.401   1.578 -1.4642  0.9054 -0.9091
 6900TIP3   OH242114   4.991   5.770  12.470  0.4722  0.0599  0.6070
 6900TIP3    H142115   5.016   5.763  12.562 -0.1680  0.4596  0.8215
 6900TIP3    H242116   4.901   5.804  12.473 -0.6243 -2.6528 -0.0979
 6901TIP3   OH242117   2.350   2.295   1.860  0.6188 -0.1097 -0.1072
 6901TIP3    H142118   2.436   2.335   1.875  1.5336 -1.2646 -2.1487
 6901TIP3    H242119   2.294   2.334   1.928  1.9721  3.0035 -0.6979
 6902TIP3   OH242120   1.192   4.411   0.525 -0.2424  0.6528  0.0292
 6902TIP3    H142121   1.166   4.410   0.433  0.9159  1.5410 -0.3070
 6902TIP3    H242122   1.196   4.503   0.549 -1.4600  0.4091  1.2473
 6903TIP3   OH242123   1.961   0.439   2.999  0.1132 -0.8782 -0.2315
 6903TIP3    H142124   2.006   0.426   3.083  1.2714 -0.8713 -0.8315
 6903TIP3    H242125   1.876   0.398   3.011  1.2041 -3.0862  0.1218
 6904TIP3   OH242126   2.410   2.686  13.685  0.2059  0.4543 -0.0447
 6904TIP3    H142127   2.463   2.743  13.741 -0.0906  1.7308 -1.0336
 6904TIP3    H242128   2.465   2.609  13.671  1.0242  0.9234  0.5218
 6905TIP3   OH242129   3.634   6.187   3.958  0.4388  0.9799  0.2044
 6905TIP3    H142130   3.688   6.143   4.024 -1.6923  1.1278  2.1490
 6905TIP3    H242131   3.563   6.228   4.009 -0.6575  2.0549 -2.0906
 6906TIP3   OH242132   2.852   5.025  13.920 -0.1548  0.4200 -0.2009
 6906TIP3    H142133   2.936   5.067  13.940  0.3564 -1.1557  1.0817
 6906TIP3    H242134   2.807   5.087  13.863  2.3065  0.8371 -1.7779
 6907TIP3   OH242135   5.688   3.271   2.788 -0.1879 -0.3503 -0.2605
 6907TIP3    H142136   5.676   3.348   2.843  0.1794  0.1712 -0.8938
 6907TIP3    H242137   5.622   3.209   2.819 -0.9685  0.4841 -0.2016
 6908TIP3   OH242138   6.087   1.157   0.187  0.3972 -0.2965 -0.1910
 6908TIP3    H142139   6.147   1.227   0.212  0.3813 -0.3241 -0.0729
 6908TIP3    H242140   6.128   1.077   0.221  0.0495 -0.2584  0.3223
 6909TIP3   OH242141   2.710   2.129   0.522  0.5248  0.0203 -0.3978
 6909TIP3    H142142   2.693   2.082   0.440  1.8079  0.7532 -1.0941
 6909TIP3    H242143   2.627   2.123   0.571  0.0242 -1.1506 -1.3745
 6910TIP3   OH242144   4.823   1.016  12.278 -0.2835  0.0145 -0.0927
 6910TIP3    H142145   4.904   0.966  12.279 -0.6002 -0.4816  0.8632
 6910TIP3    H242146   4.775   0.987  12.356 -1.1838  0.6213 -0.4106
 6911TIP3   OH242147   4.100   4.192   5.907 -0.1608 -0.1622  0.2854
 6911TIP3    H142148   4.006   4.193   5.891 -0.1806 -0.1549  0.4031
 6911TIP3    H242149   4.116   4.110   5.953 -0.1178 -0.1363  0.3177
 6912TIP3   OH242150   0.548   0.727  11.550 -0.4109 -0.3504 -0.1499
 6912TIP3    H142151   0.566   0.821  11.544  0.8088 -0.7114 -3.0427
 6912TIP3    H242152   0.478   0.721  11.615  0.3166  2.4280  0.9905
 6913TIP3   OH242153   0.135   2.413   0.228 -0.1639 -0.3885  0.7896
 6913TIP3    H142154   0.062   2.416   0.165 -1.6141  0.8339  2.4814
 6913TIP3    H242155   0.196   2.480   0.197  0.9982 -2.3670 -1.4452
 6914TIP3   OH242156   4.262   0.214  12.138 -0.1690 -0.2521 -0.1718
 6914TIP3    H142157   4.211   0.176  12.210 -0.4548 -0.5973 -0.5596
 6914TIP3    H242158   4.302   0.140  12.094 -0.5284 -0.0907 -0.7765
 6915TIP3   OH242159   0.993   5.617  14.021  0.1427 -0.2549  0.2283
 6915TIP3    H142160   1.000   5.551  13.951  0.7392 -0.2328  0.2581
 6915TIP3    H242161   1.082   5.621  14.057 -0.0977 -0.0475  0.7863
 6916TIP3   OH242162   5.267   0.588  13.078  0.2650  0.3042 -0.3875
 6916TIP3    H142163   5.288   0.534  13.002  1.8304 -1.1898  1.0786
 6916TIP3    H242164   5.195   0.541  13.120  0.3441  0.3852 -0.1662
 6917TIP3   OH242165   6.622   5.972   1.752 -0.0101 -0.0400 -0.0440
 6917TIP3    H142166   6.665   5.968   1.838 -1.3930 -1.5830  0.6171
 6917TIP3    H242167   6.563   6.046   1.759 -0.7598 -0.6902  0.6697
 6918TIP3   OH242168   5.489   5.257  16.459  0.2504 -0.3372 -0.2871
 6918TIP3    H142169   5.546   5.195  16.414  3.0693  1.4795  0.6717
 6918TIP3    H242170   5.451   5.310  16.388  0.5226 -0.9046 -0.8612
 6919TIP3   OH242171   0.731   3.741  16.321 -0.6529  0.1555  0.2190
 6919TIP3    H142172   0.695   3.656  16.294  1.2821 -0.9885  1.0962
 6919TIP3    H242173   0.743   3.733  16.415  2.4210  0.2374 -0.1190
 6920TIP3   OH242174   0.807   2.413  14.705 -0.0527 -0.3565  0.5078
 6920TIP3    H142175   0.881   2.473  14.716 -1.1898  0.6787  2.5809
 6920TIP3    H242176   0.844   2.340  14.654  1.3524  2.0344 -2.0456
 6921TIP3   OH242177   1.712   3.120  15.650 -0.5941  0.4895 -0.1290
 6921TIP3    H142178   1.685   3.030  15.667  0.6986 -0.1785 -1.5446
 6921TIP3    H242179   1.716   3.160  15.737 -3.3765 -0.1483  0.3479
 6922TIP3   OH242180   3.799   0.457  12.601 -0.1065 -0.1368  0.0169
 6922TIP3    H142181   3.844   0.422  12.678  0.9957  1.4330  0.1158
 6922TIP3    H242182   3.713   0.415  12.602 -0.3272  0.3036  2.4392
 6923TIP3   OH242183   5.241   1.625  13.034  0.9958  0.4233  0.4869
 6923TIP3    H142184   5.223   1.547  13.086  1.2502 -1.1178 -1.6645
 6923TIP3    H242185   5.243   1.696  13.098  0.2373 -1.2355  2.4286
 6924TIP3   OH242186   5.976   5.105   4.262  0.0595 -0.6090 -0.1129
 6924TIP3    H142187   5.885   5.137   4.261  0.3219  0.2388  1.7815
 6924TIP3    H242188   5.968   5.012   4.280 -0.3894 -0.3050  1.3226
 6925TIP3   OH242189   1.271   3.655  16.629  0.4310 -0.1569  0.4318
 6925TIP3    H142190   1.335   3.708  16.582  0.3591 -0.5224 -0.0859
 6925TIP3    H242191   1.200   3.715  16.650  1.3606  0.4806  1.8453
 6926TIP3   OH242192   2.483   4.060  11.811 -0.1576 -0.3722 -0.6952
 6926TIP3    H142193   2.501   4.150  11.783 -0.9699 -0.2584 -0.8886
 6926TIP3    H242194   2.417   4.070  11.880  2.4307 -0.6077  1.8543
 6927TIP3   OH242195   1.061   5.934   4.095  0.0197  0.0219  0.3021
 6927TIP3    H142196   1.109   5.979   4.164 -0.3289  0.9025 -0.0256
 6927TIP3    H242197   0.969   5.950   4.115 -0.1520 -1.6446  0.9186
 6928TIP3   OH242198   3.147   5.444  13.647 -0.6669 -0.0481 -0.4354
 6928TIP3    H142199   3.146   5.438  13.551 -1.8046  0.5960 -0.4670
 6928TIP3    H242200   3.068   5.493  13.669 -0.0715  0.3680  0.8029
 6929TIP3   OH242201   2.833   0.534   1.996 -0.0165 -0.3679 -0.0119
 6929TIP3    H142202   2.843   0.628   2.010  0.4629 -0.5236  0.7203
 6929TIP3    H242203   2.884   0.494   2.066 -1.8693 -1.1912  0.8992
 6930TIP3   OH242204   3.064   6.415   1.483  0.4107  1.3764 -0.6902
 6930TIP3    H142205   3.077   6.324   1.512  2.4277  2.3652  1.7460
 6930TIP3    H242206   2.969   6.423   1.472  0.1959 -0.9965 -0.8540
 6931TIP3   OH242207   6.690   3.016   2.744  0.1105 -0.4986 -0.6902
 6931TIP3    H142208   6.637   2.989   2.669  0.5443  0.7547 -1.4506
 6931TIP3    H242209   6.778   3.029   2.708  0.6082 -1.0968  0.2769
 6932TIP3   OH242210   2.864   6.785   1.415  0.0537  0.5178 -0.2217
 6932TIP3    H142211   2.799   6.786   1.345 -1.0343  2.8412  0.7543
 6932TIP3    H242212   2.833   6.851   1.478  1.9053 -0.2813  1.6030
 6933TIP3   OH242213   6.188   3.999   1.651  0.0506  0.3650 -0.6173
 6933TIP3    H142214   6.162   3.930   1.711 -1.1033 -0.2589 -1.8166
 6933TIP3    H242215   6.276   3.975   1.623  0.0635 -0.0611 -0.2077
 6934TIP3   OH242216   5.914   0.001   3.384 -0.5384 -0.1853  0.2573
 6934TIP3    H142217   5.997   0.048   3.382  0.0096 -1.2029 -3.3205
 6934TIP3    H242218   5.850   0.066   3.354 -0.4325 -0.5318 -0.7098
 6935TIP3   OH242219   1.690   4.300   3.449  0.0601  0.1596  0.2182
 6935TIP3    H142220   1.718   4.369   3.389  1.9312 -0.7913 -0.0560
 6935TIP3    H242221   1.772   4.270   3.490 -0.8370 -1.2619  1.0030
 6936TIP3   OH242222   2.110   3.052  12.196 -0.4221  0.3476 -0.0049
 6936TIP3    H142223   2.017   3.065  12.211 -0.0239  0.8453  2.2795
 6936TIP3    H242224   2.145   3.140  12.180 -0.2073  0.2580 -0.0357
 6937TIP3   OH242225   2.647   1.941  11.922  0.0789 -0.0789 -0.8396
 6937TIP3    H142226   2.737   1.955  11.951  0.0773  0.1832 -0.9630
 6937TIP3    H242227   2.628   1.850  11.947  0.1285  0.0950 -0.1547
 6938TIP3   OH242228   1.458   4.149   3.521  0.6427 -0.0573  0.3048
 6938TIP3    H142229   1.419   4.180   3.603 -0.5632  1.9145 -0.9706
 6938TIP3    H242230   1.544   4.192   3.518  0.8650 -0.4699  0.7387
 6939TIP3   OH242231   3.071   1.608   1.748 -0.2602  0.0287 -0.2993
 6939TIP3    H142232   3.035   1.573   1.829  2.0441 -3.4199 -0.6026
 6939TIP3    H242233   3.166   1.609   1.763  0.0677  1.1467 -2.2783
 6940TIP3   OH242234   2.117   4.872  13.599 -0.3946 -0.0343 -0.0622
 6940TIP3    H142235   2.139   4.873  13.506  1.3523  0.1462  0.3435
 6940TIP3    H242236   2.174   4.807  13.638 -1.4903 -0.4989  0.8138
 6941TIP3   OH242237   1.179   2.679  15.141  0.3085  0.1538  0.5495
 6941TIP3    H142238   1.115   2.608  15.142  0.3360  0.1099 -0.5242
 6941TIP3    H242239   1.126   2.759  15.144  0.2341  0.1044  0.5564
 6942TIP3   OH242240   6.097   4.422   3.656  0.3300 -0.4712  0.6002
 6942TIP3    H142241   6.165   4.355   3.654 -1.0479 -1.9326  1.3034
 6942TIP3    H242242   6.040   4.396   3.729 -0.8495  0.8445  0.1762
 6943TIP3   OH242243   3.646   5.789  17.113  0.2419  0.0834 -0.5862
 6943TIP3    H142244   3.631   5.717  17.175 -2.0127  1.8038  0.9243
 6943TIP3    H242245   3.575   5.850  17.129  3.0796  3.5389 -0.6678
 6944TIP3   OH242246   5.850   3.227  12.184  0.7058 -0.0411  0.0039
 6944TIP3    H142247   5.899   3.304  12.155 -1.2256  1.1958 -0.0820
 6944TIP3    H242248   5.826   3.247  12.274 -0.1693 -0.3691 -0.1565
 6945TIP3   OH242249   6.655   3.205  13.242 -0.2576  0.2652 -0.6510
 6945TIP3    H142250   6.736   3.187  13.196  0.3077 -0.2897  0.5527
 6945TIP3    H242251   6.606   3.123  13.239 -0.3243  0.2979 -0.4736
 6946TIP3   OH242252   2.692   5.320  11.786 -0.1000 -0.4113 -0.2002
 6946TIP3    H142253   2.603   5.335  11.818  0.3185  1.0955  0.2962
 6946TIP3    H242254   2.699   5.374  11.708  0.4554 -0.3208 -0.0923
 6947TIP3   OH242255   5.698   4.167   5.919  0.3188 -0.5060  0.1406
 6947TIP3    H142256   5.635   4.163   5.991  1.3105 -3.8812  0.8890
 6947TIP3    H242257   5.774   4.212   5.957  0.1046 -0.5532  0.6278
 6948TIP3   OH242258   4.907   4.007  13.924  0.3317  0.7271  0.9176
 6948TIP3    H142259   4.880   3.949  13.853  0.6244  0.4287  1.0526
 6948TIP3    H242260   4.965   4.070  13.882  3.3925 -1.5956  1.5541
 6949TIP3   OH242261   2.189   0.133   4.154  0.0750 -0.1272  0.0828
 6949TIP3    H142262   2.170   0.044   4.184  1.2143 -0.6560 -0.7439
 6949TIP3    H242263   2.265   0.124   4.097 -0.7275  1.1657 -1.2325
 6950TIP3   OH242264   3.345   2.313   6.054 -0.5981  0.4434  0.3941
 6950TIP3    H142265   3.399   2.276   5.984  2.0075  1.3582  1.8643
 6950TIP3    H242266   3.300   2.237   6.091  2.1419 -0.8823  1.1989
 6951TIP3   OH242267   6.501   5.423  15.688 -0.2348 -0.0228 -0.2463
 6951TIP3    H142268   6.506   5.491  15.620  0.0033 -0.6511 -0.8719
 6951TIP3    H242269   6.426   5.369  15.663 -0.1560 -0.2477 -0.0065
 6952TIP3   OH242270   0.682   0.038  12.654 -0.2159  0.6461  0.0789
 6952TIP3    H142271   0.713   0.111  12.602  0.3020  1.5713  1.6357
 6952TIP3    H242272   0.654   0.077  12.737  0.4008 -0.9310  1.0693
 6953TIP3   OH242273   2.214   3.162  13.446 -0.2085  0.9822 -0.1055
 6953TIP3    H142274   2.144   3.149  13.381  0.0163 -0.1797 -0.1222
 6953TIP3    H242275   2.263   3.080  13.445 -0.8568  0.5324  2.3270
 6954TIP3   OH242276   3.250   2.127  15.535  0.2571  0.4923 -0.0573
 6954TIP3    H142277   3.345   2.132  15.533  0.2971  1.3623  2.3027
 6954TIP3    H242278   3.220   2.217  15.519 -0.1482  0.3459 -0.1369
 6955TIP3   OH242279   2.877   6.730  12.298 -0.0837  0.1991 -0.3922
 6955TIP3    H142280   2.809   6.734  12.231  0.0426 -1.3353 -0.6456
 6955TIP3    H242281   2.830   6.702  12.377  0.2363 -0.8280 -0.5596
 6956TIP3   OH242282   2.312   5.449  17.133  0.5739  0.2496  0.9807
 6956TIP3    H142283   2.268   5.506  17.071 -2.5209 -1.3583  1.6026
 6956TIP3    H242284   2.321   5.366  17.087  0.2595 -0.3053  1.9124
 6957TIP3   OH242285   5.111   5.418  10.809 -0.0662  0.2567 -0.6939
 6957TIP3    H142286   5.082   5.506  10.788 -0.1552  0.1423 -1.0576
 6957TIP3    H242287   5.185   5.402  10.750 -1.3753 -0.6936 -2.1238
 6958TIP3   OH242288   4.938   2.875  11.097  0.0687 -0.4018  0.5442
 6958TIP3    H142289   5.025   2.873  11.056  0.4512 -1.3423  1.3775
 6958TIP3    H242290   4.922   2.784  11.123 -0.0962  0.2109  2.6297
 6959TIP3   OH242291   0.387   0.606   6.378  0.2841  0.4188 -0.6205
 6959TIP3    H142292   0.376   0.699   6.358  1.4522  0.4609 -1.1426
 6959TIP3    H242293   0.375   0.562   6.294  2.6758  0.3706 -0.9802
 6960TIP3   OH242294   0.654   1.769  12.816  0.0098 -0.4658  0.5173
 6960TIP3    H142295   0.703   1.830  12.761 -0.1772 -0.4922  0.3175
 6960TIP3    H242296   0.617   1.824  12.886 -0.2253 -0.3344  0.2915
 6961TIP3   OH242297   4.299   1.073  15.289 -0.6603 -0.0137 -0.1353
 6961TIP3    H142298   4.330   1.142  15.347 -0.4942 -1.7639  1.9307
 6961TIP3    H242299   4.320   1.104  15.201  4.0597  0.3141  0.9638
 6962TIP3   OH242300   3.856   6.466   0.017 -0.3437 -0.4699  0.0507
 6962TIP3    H142301   3.851   6.544   0.073 -2.0518 -1.6108  1.5783
 6962TIP3    H242302   3.787   6.479  -0.048  0.3908 -0.0115 -0.6420
 6963TIP3   OH242303   1.730   0.415  12.008  0.0105  0.8559  0.2984
 6963TIP3    H142304   1.636   0.394  12.008 -0.5359  2.9512 -2.1328
 6963TIP3    H242305   1.732   0.511  12.001  2.2986  0.6787 -2.0388
 6964TIP3   OH242306   0.989   1.033   4.953 -0.3751  0.2289 -0.2159
 6964TIP3    H142307   0.955   0.944   4.942 -0.5184  0.1745  0.6382
 6964TIP3    H242308   1.048   1.045   4.879  0.0714 -0.7807 -0.0280
 6965TIP3   OH242309   4.965   3.824  12.278  0.2202 -0.3678  0.9170
 6965TIP3    H142310   5.049   3.841  12.320 -0.5095  1.1198  1.8236
 6965TIP3    H242311   4.902   3.823  12.350 -0.8213  0.6582  0.0341
 6966TIP3   OH242312   6.107   5.327   0.395  0.3174 -0.0616 -0.0115
 6966TIP3    H142313   6.160   5.252   0.423  0.2496 -0.6888 -1.4958
 6966TIP3    H242314   6.017   5.299   0.412  0.3827  0.6033  1.5586
 6967TIP3   OH242315   6.762   6.616   3.630  0.3799 -0.3613 -0.7343
 6967TIP3    H142316   6.807   6.544   3.586  1.8018  0.2735 -0.3489
 6967TIP3    H242317   6.760   6.589   3.722  1.6066  0.4135 -0.4630
 6968TIP3   OH242318   1.695   1.511  16.628 -0.0575 -0.1430 -0.3310
 6968TIP3    H142319   1.785   1.488  16.651  0.2000  0.7648 -0.3943
 6968TIP3    H242320   1.696   1.607  16.620 -1.1015 -0.0986 -0.0219
 6969TIP3   OH242321   2.000   1.596   3.160  0.1936 -0.4781 -0.3095
 6969TIP3    H142322   2.092   1.597   3.133  0.0610 -0.2367 -0.7568
 6969TIP3    H242323   1.968   1.683   3.139  0.2840 -0.0319  1.3395
 6970TIP3   OH242324   6.696   6.742   2.574 -0.3173  0.3503 -0.4171
 6970TIP3    H142325   6.690   6.837   2.586  3.8430  0.7820 -0.9715
 6970TIP3    H242326   6.774   6.716   2.622  0.3000 -2.3226 -2.6890
 6971TIP3   OH242327   0.528   0.731  14.716  0.4610  0.3285  0.4828
 6971TIP3    H142328   0.485   0.777  14.644  1.8496 -1.5449 -1.6437
 6971TIP3    H242329   0.622   0.743  14.699  0.8014 -0.3451  1.8503
 6972TIP3   OH242330   1.915   2.026   0.526 -0.4108  0.0986 -0.6689
 6972TIP3    H142331   1.915   2.009   0.432  0.5954  3.2673 -1.3120
 6972TIP3    H242332   1.964   1.953   0.564 -0.3977 -0.9501 -2.6695
 6973TIP3   OH242333   0.045   0.420   6.152  0.3236 -1.2465  0.2013
 6973TIP3    H142334   0.072   0.407   6.243 -0.2812 -1.0337  0.4156
 6973TIP3    H242335   0.036   0.515   6.143  3.3612 -1.0076 -0.9533
 6974TIP3   OH242336   2.787   5.831   4.912 -0.0742 -0.3907 -0.0615
 6974TIP3    H142337   2.806   5.838   5.005 -1.5362 -0.6229  0.2724
 6974TIP3    H242338   2.838   5.901   4.872 -1.1762  1.1732  1.2016
 6975TIP3   OH242339   0.340   4.070  12.950  0.2969  0.7894  0.1753
 6975TIP3    H142340   0.421   4.039  12.909  1.6205  1.9382  1.8320
 6975TIP3    H242341   0.347   4.043  13.041 -1.2919  0.7176  0.2915
 6976TIP3   OH242342   6.772   4.947  14.860  0.1753  0.4406  0.0439
 6976TIP3    H142343   6.813   5.024  14.899  1.5270 -0.6200  0.7794
 6976TIP3    H242344   6.718   4.910  14.930  0.6881 -0.0975  0.1629
 6977TIP3   OH242345   2.025   2.506   2.403 -0.0688  0.2753 -0.0082
 6977TIP3    H142346   1.968   2.525   2.329  0.4115  3.2199  0.2929
 6977TIP3    H242347   1.968   2.466   2.469 -0.9763 -0.2155 -1.0849
 6978TIP3   OH242348   4.869   3.318   2.343 -0.0051 -0.0524 -0.2532
 6978TIP3    H142349   4.844   3.313   2.251  0.6008  0.8163 -0.4783
 6978TIP3    H242350   4.957   3.282   2.346 -0.8973 -2.2218  0.3767
 6979TIP3   OH242351   6.327   0.548   3.445 -0.6193 -0.6697 -0.3270
 6979TIP3    H142352   6.302   0.499   3.522 -0.1764 -1.1683 -0.5003
 6979TIP3    H242353   6.417   0.522   3.427 -0.4066  0.1376 -0.4690
 6980TIP3   OH242354   1.661   6.640  16.467 -0.0671  0.2458  0.1684
 6980TIP3    H142355   1.593   6.634  16.534  0.5334  1.1052  0.8651
 6980TIP3    H242356   1.641   6.720  16.419  2.4588  2.4446  2.6470
 6981TIP3   OH242357   5.531   6.042   1.257  0.2746  0.6070 -0.1826
 6981TIP3    H142358   5.613   6.067   1.214 -0.4251  2.4420 -0.4717
 6981TIP3    H242359   5.483   5.993   1.191 -0.1903  2.2086 -1.0658
 6982TIP3   OH242360   2.133   1.567  16.152 -0.0681 -0.0970 -0.0394
 6982TIP3    H142361   2.083   1.642  16.182  0.1465  0.5131 -1.1775
 6982TIP3    H242362   2.167   1.593  16.066  0.4516 -1.2857 -0.2096
 6983TIP3   OH242363   2.468   3.040   5.251  0.1335 -0.3245  0.4777
 6983TIP3    H142364   2.492   3.053   5.342 -0.1929  2.2376  0.2279
 6983TIP3    H242365   2.408   3.111   5.231  1.0394 -0.2041 -2.0305
 6984TIP3   OH242366   3.244   4.823  10.475 -0.1072 -0.2461 -0.3363
 6984TIP3    H142367   3.209   4.804  10.388  0.7659  0.4121 -0.8380
 6984TIP3    H242368   3.212   4.912  10.494 -1.6254 -0.9898  0.7009
 6985TIP3   OH242369   0.464   0.708  16.102  0.8981 -0.1594  0.5029
 6985TIP3    H142370   0.466   0.628  16.155  1.3467 -0.1154  0.5610
 6985TIP3    H242371   0.545   0.754  16.125  0.8409  0.1147  0.1685
 6986TIP3   OH242372   3.341   3.055   5.392 -0.7129 -0.1661  0.5618
 6986TIP3    H142373   3.363   3.129   5.449  0.8200  0.5674 -0.9167
 6986TIP3    H242374   3.381   2.979   5.434  2.4341  0.7193 -0.6235
 6987TIP3   OH242375   5.306   1.726   0.092 -0.9150  0.0048 -0.5405
 6987TIP3    H142376   5.318   1.741   0.186  0.0817 -0.4841 -0.5828
 6987TIP3    H242377   5.261   1.642   0.087  1.6068 -1.3961 -0.5661
 6988TIP3   OH242378   0.528   4.939   2.982  0.0660 -0.3716 -1.1951
 6988TIP3    H142379   0.624   4.942   2.988  0.0302 -0.1479 -0.6610
 6988TIP3    H242380   0.498   4.970   3.068 -0.4695 -1.7543 -0.8625
 6989TIP3   OH242381   4.120   4.303  11.354  0.3008 -0.3370 -0.1450
 6989TIP3    H142382   4.028   4.327  11.349  0.3879 -0.3005 -2.1768
 6989TIP3    H242383   4.122   4.225  11.410 -0.7460  0.6362  1.2512
 6990TIP3   OH242384   5.043   1.994   5.003 -0.4491  0.0893  0.3778
 6990TIP3    H142385   4.982   2.053   4.957  0.0424  0.8967  0.7549
 6990TIP3    H242386   4.999   1.909   5.001 -0.8592  0.3164 -0.7709
 6991TIP3   OH242387   3.762   4.403  16.981 -0.8500 -0.3896 -0.7454
 6991TIP3    H142388   3.857   4.416  16.976 -1.3600  3.3189 -1.9600
 6991TIP3    H242389   3.729   4.427  16.895 -3.0494 -0.4302  0.0403
 6992TIP3   OH242390   5.977   3.198  12.898  0.6109 -0.1407 -0.3588
 6992TIP3    H142391   5.957   3.182  12.990 -0.9732 -1.1592 -0.8389
 6992TIP3    H242392   5.935   3.282  12.878  2.2029  0.8047  0.1956
 6993TIP3   OH242393   1.393   4.578   2.825 -0.3972  0.1426  0.8178
 6993TIP3    H142394   1.446   4.655   2.807 -0.2106 -0.4182 -1.0907
 6993TIP3    H242395   1.457   4.510   2.848 -0.5675  0.5614  2.6118
 6994TIP3   OH242396   4.270   3.517  10.817 -0.2385 -0.1426  0.2080
 6994TIP3    H142397   4.193   3.512  10.873  0.7812  1.0917  1.7589
 6994TIP3    H242398   4.251   3.589  10.756 -0.7962 -0.6206 -0.1856
 6995TIP3   OH242399   2.023   6.484  14.685  0.0788 -0.0206  0.3889
 6995TIP3    H142400   2.023   6.441  14.770  1.7063  0.2648  0.5479
 6995TIP3    H242401   1.990   6.573  14.703 -0.0851 -0.1292  0.6223
 6996TIP3   OH242402   2.701   2.011   2.672 -0.2383  0.3207  0.4641
 6996TIP3    H142403   2.692   1.928   2.719 -0.5651 -0.2757 -0.6387
 6996TIP3    H242404   2.795   2.030   2.674 -0.0770 -0.4193  0.1571
 6997TIP3   OH242405   3.339   2.246   3.533  0.5433  0.1900  0.1784
 6997TIP3    H142406   3.399   2.201   3.473 -0.3519  0.4483 -0.9270
 6997TIP3    H242407   3.366   2.338   3.529  1.2059  0.0459  1.0529
 6998TIP3   OH242408   6.486   2.721   0.508  0.0988  0.0394 -0.3419
 6998TIP3    H142409   6.437   2.751   0.431 -0.8498 -1.2172 -0.2458
 6998TIP3    H242410   6.577   2.746   0.490 -0.3913  1.4294 -1.0154
 6999TIP3   OH242411   3.235   6.439   0.994  0.1392 -0.0066 -0.1486
 6999TIP3    H142412   3.266   6.455   1.083  1.6750 -2.0401 -0.2808
 6999TIP3    H242413   3.139   6.439   1.002  0.2651 -0.8014  1.6266
 7000TIP3   OH242414   4.506   5.573  13.488  0.2370 -0.7528 -0.5168
 7000TIP3    H142415   4.586   5.566  13.539 -0.7864 -1.6917  1.0121
 7000TIP3    H242416   4.447   5.624  13.544 -0.9972 -2.0515 -0.5922
 7001TIP3   OH242417   1.230   3.118  15.770  0.1222  0.3612 -0.0575
 7001TIP3    H142418   1.227   3.045  15.708 -0.4109 -0.4454  0.9136
 7001TIP3    H242419   1.286   3.087  15.841  0.3732  1.1185  0.0742
 7002TIP3   OH242420   2.001   6.360   5.629 -0.2396 -0.3589 -0.4693
 7002TIP3    H142421   2.055   6.281   5.622  2.6761  1.5303 -0.0080
 7002TIP3    H242422   1.943   6.343   5.703  1.7200 -1.2908  0.8827
 7003TIP3   OH242423   3.707   6.593  11.303 -0.1345 -0.2281  0.0556
 7003TIP3    H142424   3.648   6.611  11.230  1.4794 -1.6578 -1.6619
 7003TIP3    H242425   3.791   6.570  11.261  0.8588 -0.9569  2.3543
 7004TIP3   OH242426   2.703   6.772   3.956  0.3260 -0.1509  0.0093
 7004TIP3    H142427   2.618   6.814   3.969  0.0398 -0.7441  0.0743
 7004TIP3    H242428   2.751   6.791   4.037 -0.4568 -1.4823  0.7954
 7005TIP3   OH242429   0.724   6.388   2.748  0.7394  0.3861 -0.4202
 7005TIP3    H142430   0.630   6.373   2.747  1.1631 -3.0146 -3.0883
 7005TIP3    H242431   0.739   6.450   2.677  0.6712 -0.7879 -1.4852
 7006TIP3   OH242432   5.770   0.182   6.613 -0.7159 -0.0178 -0.1289
 7006TIP3    H142433   5.845   0.223   6.569 -0.6637  0.3041  0.2547
 7006TIP3    H242434   5.714   0.256   6.638 -1.7299 -0.3311 -1.4478
 7007TIP3   OH242435   2.040   2.908  12.412 -0.2089 -0.4329 -0.0271
 7007TIP3    H142436   2.072   2.821  12.388  2.0577  0.1666  0.7356
 7007TIP3    H242437   2.083   2.968  12.351 -0.2591  0.3399  0.6797
 7008TIP3   OH242438   1.903   6.493   4.275  0.6135  0.5150  0.2362
 7008TIP3    H142439   1.939   6.543   4.348  2.3544 -3.3134  2.1491
 7008TIP3    H242440   1.978   6.445   4.240 -0.8833 -0.3568 -1.8681
 7009TIP3   OH242441   3.814   2.213   2.016 -0.2072 -0.7557 -0.1503
 7009TIP3    H142442   3.904   2.246   2.020 -0.7807  0.7543  0.8761
 7009TIP3    H242443   3.768   2.275   1.960 -0.2094 -2.5701 -2.2052
 7010TIP3   OH242444   5.764   0.263  14.403  0.3762  0.2348  0.3439
 7010TIP3    H142445   5.840   0.241  14.457  0.3694 -1.3326 -0.2583
 7010TIP3    H242446   5.762   0.196  14.335 -2.5127 -0.7794  1.3296
 7011TIP3   OH242447   1.256   1.993   3.601  0.2064 -0.1770  0.5143
 7011TIP3    H142448   1.270   2.009   3.695  0.1315  0.8040  0.3649
 7011TIP3    H242449   1.217   2.074   3.569 -1.1313 -1.0543 -0.0801
 7012TIP3   OH242450   6.443   3.898  14.432 -0.1051 -0.1403  0.2346
 7012TIP3    H142451   6.494   3.968  14.474 -0.6919  0.8638 -0.6828
 7012TIP3    H242452   6.379   3.872  14.497  0.8094 -0.5784  0.9738
 7013TIP3   OH242453   0.125   1.877  11.577 -0.5712 -0.2423 -0.3546
 7013TIP3    H142454   0.162   1.958  11.541 -1.9119  0.5241 -0.0240
 7013TIP3    H242455   0.110   1.822  11.501 -2.6379  1.0635 -0.9467
 7014TIP3   OH242456   1.388   6.126  13.221 -0.8838 -0.1913 -0.4065
 7014TIP3    H142457   1.311   6.163  13.177 -1.9563 -0.9507  0.7645
 7014TIP3    H242458   1.418   6.195  13.279 -1.7190 -0.4590  0.3640
 7015TIP3   OH242459   3.874   2.874  14.957  0.2238  0.5406  0.0006
 7015TIP3    H142460   3.941   2.812  14.927  0.8944  0.9277  0.6661
 7015TIP3    H242461   3.865   2.856  15.050 -0.8484  0.2685 -0.1552
 7016TIP3   OH242462   3.147   4.623  17.108  0.3389 -0.5105 -0.0343
 7016TIP3    H142463   3.210   4.657  17.044 -0.2603  2.0736  0.6878
 7016TIP3    H242464   3.063   4.622  17.061  0.2867 -0.6474  0.0608
 7017TIP3   OH242465   4.075   6.172   3.208 -0.3475  0.0534  0.0765
 7017TIP3    H142466   4.024   6.183   3.128 -0.3861 -0.2885  0.0547
 7017TIP3    H242467   4.104   6.081   3.206  1.3124  0.5695 -0.5494
 7018TIP3   OH242468   4.972   5.647  10.993  0.3935 -0.5089  0.2660
 7018TIP3    H142469   5.013   5.648  10.906 -0.9455 -3.8534 -0.4733
 7018TIP3    H242470   5.044   5.633  11.054  1.3316  1.7514 -0.2789
 7019TIP3   OH242471   1.691   3.576  17.118  0.2922 -0.3217  0.0752
 7019TIP3    H142472   1.710   3.666  17.146 -2.4237  0.4217 -0.3463
 7019TIP3    H242473   1.612   3.584  17.065 -0.3525 -3.0655  0.5599
 7020TIP3   OH242474   6.129   5.295   2.559 -0.5233  0.2374 -0.4155
 7020TIP3    H142475   6.172   5.301   2.474  0.1905  3.7782  0.1240
 7020TIP3    H242476   6.196   5.321   2.622 -2.0299  1.0457  0.9001
 7021TIP3   OH242477   1.938   2.913  15.984 -0.2494  0.4122  0.1281
 7021TIP3    H142478   1.932   2.980  16.053 -0.5877  0.3920  0.1200
 7021TIP3    H242479   1.921   2.831  16.030  2.9144  0.0163  0.6643
 7022TIP3   OH242480   5.568   1.320  11.681 -0.2061  0.0700  0.0472
 7022TIP3    H142481   5.518   1.378  11.738 -2.3973 -0.4842 -1.2558
 7022TIP3    H242482   5.638   1.376  11.646  1.0007  0.4853  2.9811
 7023TIP3   OH242483   3.397   4.393  16.884 -0.4942 -0.2810 -0.6121
 7023TIP3    H142484   3.493   4.394  16.875 -0.6026  0.1756 -1.8023
 7023TIP3    H242485   3.381   4.347  16.966  0.6882 -1.9833 -1.3136
 7024TIP3   OH242486   6.726   1.037  15.305 -0.5432  0.1344 -0.6644
 7024TIP3    H142487   6.772   0.963  15.265  1.0164  0.7725 -0.1038
 7024TIP3    H242488   6.785   1.112  15.292 -0.7421  0.6785  1.3650
 7025TIP3   OH242489   1.308   2.562  11.885 -0.3186 -0.5236 -0.1883
 7025TIP3    H142490   1.232   2.564  11.943  0.5422 -1.6737  1.0008
 7025TIP3    H242491   1.375   2.612  11.932 -0.0422 -0.2891 -0.8236
 7026TIP3   OH242492   5.992   5.018  10.777  0.3074 -0.1691 -0.2172
 7026TIP3    H142493   6.075   5.061  10.760 -1.3012  1.9183 -3.2173
 7026TIP3    H242494   6.001   4.931  10.740  1.4119 -0.2510  0.2234
 7027TIP3   OH242495   6.256   5.789  12.460 -0.2203  0.4918 -0.6910
 7027TIP3    H142496   6.223   5.716  12.408  0.3690  0.9075 -1.6620
 7027TIP3    H242497   6.351   5.785  12.449 -0.1238  0.8565 -0.0128
 7028TIP3   OH242498   3.978   4.995  15.945 -0.0382  0.1111  0.3938
 7028TIP3    H142499   3.957   4.902  15.939 -0.1369  0.2277 -1.1817
 7028TIP3    H242500   3.969   5.028  15.856  1.8285  1.2334  0.5800
 7029TIP3   OH242501   0.084   4.405  16.536  0.4098  0.3993  0.3408
 7029TIP3    H142502   0.171   4.376  16.562  0.5214 -0.4694 -0.9493
 7029TIP3    H242503   0.029   4.328  16.548 -0.3540  1.1816  1.9468
 7030TIP3   OH242504   0.526   6.128   5.109  0.3793  0.0036 -0.6988
 7030TIP3    H142505   0.601   6.168   5.066  0.1547  1.2965  0.0952
 7030TIP3    H242506   0.454   6.139   5.047 -0.1051  2.4692  0.2389
 7031TIP3   OH242507   3.857   6.548   4.439 -0.2729  0.3983  0.9847
 7031TIP3    H142508   3.875   6.634   4.400  0.5179  0.7512  2.0832
 7031TIP3    H242509   3.767   6.553   4.470 -1.1060 -0.0853 -1.2793
 7032TIP3   OH242510   0.911   5.527   1.561  0.4854  0.1125  0.2394
 7032TIP3    H142511   0.954   5.530   1.646 -0.1264 -1.6724  0.6385
 7032TIP3    H242512   0.818   5.540   1.579  0.3907  0.0450 -0.1858
 7033TIP3   OH242513   1.115   4.076  15.016 -0.1763  0.4398  0.0981
 7033TIP3    H142514   1.077   4.150  14.968 -2.1689 -1.6036 -1.5459
 7033TIP3    H242515   1.051   4.057  15.085 -0.9367 -1.3814 -1.0848
 7034TIP3   OH242516   2.221   1.402  13.748  0.3779 -0.5032 -0.2592
 7034TIP3    H142517   2.148   1.446  13.793  0.8424 -0.8416  0.8409
 7034TIP3    H242518   2.196   1.403  13.656  0.0326  1.4195 -0.1766
 7035TIP3   OH242519   2.266   4.642   5.968  0.4813 -0.0957  0.1383
 7035TIP3    H142520   2.196   4.587   6.003  0.1232 -0.7256 -1.5190
 7035TIP3    H242521   2.333   4.581   5.941  2.2945  0.5624  2.9051
 7036TIP3   OH242522   6.741   2.507  17.042 -0.0917  0.2712  0.4047
 7036TIP3    H142523   6.833   2.481  17.040  0.4241  1.9923  0.4651
 7036TIP3    H242524   6.743   2.595  17.081 -1.6328  0.8071 -0.6995
 7037TIP3   OH242525   2.085   4.841  14.510 -0.6178 -0.6846  0.3611
 7037TIP3    H142526   2.050   4.769  14.562 -1.6813  0.1007  0.7319
 7037TIP3    H242527   2.011   4.870  14.457 -0.5475  1.0230  1.1858
 7038TIP3   OH242528   5.788   5.125  12.577 -0.1056  0.4283 -0.3753
 7038TIP3    H142529   5.767   5.207  12.532  2.4768  0.0623 -2.4178
 7038TIP3    H242530   5.786   5.059  12.507  2.2358 -0.4673  0.3679
 7039TIP3   OH242531   6.475   3.970  13.011  0.0026 -0.3417 -0.4336
 7039TIP3    H142532   6.523   3.888  13.025 -0.4046 -0.8537 -1.9234
 7039TIP3    H242533   6.398   3.944  12.961 -1.5149  0.5819  1.3949
 7040TIP3   OH242534   6.744   1.667  16.937 -0.6264 -0.2141 -0.2437
 7040TIP3    H142535   6.774   1.611  17.009  1.1433 -0.1970 -0.9583
 7040TIP3    H242536   6.729   1.608  16.864 -0.1914  0.0451 -0.5500
 7041TIP3   OH242537   0.375   4.533   0.677  0.4684  0.2365 -0.4390
 7041TIP3    H142538   0.458   4.513   0.720 -0.4949  1.5278  2.1536
 7041TIP3    H242539   0.381   4.627   0.658 -0.5080  0.4044  0.0624
 7042TIP3   OH242540   4.430   5.789   3.639  0.8047  0.1659  0.3085
 7042TIP3    H142541   4.353   5.820   3.591  1.0089  0.3619  0.1049
 7042TIP3    H242542   4.473   5.870   3.668  1.0188  0.0574  0.2864
 7043TIP3   OH242543   2.649   2.531  12.961  0.2227 -0.3912 -0.0174
 7043TIP3    H142544   2.671   2.466  13.028 -0.3487 -0.5880 -0.0130
 7043TIP3    H242545   2.695   2.610  12.988 -0.1617 -0.4160  0.7297
 7044TIP3   OH242546   2.634   2.816  12.548 -0.8243  0.1237 -0.0140
 7044TIP3    H142547   2.602   2.835  12.636  1.1513 -0.2919  0.8257
 7044TIP3    H242548   2.657   2.723  12.551 -1.0915  0.0208 -1.0835
 7045TIP3   OH242549   3.726   5.301   2.627  0.0085  0.8186 -0.2801
 7045TIP3    H142550   3.687   5.354   2.696 -1.5983 -0.0974 -0.4692
 7045TIP3    H242551   3.676   5.323   2.549 -0.6828 -0.9985 -0.3533
 7046TIP3   OH242552   3.592   4.982  17.113  0.0829  0.3739 -0.1829
 7046TIP3    H142553   3.533   5.052  17.085 -1.7190 -0.9691  0.2022
 7046TIP3    H242554   3.620   4.940  17.031 -1.1189 -0.2947 -0.2495
 7047TIP3   OH242555   4.484   3.160   1.433  0.4941  0.4681  0.1451
 7047TIP3    H142556   4.414   3.217   1.466  0.5582  1.6086 -1.5886
 7047TIP3    H242557   4.513   3.110   1.509 -4.2369 -2.2360  0.3303
 7048TIP3   OH242558   1.719   0.840  14.083 -0.3151  0.1033 -0.1501
 7048TIP3    H142559   1.770   0.823  14.162 -0.0074 -0.2709 -0.4256
 7048TIP3    H242560   1.698   0.753  14.048  1.5847  0.2342 -1.7580
 7049TIP3   OH242561   3.713   4.257  13.022  0.7148  0.2995  0.0804
 7049TIP3    H142562   3.634   4.205  13.031  0.0535  1.0102 -1.4217
 7049TIP3    H242563   3.720   4.306  13.104 -1.3018  1.4294 -0.3866
 7050TIP3   OH242564   6.544   2.170   1.317 -0.4362  0.4293  0.1768
 7050TIP3    H142565   6.460   2.137   1.349 -0.9929  1.6096 -0.0228
 7050TIP3    H242566   6.555   2.254   1.361 -0.5800  1.4539 -1.7041
 7051TIP3   OH242567   1.518   6.606   0.065 -0.0707 -0.5022 -0.3994
 7051TIP3    H142568   1.582   6.566   0.006  0.0030 -1.0777  0.0634
 7051TIP3    H242569   1.434   6.568   0.038 -0.1203 -0.2744 -0.5588
 7052TIP3   OH242570   0.509   3.980   5.875  0.2605  0.6112 -0.3028
 7052TIP3    H142571   0.474   4.019   5.795 -2.1288  1.5961  1.1739
 7052TIP3    H242572   0.465   3.895   5.880 -0.8287  1.2261  0.7797
 7053TIP3   OH242573   6.586   0.737  17.105 -0.6492  0.5510 -0.0724
 7053TIP3    H142574   6.573   0.831  17.096 -0.2077  0.6657  0.4331
 7053TIP3    H242575   6.518   0.708  17.165 -0.8704  0.5233 -0.3319
 7054TIP3   OH242576   5.091   4.540   4.801  0.4128  0.3327  0.3875
 7054TIP3    H142577   5.141   4.619   4.820  0.1080  1.1631 -2.1037
 7054TIP3    H242578   5.158   4.472   4.792  1.0138  1.1606 -1.5801
 7055TIP3   OH242579   2.252   1.251   0.220  0.2308 -0.6749 -0.0833
 7055TIP3    H142580   2.238   1.238   0.127 -1.8906  1.9512 -0.1821
 7055TIP3    H242581   2.198   1.183   0.262 -0.2324 -0.7116 -0.7330
 7056TIP3   OH242582   6.134   6.292   3.918  0.4278  0.4677  0.3075
 7056TIP3    H142583   6.062   6.344   3.881  1.6205  0.0714 -2.7336
 7056TIP3    H242584   6.116   6.202   3.889  2.3031  0.4214 -0.7997
 7057TIP3   OH242585   2.724   6.426  17.043 -0.3011 -0.3245  0.5488
 7057TIP3    H142586   2.736   6.387  17.130  1.6254  0.1475  0.4995
 7057TIP3    H242587   2.646   6.382  17.008 -0.9878 -0.6414  2.4393
 7058TIP3   OH242588   0.814   6.589  11.660 -0.2451  0.0258 -0.0874
 7058TIP3    H142589   0.748   6.626  11.602 -0.3002 -0.6468 -0.4659
 7058TIP3    H242590   0.858   6.522  11.606  0.9997  0.7384  0.0307
 7059TIP3   OH242591   4.897   2.578  12.668  0.2355  0.7942 -0.2993
 7059TIP3    H142592   4.862   2.498  12.631  0.3808  0.4937  0.2060
 7059TIP3    H242593   4.844   2.648  12.629 -0.9685  0.3425  0.4835
 7060TIP3   OH242594   3.094   0.487   3.170 -0.5704 -0.2941  0.2738
 7060TIP3    H142595   3.008   0.460   3.140 -0.9625  0.6570  0.5282
 7060TIP3    H242596   3.085   0.580   3.191 -0.1680 -0.7894  2.8003
 7061TIP3   OH242597   3.355   0.594  16.593  0.0197  0.1892 -0.2179
 7061TIP3    H142598   3.358   0.589  16.497 -2.7205  1.0195 -0.3964
 7061TIP3    H242599   3.310   0.676  16.611  0.4693  0.0136  1.8102
 7062TIP3   OH242600   5.064   0.466  12.540  0.2329  0.1659 -0.3492
 7062TIP3    H142601   5.011   0.540  12.569 -0.2014  0.4500 -1.8178
 7062TIP3    H242602   5.006   0.415  12.484  0.5802 -1.2124  0.5111
 7063TIP3   OH242603   5.830   4.091   1.122 -0.1742  0.0382  0.0370
 7063TIP3    H142604   5.905   4.121   1.173 -0.8868 -0.0100  1.1394
 7063TIP3    H242605   5.805   4.008   1.162 -0.5284 -0.1709 -0.6177
 7064TIP3   OH242606   5.862   5.325  13.989 -1.0231  0.6388  0.2547
 7064TIP3    H142607   5.940   5.339  13.935 -1.6345  0.3630 -0.7117
 7064TIP3    H242608   5.811   5.260  13.941 -1.6525  0.5059  1.0903
 7065TIP3   OH242609   2.350   2.550   1.679 -0.2280  0.1102 -0.0022
 7065TIP3    H142610   2.387   2.624   1.727  2.8055  0.9095 -3.3295
 7065TIP3    H242611   2.395   2.474   1.715 -1.8915  0.0380  2.0346
 7066TIP3   OH242612   4.424   1.656   4.027 -0.4371 -0.4266  0.2893
 7066TIP3    H142613   4.499   1.709   4.001 -1.1513  0.7159  0.5020
 7066TIP3    H242614   4.456   1.601   4.098  0.2503 -0.1123  0.2222
 7067TIP3   OH242615   6.305   3.895  14.196 -0.4785 -0.2400  0.3136
 7067TIP3    H142616   6.331   3.882  14.287  0.7695 -1.4947 -0.1997
 7067TIP3    H242617   6.230   3.837  14.184 -0.5469 -0.1903  0.4980
 7068TIP3   OH242618   2.787   5.529   3.706  0.1186  0.4736  0.3379
 7068TIP3    H142619   2.851   5.490   3.766 -0.1458  0.7840  0.8228
 7068TIP3    H242620   2.702   5.502   3.740 -0.0347  0.6841  0.1212
 7069TIP3   OH242621   5.030   1.157  13.808 -0.0219  0.5479  0.8351
 7069TIP3    H142622   5.064   1.074  13.775  1.4647  1.4934 -0.0959
 7069TIP3    H242623   5.059   1.160  13.899  1.0477  0.6243  0.4990
 7070TIP3   OH242624   6.441   4.662   0.978  0.2637 -0.4593  0.8962
 7070TIP3    H142625   6.368   4.709   1.018  0.0036  2.0227 -2.3007
 7070TIP3    H242626   6.519   4.708   1.010  0.0989  0.8902 -0.5605
 7071TIP3   OH242627   3.433   2.937  14.847  0.2112  0.0558 -0.0075
 7071TIP3    H142628   3.486   2.940  14.927  1.9071 -1.0159 -1.0822
 7071TIP3    H242629   3.490   2.898  14.781 -0.7599  2.0659 -2.0914
 7072TIP3   OH242630   3.492   1.885   0.990  0.6168 -0.7710  0.1501
 7072TIP3    H142631   3.495   1.793   0.963  1.2644 -0.4437 -0.9082
 7072TIP3    H242632   3.569   1.924   0.950  0.2108  0.2942  0.3954
 7073TIP3   OH242633   0.956   6.045   1.860  0.0188 -0.0252 -0.6834
 7073TIP3    H142634   0.902   6.121   1.881 -0.4825 -0.4488 -0.4332
 7073TIP3    H242635   0.941   5.983   1.931 -0.8490 -1.0250 -1.7151
 7074TIP3   OH242636   0.496   5.369   5.936  0.1048 -0.0299  0.3467
 7074TIP3    H142637   0.524   5.283   5.969  2.9250  1.0063  0.7905
 7074TIP3    H242638   0.467   5.352   5.846  1.0786 -1.3854  0.2686
 7075TIP3   OH242639   1.043   1.168  16.324  0.4300 -0.1924 -0.3815
 7075TIP3    H142640   0.962   1.202  16.364  0.6377  0.9208 -0.9041
 7075TIP3    H242641   1.083   1.116  16.394 -0.4468 -0.2888  0.0699
 7076TIP3   OH242642   2.682   0.181   3.699  0.8355  0.1447  0.7912
 7076TIP3    H142643   2.735   0.192   3.619 -2.1915 -1.5368 -1.5681
 7076TIP3    H242644   2.651   0.268   3.720  1.8882  0.6467  0.3076
 7077TIP3   OH242645   2.742   1.173  11.369 -0.8061  0.1029 -0.2428
 7077TIP3    H142646   2.751   1.265  11.395 -1.1922 -1.0902  4.6142
 7077TIP3    H242647   2.648   1.155  11.376 -0.6822 -0.7790 -0.7711
 7078TIP3   OH242648   1.857   0.346   2.703  0.5562 -0.0012  0.0436
 7078TIP3    H142649   1.889   0.378   2.787 -0.4584  1.9410 -0.3022
 7078TIP3    H242650   1.865   0.420   2.644 -2.9990  0.0871 -0.4672
 7079TIP3   OH242651   4.994   5.852  14.490  0.6302 -0.3934  0.4458
 7079TIP3    H142652   4.961   5.940  14.472  1.3588 -0.3844 -0.8789
 7079TIP3    H242653   5.068   5.867  14.550 -1.0518 -0.3406  2.5567
 7080TIP3   OH242654   5.165   0.695  16.144 -0.1350  0.0890 -0.0668
 7080TIP3    H142655   5.203   0.772  16.185 -0.2979  0.2111 -0.1430
 7080TIP3    H242656   5.096   0.666  16.204 -1.4876  1.2424 -1.0404
 7081TIP3   OH242657   0.155   1.441   5.231 -0.5431 -0.3516  0.3047
 7081TIP3    H142658   0.188   1.479   5.149 -2.5889 -0.4551 -0.5826
 7081TIP3    H242659   0.166   1.511   5.296 -0.3831  0.2796 -0.3996
 7082TIP3   OH242660   4.706   3.216  11.370  0.6764 -0.1669  0.2314
 7082TIP3    H142661   4.704   3.173  11.285 -1.5586  0.1865  0.0715
 7082TIP3    H242662   4.689   3.145  11.433 -2.0811  0.2408  0.0309
 7083TIP3   OH242663   4.335   0.912   0.123 -0.1065  0.1251 -0.6385
 7083TIP3    H142664   4.262   0.851   0.136  0.2839 -0.1202  0.5087
 7083TIP3    H242665   4.354   0.908   0.030 -0.0960 -1.5170 -0.5769
 7084TIP3   OH242666   0.358   0.964  16.144 -0.3854  0.2602 -0.1721
 7084TIP3    H142667   0.411   0.889  16.115 -0.2638 -0.7272  2.5140
 7084TIP3    H242668   0.392   0.985  16.231 -1.5694  2.3815 -0.1957
 7085TIP3   OH242669   5.017   2.568   4.794 -0.3515  0.1499  0.1041
 7085TIP3    H142670   5.022   2.519   4.876 -1.0415 -0.5867 -0.2807
 7085TIP3    H242671   5.106   2.569   4.761 -0.7800 -3.4890 -1.3822
 7086TIP3   OH242672   0.284   5.058  17.115  0.9789 -0.4550  0.2198
 7086TIP3    H142673   0.251   5.024  17.198 -2.4548  2.3703  0.1125
 7086TIP3    H242674   0.216   5.036  17.051  2.2244 -0.0376 -1.2765
 7087TIP3   OH242675   4.528   0.504   2.416 -0.0700  0.4680  1.1116
 7087TIP3    H142676   4.472   0.450   2.472 -1.6705  2.4908  1.5684
 7087TIP3    H242677   4.476   0.519   2.337  0.8551  0.2925  0.4682
 7088TIP3   OH242678   5.811   4.031  12.208  0.2487 -0.2157  0.5523
 7088TIP3    H142679   5.717   4.014  12.218  0.3474 -2.0402 -1.2145
 7088TIP3    H242680   5.835   4.079  12.288 -2.1926  0.4146  0.9609
 7089TIP3   OH242681   1.460   1.281   4.335  0.1992 -0.2755 -0.2110
 7089TIP3    H142682   1.430   1.367   4.306  0.6195 -0.2018 -0.4399
 7089TIP3    H242683   1.380   1.230   4.347 -0.0083 -0.1318 -0.9685
 7090TIP3   OH242684   5.145   5.826  15.521 -0.5105 -0.8476  0.1934
 7090TIP3    H142685   5.147   5.753  15.458 -1.5674 -0.6222 -0.1182
 7090TIP3    H242686   5.064   5.811  15.571 -0.7461  0.1270  0.1047
 7091TIP3   OH242687   2.695   2.277  12.160 -0.0130  0.1663 -0.0274
 7091TIP3    H142688   2.626   2.330  12.199 -1.8695 -1.2777 -1.2625
 7091TIP3    H242689   2.735   2.231  12.235 -0.1862  1.2187  0.7198
 7092TIP3   OH242690   0.665   6.250  16.997  0.1385 -1.1214  0.1320
 7092TIP3    H142691   0.615   6.186  17.048 -1.0440  0.9749  1.6472
 7092TIP3    H242692   0.725   6.290  17.061  1.9574 -1.7655 -1.1263
 7093TIP3   OH242693   5.824   2.855  12.164 -0.1148 -0.3662 -0.3537
 7093TIP3    H142694   5.786   2.914  12.228 -3.2374 -4.3912  1.7316
 7093TIP3    H242695   5.877   2.794  12.216 -0.9408 -2.3719 -1.7989
 7094TIP3   OH242696   2.098   5.754  16.097  0.3920 -0.1578 -0.5355
 7094TIP3    H142697   2.171   5.697  16.072  0.3317 -0.9810  1.1406
 7094TIP3    H242698   2.086   5.739  16.190 -0.8476  1.2256 -0.4498
 7095TIP3   OH242699   3.820   0.395   6.225  0.2383 -0.3830 -0.1037
 7095TIP3    H142700   3.784   0.443   6.150  0.8070  0.8421  0.3890
 7095TIP3    H242701   3.913   0.418   6.226  0.4712 -1.3111  0.2940
 7096TIP3   OH242702   2.986   2.950  16.665  0.1716 -0.1435  0.2985
 7096TIP3    H142703   2.926   3.005  16.716 -0.0386 -1.1987  1.1926
 7096TIP3    H242704   3.070   2.957  16.711 -0.1791 -1.6254  1.1842
 7097TIP3   OH242705   2.060   6.736   5.553 -0.2927 -0.3200  0.1792
 7097TIP3    H142706   2.037   6.738   5.646 -1.6489 -0.4793 -0.1438
 7097TIP3    H242707   2.136   6.794   5.545  2.4983 -3.5365  2.0825
 7098TIP3   OH242708   1.610   2.099   2.381 -0.5481  0.1513  0.1055
 7098TIP3    H142709   1.593   2.170   2.443 -0.1428  0.2796  0.0707
 7098TIP3    H242710   1.644   2.143   2.303  0.2589 -0.1337  0.2947
 7099TIP3   OH242711   6.461   0.126  15.376  0.0445  0.4685  0.4421
 7099TIP3    H142712   6.503   0.115  15.291 -0.1073 -0.6836  0.5121
 7099TIP3    H242713   6.533   0.123  15.439 -0.0208 -0.4826  0.4835
 7100TIP3   OH242714   4.402   0.553   2.138  0.0823 -0.0842 -0.3534
 7100TIP3    H142715   4.395   0.461   2.164 -0.8202  0.1725  0.3421
 7100TIP3    H242716   4.420   0.550   2.044  2.6762 -1.0257  0.1305
 7101TIP3   OH242717   0.553   0.361   2.535  0.6481 -0.2128 -0.2392
 7101TIP3    H142718   0.519   0.275   2.557  1.2797 -0.6754 -1.0290
 7101TIP3    H242719   0.544   0.412   2.616 -1.6310 -0.3897 -0.3344
 7102TIP3   OH242720   4.663   4.306   1.126 -0.4226 -0.2613 -0.6006
 7102TIP3    H142721   4.691   4.395   1.103  0.1630  0.1665  1.6337
 7102TIP3    H242722   4.745   4.259   1.143 -0.8440  0.2088  3.1787
 7103TIP3   OH242723   1.847   1.079  16.206 -0.1888  0.3592  0.0535
 7103TIP3    H142724   1.843   1.075  16.110 -0.5444 -1.9180  0.1427
 7103TIP3    H242725   1.838   1.172  16.226 -0.5962  0.8152 -2.1002
 7104TIP3   OH242726   1.341   4.291  16.733 -0.2373 -0.2037 -0.1808
 7104TIP3    H142727   1.252   4.325  16.733 -0.0828  0.2665  1.3129
 7104TIP3    H242728   1.387   4.342  16.665 -1.1789 -0.6835 -1.1799
 7105TIP3   OH242729   0.398   2.073  11.962  0.5911 -0.0173 -0.0622
 7105TIP3    H142730   0.310   2.060  11.929 -0.5295  0.5498  2.5664
 7105TIP3    H242731   0.447   2.109  11.888 -0.7937 -2.3545 -2.1643
 7106TIP3   OH242732   1.361   5.285   2.394 -0.4492  0.2588 -0.5913
 7106TIP3    H142733   1.293   5.261   2.332  0.0121 -1.3524 -0.4992
 7106TIP3    H242734   1.378   5.204   2.443  0.3410  1.0823  0.5136
 7107TIP3   OH242735   3.546   0.459  12.182  0.3302 -0.5505 -0.0647
 7107TIP3    H142736   3.509   0.376  12.154 -0.9018  0.1189 -0.4650
 7107TIP3    H242737   3.544   0.514  12.104  0.7861 -0.0297  0.2868
 7108TIP3   OH242738   1.383   0.341   3.110  0.2128  0.2965 -0.2218
 7108TIP3    H142739   1.392   0.401   3.035 -0.8614 -0.0114 -0.5990
 7108TIP3    H242740   1.345   0.262   3.073  0.0236  0.0050  0.5923
 7109TIP3   OH242741   0.007   4.986  11.850  0.1493 -0.4450  0.4302
 7109TIP3    H142742  -0.019   4.903  11.812  1.4279 -0.6104 -0.1087
 7109TIP3    H242743  -0.068   5.012  11.904 -1.0822 -0.9326 -0.9954
 7110TIP3   OH242744   2.188   2.239  15.586 -0.8002  0.3935  0.1956
 7110TIP3    H142745   2.263   2.245  15.527  2.3486  1.8297  4.1017
 7110TIP3    H242746   2.175   2.328  15.618 -2.6092 -0.2777  1.4198
 7111TIP3   OH242747   3.390   2.567   0.374 -0.1069 -0.1472 -0.2546
 7111TIP3    H142748   3.310   2.563   0.426 -0.2637 -0.0050 -0.4817
 7111TIP3    H242749   3.432   2.482   0.387 -0.8574 -0.6518 -1.0252
 7112TIP3   OH242750   2.718   0.012   0.041  0.6327  0.3923 -0.9236
 7112TIP3    H142751   2.652   0.079   0.060  0.9126  0.5852 -0.6310
 7112TIP3    H242752   2.698  -0.060   0.100  0.4025  0.2628 -1.1573
 7113TIP3   OH242753   4.916   6.003   6.614  0.3919 -0.0433 -0.1557
 7113TIP3    H142754   5.009   5.980   6.614  0.4873  0.3414 -0.5111
 7113TIP3    H242755   4.872   5.922   6.641  0.8192 -0.2683 -0.1237
 7114TIP3   OH242756   5.954   3.729   1.535  0.2361 -0.2099  0.3100
 7114TIP3    H142757   5.907   3.725   1.619  0.2755  2.6840  0.5518
 7114TIP3    H242758   5.890   3.702   1.470 -2.1731  4.3550  0.5618
 7115TIP3   OH242759   6.734   5.385   5.895 -0.0535  0.0010 -0.4519
 7115TIP3    H142760   6.669   5.420   5.956 -0.6127  0.1487 -1.1284
 7115TIP3    H242761   6.721   5.290   5.899  0.7707 -0.0808  0.6078
 7116TIP3   OH242762   2.552   0.115  11.504  0.5581  0.3529  0.3900
 7116TIP3    H142763   2.474   0.140  11.453  0.8512  2.0985  0.7887
 7116TIP3    H242764   2.626   0.141  11.449  0.9218 -2.3793 -0.5227
 7117TIP3   OH242765   0.145   1.758   3.761  0.0479  0.3392  0.5665
 7117TIP3    H142766   0.220   1.748   3.703 -0.9411  1.1223 -0.8468
 7117TIP3    H242767   0.108   1.843   3.740 -2.4497 -0.8813 -0.1782
 7118TIP3   OH242768   5.196   1.665   4.718  0.5467 -0.3739  0.4256
 7118TIP3    H142769   5.180   1.706   4.633  0.6265 -0.2343  0.4788
 7118TIP3    H242770   5.171   1.574   4.705 -0.6915 -0.0632  0.6271
 7119TIP3   OH242771   6.600   2.354   1.758  0.1785 -0.1280 -0.1319
 7119TIP3    H142772   6.520   2.306   1.737  0.6161 -2.7402  3.6524
 7119TIP3    H242773   6.590   2.439   1.715 -3.5816 -1.2426 -1.5975
 7120TIP3   OH242774   4.643   3.045  12.109 -0.4450 -0.0983  0.1176
 7120TIP3    H142775   4.704   3.088  12.169  0.2323 -0.4631 -0.3010
 7120TIP3    H242776   4.557   3.055  12.150 -0.0612  0.1550  0.8641
 7121TIP3   OH242777   5.095   6.647   5.063  0.4919  0.2860 -0.1608
 7121TIP3    H142778   5.156   6.709   5.022  0.8771  0.6167  0.8834
 7121TIP3    H242779   5.148   6.601   5.128 -0.0170 -0.4970 -0.2918
 7122TIP3   OH242780   4.401   3.642   0.937  0.1699 -0.2921  0.3071
 7122TIP3    H142781   4.359   3.640   0.852  2.9671  1.8313 -1.2081
 7122TIP3    H242782   4.467   3.573   0.933  0.2248 -0.2706  0.7780
 7123TIP3   OH242783   3.727   2.248  12.206  0.8122  0.3188 -0.4156
 7123TIP3    H142784   3.798   2.312  12.207  0.7555  0.3619  0.6740
 7123TIP3    H242785   3.715   2.228  12.113  0.1142  2.6679 -0.8602
 7124TIP3   OH242786   2.773   0.280   2.368  0.6309 -0.1173 -0.4509
 7124TIP3    H142787   2.825   0.223   2.312  0.9216  1.6801 -2.0911
 7124TIP3    H242788   2.837   0.337   2.411  0.2627 -0.1175  0.1072
 7125TIP3   OH242789   4.832   0.706  15.184 -0.3857 -0.4438  0.0229
 7125TIP3    H142790   4.906   0.720  15.125 -0.5014 -0.7419 -0.1943
 7125TIP3    H242791   4.758   0.748  15.141 -0.4372 -0.5261  0.0287
 7126TIP3   OH242792   0.478   4.932   4.434  0.6348 -0.4992  0.6855
 7126TIP3    H142793   0.462   4.838   4.429  0.1246 -0.3483 -0.7485
 7126TIP3    H242794   0.413   4.964   4.496 -0.8458 -0.7482 -0.6903
 7127TIP3   OH242795   2.958   3.646  11.398 -0.5099 -0.0915  0.4380
 7127TIP3    H142796   2.906   3.666  11.320 -1.2954  2.7481  1.6156
 7127TIP3    H242797   2.893   3.626  11.466  0.0807 -0.2789  0.9507
 7128TIP3   OH242798   1.440   3.162   3.990  0.6661 -0.3302  0.4072
 7128TIP3    H142799   1.465   3.182   4.080 -0.1697  1.8888  0.1874
 7128TIP3    H242800   1.368   3.099   3.998 -0.1794  0.7239  1.3650
 7129TIP3   OH242801   6.623   4.747  11.482  0.3182  0.0496 -0.1870
 7129TIP3    H142802   6.543   4.702  11.507  0.0422 -0.6374 -2.2242
 7129TIP3    H242803   6.605   4.784  11.395  1.7912  0.9021 -0.1540
 7130TIP3   OH242804   6.744   6.602   5.865  0.2910  0.8941 -0.2005
 7130TIP3    H142805   6.693   6.607   5.946  2.9324  3.0338  1.4222
 7130TIP3    H242806   6.804   6.529   5.879 -0.0100  0.5507 -0.6994
 7131TIP3   OH242807   1.282   1.834   2.931  0.4947  0.2631 -0.3521
 7131TIP3    H142808   1.249   1.744   2.928 -0.8067  0.7160 -0.0753
 7131TIP3    H242809   1.307   1.847   3.023 -1.6368  0.9733  0.1536
 7132TIP3   OH242810   5.812   5.319   2.833  0.1288  0.3491  0.1754
 7132TIP3    H142811   5.847   5.407   2.849  2.8982 -0.2661 -2.0657
 7132TIP3    H242812   5.887   5.261   2.842 -1.0267 -1.4491 -1.3276
 7133TIP3   OH242813   1.470   2.403   1.681  0.0659  0.3147 -0.0265
 7133TIP3    H142814   1.475   2.460   1.758  0.2857 -1.1611  1.0870
 7133TIP3    H242815   1.516   2.323   1.708  0.0709 -0.2504 -1.6729
 7134TIP3   OH242816   1.019   1.781   4.480 -0.0241  0.0642 -1.0855
 7134TIP3    H142817   1.110   1.783   4.450  0.6754  2.1483  0.9542
 7134TIP3    H242818   1.019   1.838   4.557 -3.1663  0.4720 -1.3374
 7135TIP3   OH242819   5.236   3.912  13.626 -0.2858 -0.2674  0.0768
 7135TIP3    H142820   5.287   3.837  13.595  0.9042  1.9157 -3.6194
 7135TIP3    H242821   5.300   3.966  13.673 -0.2840  0.1058 -0.3467
 7136TIP3   OH242822   4.425   4.388   0.081 -0.6844  0.1317 -0.4804
 7136TIP3    H142823   4.365   4.372   0.007 -0.8563  1.8763 -0.7489
 7136TIP3    H242824   4.376   4.448   0.138  0.1409  0.1993  0.1512
 7137TIP3   OH242825   4.426   0.541   2.774  0.6397  0.3441  0.8701
 7137TIP3    H142826   4.400   0.627   2.743  0.9922  0.4544  0.8773
 7137TIP3    H242827   4.396   0.481   2.706  0.5811  0.4928  0.7645
 7138TIP3   OH242828   2.831   6.404   2.726  0.0735  0.1726  0.3092
 7138TIP3    H142829   2.883   6.325   2.709  1.6569  0.7190  2.3990
 7138TIP3    H242830   2.796   6.429   2.641  0.4187 -2.1922 -0.5533
 7139TIP3   OH242831   6.246   1.491  15.462 -0.1833 -0.1649  0.6521
 7139TIP3    H142832   6.304   1.524  15.393 -1.2029  0.4616  0.0787
 7139TIP3    H242833   6.304   1.473  15.536  0.5895  1.5321  0.4770
 7140TIP3   OH242834   6.451   4.140  13.801 -0.2720 -0.1485  0.0939
 7140TIP3    H142835   6.469   4.119  13.709  0.2849  2.1609 -0.3662
 7140TIP3    H242836   6.527   4.191  13.829 -1.4123  0.9901  1.1908
 7141TIP3   OH242837   4.655   1.562  14.437 -0.2159 -0.1621 -0.1266
 7141TIP3    H142838   4.669   1.474  14.404  2.9423  0.6530 -1.1940
 7141TIP3    H242839   4.667   1.555  14.532 -0.5402 -0.9843 -0.1496
 7142TIP3   OH242840   2.563   2.853   3.439 -0.0906  0.6651  0.4020
 7142TIP3    H142841   2.580   2.843   3.345 -0.2719  0.2638  0.4098
 7142TIP3    H242842   2.586   2.944   3.458 -3.5148  1.8614 -0.8088
 7143TIP3   OH242843   6.330   0.205  15.730 -0.1780  0.2974 -0.3295
 7143TIP3    H142844   6.403   0.147  15.709  0.7590  1.3343  0.0518
 7143TIP3    H242845   6.265   0.147  15.770  0.4987 -0.5975 -0.4912
 7144TIP3   OH242846   1.973   6.595   4.878  0.1279 -0.3511 -0.6668
 7144TIP3    H142847   1.910   6.653   4.921  1.4975  0.2591  0.5347
 7144TIP3    H242848   2.009   6.542   4.948  0.9119 -0.7536 -1.3682
 7145TIP3   OH242849   4.920   1.274  14.980  0.3494 -0.0232 -0.0559
 7145TIP3    H142850   4.955   1.358  14.950 -0.3719 -0.1859 -1.3398
 7145TIP3    H242851   4.957   1.264  15.068 -0.1590  2.0052  0.4269
 7146TIP3   OH242852   6.183   1.769   2.733  0.3603 -0.0404 -0.3157
 7146TIP3    H142853   6.184   1.857   2.770  0.9503  0.9225 -2.5455
 7146TIP3    H242854   6.259   1.766   2.675 -0.2602 -1.6544 -1.0840
 7147TIP3   OH242855   2.132   1.072   0.905  0.0346 -0.2367 -0.0420
 7147TIP3    H142856   2.179   1.082   0.988 -1.4519  0.1755  0.7697
 7147TIP3    H242857   2.200   1.056   0.840  1.2063 -0.6844  1.2849
 7148TIP3   OH242858   1.888   2.587   1.248  0.2961 -0.0815  0.0546
 7148TIP3    H142859   1.882   2.636   1.330  3.5705 -0.1885  0.4142
 7148TIP3    H242860   1.932   2.647   1.188  1.8265 -1.5818 -0.3275
 7149TIP3   OH242861   1.528   4.541   5.890 -0.4633 -0.8959  0.3824
 7149TIP3    H142862   1.589   4.614   5.896 -1.3952 -0.2256  2.1360
 7149TIP3    H242863   1.572   4.470   5.937  0.3828 -1.4398 -1.2044
 7150TIP3   OH242864   0.745   0.703   2.460  0.1287  0.1492 -0.2030
 7150TIP3    H142865   0.770   0.760   2.388  1.9742 -0.4555 -0.0478
 7150TIP3    H242866   0.726   0.619   2.418  1.3563 -0.2464  0.0315
 7151TIP3   OH242867   4.240   3.037  15.084  0.3051  0.3444 -0.2486
 7151TIP3    H142868   4.312   2.974  15.079  0.2859  0.4900 -2.9138
 7151TIP3    H242869   4.265   3.108  15.025 -1.7691  0.6392 -0.8385
 7152TIP3   OH242870   2.936   6.441   1.114  0.0940  0.2144  0.1571
 7152TIP3    H142871   2.850   6.452   1.073 -0.6656  1.1591  1.9625
 7152TIP3    H242872   2.917   6.429   1.207  1.8770 -0.3527  0.4684
 7153TIP3   OH242873   1.302   5.016   2.846 -0.4374 -0.2302  0.0189
 7153TIP3    H142874   1.217   5.053   2.869 -0.2408 -0.5886  1.3898
 7153TIP3    H242875   1.358   5.092   2.830 -1.3240  0.0080 -2.1958
 7154TIP3   OH242876   2.538   0.496  15.683  0.1779  0.6383  0.3154
 7154TIP3    H142877   2.555   0.584  15.715 -1.1569  1.0093  0.0358
 7154TIP3    H242878   2.625   0.457  15.671  0.7267  0.7162  3.6561
 7155TIP3   OH242879   5.079   5.519  12.814 -0.4174 -0.0736 -0.6385
 7155TIP3    H142880   5.007   5.479  12.765  0.5962 -1.9147 -0.6552
 7155TIP3    H242881   5.123   5.445  12.857 -0.3910  1.3282  1.8616
 7156TIP3   OH242882   1.300   5.086   1.565  0.1886  0.4055 -0.0057
 7156TIP3    H142883   1.297   5.079   1.660  0.1989  2.8382  0.1848
 7156TIP3    H242884   1.393   5.076   1.543  0.2485  0.3694  0.2613
 7157TIP3   OH242885   0.592   3.842   3.145  0.2700 -0.0001 -0.1585
 7157TIP3    H142886   0.623   3.753   3.128 -0.0349 -0.2956  0.8116
 7157TIP3    H242887   0.510   3.830   3.192 -0.8903  0.7846 -1.9125
 7158TIP3   OH242888   4.344   4.568   4.508 -0.1757 -0.1051 -0.1543
 7158TIP3    H142889   4.353   4.491   4.452 -0.7694 -0.2946  0.0079
 7158TIP3    H242890   4.249   4.580   4.517 -0.1027  1.5281 -1.4023
 7159TIP3   OH242891   0.591   0.521   2.769 -1.1224 -0.6196  0.6039
 7159TIP3    H142892   0.594   0.608   2.809  2.0678 -0.0941 -0.5376
 7159TIP3    H242893   0.634   0.464   2.832  2.2154 -0.1421 -1.0801
 7160TIP3   OH242894   0.893   6.639   5.148  0.0607  0.4847  0.2980
 7160TIP3    H142895   0.942   6.657   5.228 -0.3586 -2.0638  1.1864
 7160TIP3    H242896   0.806   6.675   5.164 -0.5248 -1.4516  1.7010
 7161TIP3   OH242897   2.364   2.762  16.473  0.1125  0.0552 -0.2560
 7161TIP3    H142898   2.405   2.811  16.544  0.6153  0.3938 -0.7909
 7161TIP3    H242899   2.367   2.820  16.397 -1.5123  0.1741 -0.2670
 7162TIP3   OH242900   0.324   5.956   4.513  0.2204 -0.7003 -0.1701
 7162TIP3    H142901   0.408   5.924   4.546 -0.3889 -0.3977  1.6961
 7162TIP3    H242902   0.259   5.917   4.570 -0.8797 -0.4639 -1.2476
 7163TIP3   OH242903   0.428   6.200  14.464 -0.4949 -0.0333  0.3293
 7163TIP3    H142904   0.345   6.154  14.459 -1.3729  1.5769 -0.0978
 7163TIP3    H242905   0.408   6.282  14.510  0.8535  0.3599  0.2473
 7164TIP3   OH242906   1.364   4.288  13.738  0.1521 -0.5093 -0.0195
 7164TIP3    H142907   1.295   4.253  13.682  0.2660 -1.0729  0.1905
 7164TIP3    H242908   1.445   4.252  13.701  0.4231  0.8382 -0.7967
 7165TIP3   OH242909   4.159   6.330  13.238  0.5150 -0.6510 -0.1285
 7165TIP3    H142910   4.164   6.299  13.329  0.5261  0.6290  0.3146
 7165TIP3    H242911   4.066   6.349  13.225  0.5032 -0.8984 -0.4158
 7166TIP3   OH242912   4.854   1.196  16.264 -0.0074  0.7014  0.6301
 7166TIP3    H142913   4.880   1.235  16.347 -0.2501  1.5447  0.3105
 7166TIP3    H242914   4.910   1.239  16.199  0.1565  0.0712  0.3501
 7167TIP3   OH242915   2.758   5.132   3.795  0.2028  0.5089 -0.3855
 7167TIP3    H142916   2.790   5.222   3.800 -0.0457  0.6209 -0.7598
 7167TIP3    H242917   2.667   5.138   3.824  0.7319  0.0677  1.4416
 7168TIP3   OH242918   3.300   0.455   3.842 -0.0042 -0.4260 -0.2461
 7168TIP3    H142919   3.381   0.406   3.827  0.4353  0.1168  0.3390
 7168TIP3    H242920   3.230   0.392   3.823  0.5564 -1.1130 -0.0273
 7169TIP3   OH242921   5.958   3.812   3.374 -0.0860 -0.0463 -0.1712
 7169TIP3    H142922   5.878   3.779   3.415  1.0441 -1.5390  0.8903
 7169TIP3    H242923   5.930   3.839   3.286 -1.8037 -0.3215  0.2741
 7170TIP3   OH242924   2.572   2.185  12.595 -0.0270 -0.0985 -0.5860
 7170TIP3    H142925   2.562   2.230  12.678  1.6626  0.7042 -0.7922
 7170TIP3    H242926   2.483   2.174  12.562 -0.7518 -0.9837  1.5972
 7171TIP3   OH242927   3.466   4.426  14.359 -0.7896  0.7784 -0.1172
 7171TIP3    H142928   3.546   4.478  14.354  0.1078 -0.6868 -1.2336
 7171TIP3    H242929   3.429   4.430  14.271 -2.7301  2.6265  0.7356
 7172TIP3   OH242930   3.929   0.701   6.226  0.2806 -0.1929  0.2510
 7172TIP3    H142931   3.965   0.613   6.236 -1.6001 -1.0303 -0.1456
 7172TIP3    H242932   3.954   0.747   6.306 -0.4248 -1.7084  1.3518
 7173TIP3   OH242933   0.602   0.010   1.768  0.0817  0.5005 -0.7367
 7173TIP3    H142934   0.517  -0.016   1.804 -0.0206 -1.6424 -2.4428
 7173TIP3    H242935   0.657   0.025   1.844 -0.7577 -1.7575  0.3449
 7174TIP3   OH242936   2.796   0.764  12.232  0.6676  0.0974  0.1630
 7174TIP3    H142937   2.763   0.750  12.143  1.3551  1.6646 -0.3617
 7174TIP3    H242938   2.877   0.814  12.220  0.6569  0.5071  1.6728
 7175TIP3   OH242939   1.099   2.013   1.723  0.1647 -0.0715 -0.4195
 7175TIP3    H142940   1.006   1.992   1.734 -0.8767  2.6691 -3.2170
 7175TIP3    H242941   1.116   2.081   1.788 -0.0219  0.0652 -0.5128
 7176TIP3   OH242942   4.866   0.994  13.073 -0.0054 -0.1664 -0.3281
 7176TIP3    H142943   4.794   0.938  13.046 -1.6447  0.6634  2.1274
 7176TIP3    H242944   4.927   0.936  13.118 -1.1303 -0.1892  1.1796
 7177TIP3   OH242945   0.095   5.792   2.075  0.3830  0.0904  0.5020
 7177TIP3    H142946   0.179   5.780   2.120  0.5945 -0.8428 -0.1333
 7177TIP3    H242947   0.079   5.709   2.031 -0.7368  0.3641  0.3730
 7178TIP3   OH242948   2.751   0.781  13.308 -0.2135  0.5129  0.2626
 7178TIP3    H142949   2.839   0.752  13.284 -0.4366  0.8097 -0.9725
 7178TIP3    H242950   2.705   0.701  13.333  0.0440  0.1857 -0.2984
 7179TIP3   OH242951   2.556   0.498   0.657 -0.0716  0.1249  0.0310
 7179TIP3    H142952   2.600   0.563   0.712 -1.1869  0.5841  0.3926
 7179TIP3    H242953   2.627   0.458   0.607  0.6734  1.4233  0.0046
 7180TIP3   OH242954   6.137   3.976  12.063  0.5471 -0.4408  0.4284
 7180TIP3    H142955   6.131   4.070  12.045 -0.1006 -1.0954 -3.1935
 7180TIP3    H242956   6.220   3.949  12.024 -0.9199 -1.9607 -1.7833
 7181TIP3   OH242957   1.012   3.140  12.140  0.4433 -0.4940  0.3952
 7181TIP3    H142958   1.080   3.148  12.207  0.4129  0.8678  0.2920
 7181TIP3    H242959   1.040   3.067  12.085  1.5304 -0.2982  0.6822
 7182TIP3   OH242960   6.174   1.992   3.991  0.1825 -0.1069 -0.1962
 7182TIP3    H142961   6.184   2.015   4.083 -1.3656 -0.9645  0.2090
 7182TIP3    H242962   6.090   2.029   3.965 -0.0831 -1.1193 -0.8449
 7183TIP3   OH242963   0.504   2.841   3.317 -0.0450 -0.2402 -0.0965
 7183TIP3    H142964   0.448   2.847   3.394 -0.6038  0.8159 -0.5786
 7183TIP3    H242965   0.469   2.767   3.267  0.2450 -0.8512  0.5873
 7184TIP3   OH242966   3.896   4.399  15.984 -0.5434 -0.2853  0.3100
 7184TIP3    H142967   3.887   4.318  16.034  2.1718 -1.2833 -0.7251
 7184TIP3    H242968   3.935   4.462  16.045 -1.0341 -0.2765  0.6139
 7185TIP3   OH242969   6.770   5.445   0.929 -0.2357  0.1471  0.7801
 7185TIP3    H142970   6.840   5.498   0.967 -0.4180  0.1846  1.0655
 7185TIP3    H242971   6.700   5.507   0.909  0.0285  0.1878 -0.0207
 7186TIP3   OH242972   1.774   1.772   0.576  0.3209 -0.3523  0.4771
 7186TIP3    H142973   1.794   1.844   0.516  1.7948  0.0805  1.4654
 7186TIP3    H242974   1.813   1.695   0.534 -0.6784 -0.4732 -0.2520
 7187TIP3   OH242975   6.623   1.703  12.631  0.6573  0.0763 -0.1989
 7187TIP3    H142976   6.649   1.734  12.545  1.3292 -1.1668 -0.4485
 7187TIP3    H242977   6.681   1.630  12.649 -0.2040 -0.3680  0.8408
 7188TIP3   OH242978   5.188   6.474   0.706 -0.3320 -0.3931  0.6561
 7188TIP3    H142979   5.131   6.408   0.667  0.3205 -0.6142  0.0663
 7188TIP3    H242980   5.152   6.488   0.794  0.5067 -2.7867  1.4304
 7189TIP3   OH242981   6.300   4.968  14.025 -0.4476 -0.4065 -0.0318
 7189TIP3    H142982   6.343   4.913  14.091  1.6334 -0.2256 -1.1684
 7189TIP3    H242983   6.245   4.907  13.976 -2.1171 -0.5118  1.9346
 7190TIP3   OH242984   2.266   0.346  11.174 -0.5349  0.6011  0.0796
 7190TIP3    H142985   2.308   0.405  11.111 -0.2982  1.7857  1.3239
 7190TIP3    H242986   2.173   0.362  11.163 -0.3939  3.8774  2.8610
 7191TIP3   OH242987   2.438   1.649   1.173 -0.0201 -0.6384 -0.1595
 7191TIP3    H142988   2.373   1.716   1.154 -1.4199 -1.7032  0.8228
 7191TIP3    H242989   2.521   1.697   1.179 -1.0903  1.0807  1.0978
 7192TIP3   OH242990   2.782   2.102  12.849  0.2151  0.3506  0.3365
 7192TIP3    H142991   2.779   2.034  12.916 -1.3989 -0.6064 -0.6662
 7192TIP3    H242992   2.873   2.104  12.820  0.5785 -0.3499  1.4184
 7193TIP3   OH242993   3.297   4.321   1.715  0.1271 -0.3214 -0.2581
 7193TIP3    H142994   3.251   4.237   1.718 -1.4921  0.6091  1.6380
 7193TIP3    H242995   3.263   4.364   1.636 -0.1193 -0.8184 -0.4237
 7194TIP3   OH242996   5.447   6.717  11.897  0.5043 -0.3068  0.1242
 7194TIP3    H142997   5.451   6.733  11.991 -0.2070 -0.9688  0.2771
 7194TIP3    H242998   5.354   6.730  11.875  0.7060  0.0597 -0.5264
 7195TIP3   OH242999   6.177   5.332  13.122  0.0343 -0.0430 -0.0569
 7195TIP3    H143000   6.114   5.365  13.058  0.2381 -0.6749 -0.5868
 7195TIP3    H243001   6.176   5.237  13.110 -0.6587 -0.2501  1.5600
 7196TIP3   OH243002   4.865   6.199   0.865 -0.2534  0.0729  0.1064
 7196TIP3    H143003   4.954   6.203   0.832 -0.9108  1.2008 -1.5910
 7196TIP3    H243004   4.851   6.107   0.887 -0.6761 -1.3539 -5.4091
 7197TIP3   OH243005   0.426   5.330   5.656  0.5873  0.1955  0.2768
 7197TIP3    H143006   0.346   5.384   5.657  0.8373  0.5566  0.7185
 7197TIP3    H243007   0.402   5.254   5.602  1.0574  2.0080 -2.5563
 7198TIP3   OH243008   3.538   2.942   2.057 -0.1734 -0.2593 -0.4439
 7198TIP3    H143009   3.487   2.867   2.088  0.8556 -0.2877  1.2678
 7198TIP3    H243010   3.494   3.018   2.094  0.8687 -0.2741  0.9097
 7199TIP3   OH243011   2.743   4.167   2.730 -0.0245 -0.1899 -0.2330
 7199TIP3    H143012   2.718   4.177   2.638 -1.2097 -1.4155 -0.0551
 7199TIP3    H243013   2.835   4.142   2.727 -0.1795 -0.6676 -1.1005
 7200TIP3   OH243014   4.882   5.168  12.465  0.0319 -0.4291  0.0598
 7200TIP3    H143015   4.807   5.108  12.473 -1.2563  1.0921 -0.3582
 7200TIP3    H243016   4.894   5.204  12.553 -0.1119 -0.2369  0.0018
 7201TIP3   OH243017   4.230   1.722   5.669 -0.4990  0.1662 -0.4926
 7201TIP3    H143018   4.144   1.756   5.695 -0.2119 -1.3332  2.8160
 7201TIP3    H243019   4.273   1.795   5.626 -2.7643  1.5027 -0.5908
 7202TIP3   OH243020   5.954   6.315   4.179 -0.2503 -0.2701  0.2171
 7202TIP3    H143021   5.895   6.278   4.114 -0.4619 -1.3472  1.0019
 7202TIP3    H243022   5.898   6.332   4.255  0.3565 -0.9035  0.8149
 7203TIP3   OH243023   4.771   0.829  13.569 -0.4077 -0.2975  0.0874
 7203TIP3    H143024   4.739   0.892  13.504  1.0477 -0.3890 -0.7243
 7203TIP3    H243025   4.760   0.744  13.527 -0.6942 -0.4629  0.4916
 7204TIP3   OH243026   2.705   3.372   0.582  0.4427  0.6531 -0.4308
 7204TIP3    H143027   2.641   3.384   0.652  0.4029  0.9851 -0.5211
 7204TIP3    H243028   2.728   3.462   0.556  2.3389  0.5811  0.9029
 7205TIP3   OH243029   2.536   2.720   1.816  0.2177 -0.0629 -0.3780
 7205TIP3    H143030   2.596   2.777   1.768  0.5597 -3.8363 -4.7902
 7205TIP3    H243031   2.586   2.690   1.892  1.2640  2.6037  0.0208
 7206TIP3   OH243032   4.514   0.281   3.141  0.0815  0.0617  0.3306
 7206TIP3    H143033   4.521   0.186   3.147  0.3811 -0.0275 -1.1907
 7206TIP3    H243034   4.442   0.303   3.200 -0.1343 -1.1200  0.5330
 7207TIP3   OH243035   2.738   6.319   5.023  0.1199 -0.2742  0.7665
 7207TIP3    H143036   2.707   6.409   5.007 -1.5849 -1.3495 -2.4879
 7207TIP3    H243037   2.669   6.279   5.076 -0.6320 -0.5469 -0.3989
 7208TIP3   OH243038   6.309   6.725  17.148  0.2573  0.3905  0.4209
 7208TIP3    H143039   6.265   6.798  17.104 -0.1519 -0.7434 -1.0869
 7208TIP3    H243040   6.388   6.710  17.096 -1.6806 -2.8648 -1.7230
 7209TIP3   OH243041   2.619   4.021   3.822 -0.3371 -0.0109 -0.0979
 7209TIP3    H143042   2.662   3.947   3.864  1.0651  0.8838  0.0810
 7209TIP3    H243043   2.555   4.051   3.886  0.5409  0.2275  0.6746
 7210TIP3   OH243044   6.176   2.014  16.370 -0.0789 -0.2661 -0.3070
 7210TIP3    H143045   6.270   2.000  16.383 -0.0774  1.1248  1.3958
 7210TIP3    H243046   6.134   1.945  16.421  0.0238  0.9151  1.4525
 7211TIP3   OH243047   1.978   2.619   3.042  0.3367 -0.7289  0.2685
 7211TIP3    H143048   1.889   2.612   3.075  1.3812 -1.5252  3.0625
 7211TIP3    H243049   1.994   2.535   2.998  0.3319 -1.3241  1.3989
 7212TIP3   OH243050   0.445   2.254   3.503  0.2132 -0.8324  0.1434
 7212TIP3    H143051   0.363   2.256   3.552 -1.0278  2.2744 -1.8892
 7212TIP3    H243052   0.513   2.257   3.571 -1.3841 -1.0917  1.7896
 7213TIP3   OH243053   4.639   3.706  11.555  0.0013  0.0333  0.9470
 7213TIP3    H143054   4.550   3.714  11.587  0.3971 -0.0377  2.0816
 7213TIP3    H243055   4.631   3.655  11.474 -0.8391 -1.0843  1.7310
 7214TIP3   OH243056   5.905   0.749  13.060  0.8186  0.1851  0.1965
 7214TIP3    H143057   5.972   0.816  13.051  0.4019  0.5163 -0.5414
 7214TIP3    H243058   5.845   0.765  12.986  1.6833 -2.0921 -1.0693
 7215TIP3   OH243059   2.078   4.564  15.472  0.3172 -0.1414  0.2187
 7215TIP3    H143060   2.143   4.519  15.526  0.0296  0.7126  1.2948
 7215TIP3    H243061   2.127   4.593  15.396  1.1947  0.4270  0.9852
 7216TIP3   OH243062   0.465   4.380   4.611  0.2361  0.3248 -0.1309
 7216TIP3    H143063   0.491   4.468   4.638  1.4979  0.0045 -0.2812
 7216TIP3    H243064   0.369   4.384   4.607  0.0835  0.8652  2.7016
 7217TIP3   OH243065   1.786   3.093  11.806 -0.0527  0.6228  0.1273
 7217TIP3    H143066   1.848   3.160  11.836 -1.6004  1.6108  1.1983
 7217TIP3    H243067   1.751   3.056  11.887 -0.0953 -0.6601 -0.4737
 7218TIP3   OH243068   3.152   0.019  17.090 -0.6914  0.2820 -0.1060
 7218TIP3    H143069   3.202   0.101  17.090 -0.0181 -0.0580 -3.2947
 7218TIP3    H243070   3.218  -0.049  17.078 -1.5677 -0.4827 -0.6263
 7219TIP3   OH243071   0.691   3.255   3.465 -0.5810  0.4181  0.2673
 7219TIP3    H143072   0.653   3.250   3.553 -1.4288 -0.3368 -0.1306
 7219TIP3    H243073   0.630   3.205   3.410  0.8362 -0.5472 -0.4416
 7220TIP3   OH243074   5.714   0.381  11.733 -0.2201 -0.2107 -0.3033
 7220TIP3    H143075   5.713   0.296  11.776 -0.1704 -1.1353 -2.1101
 7220TIP3    H243076   5.649   0.373  11.662  0.5229  0.9035 -1.1261
 7221TIP3   OH243077   4.613   4.342  17.125  0.3771 -0.6230  0.3517
 7221TIP3    H143078   4.555   4.377  17.193  0.0039  0.6830 -0.6162
 7221TIP3    H243079   4.701   4.351  17.161  0.2383  0.7948  0.3431
 7222TIP3   OH243080   4.396   3.122   2.615  0.3446  0.5802 -0.0007
 7222TIP3    H143081   4.375   3.099   2.706 -0.9501  0.5103 -0.3054
 7222TIP3    H243082   4.383   3.217   2.611 -0.4948  0.4600 -0.3299
 7223TIP3   OH243083   6.249   5.997   1.762  0.3344 -0.3373 -0.0440
 7223TIP3    H143084   6.251   5.979   1.856 -0.3979 -0.4458 -0.0493
 7223TIP3    H243085   6.198   6.077   1.753  0.0745 -0.5396 -0.3842
 7224TIP3   OH243086   3.636   3.803   6.071 -0.7226 -0.6333 -0.9992
 7224TIP3    H143087   3.625   3.772   6.161 -1.7535  0.4306 -0.7496
 7224TIP3    H243088   3.645   3.898   6.080  1.4783 -0.7200 -1.8325
 7225TIP3   OH243089   2.403   5.279  11.609  0.1872  0.3739  0.1719
 7225TIP3    H143090   2.322   5.293  11.559 -0.9040  2.4239  2.4006
 7225TIP3    H243091   2.469   5.328  11.562 -0.8324  2.3007  0.7027
 7226TIP3   OH243092   2.594   5.650  15.241  0.3771 -0.1947  0.2400
 7226TIP3    H143093   2.536   5.725  15.239  0.4151 -0.1798 -0.6237
 7226TIP3    H243094   2.575   5.606  15.324 -1.6392 -0.7993 -0.5287
 7227TIP3   OH243095   3.940   3.429  14.612 -0.1192 -0.1268  0.0966
 7227TIP3    H143096   3.892   3.412  14.693 -0.9082  2.1555  0.1403
 7227TIP3    H243097   3.873   3.426  14.543  0.2280 -0.1969 -0.2411
 7228TIP3   OH243098   2.773   0.069  16.849  0.4835 -0.0525 -0.1741
 7228TIP3    H143099   2.851   0.106  16.808  0.0561  0.1368 -0.8276
 7228TIP3    H243100   2.805  -0.006  16.900  0.9505 -0.6224 -1.3018
 7229TIP3   OH243101   2.120   3.310   6.103  0.4455 -0.2785  0.8375
 7229TIP3    H143102   2.058   3.264   6.046  0.0735  0.6018  0.5216
 7229TIP3    H243103   2.065   3.368   6.155  0.7661 -1.2318  2.2447
 7230TIP3   OH243104   1.471   4.159   3.822 -0.2027 -0.1337  0.3362
 7230TIP3    H143105   1.526   4.230   3.788  3.3220 -2.2344  1.4515
 7230TIP3    H243106   1.526   4.081   3.818 -3.8857 -2.8350 -0.6060
 7231TIP3   OH243107   0.940   1.005   5.672 -0.1121 -0.5062  0.2585
 7231TIP3    H143108   0.958   1.099   5.668 -0.4860 -0.4998 -1.5606
 7231TIP3    H243109   0.888   0.994   5.752  2.7947  0.3306  2.3148
 7232TIP3   OH243110   3.814   6.008   5.338 -0.0745  0.2015 -0.5251
 7232TIP3    H143111   3.809   5.978   5.428 -0.6631 -0.9941 -0.9462
 7232TIP3    H243112   3.726   6.041   5.318 -0.4351 -1.0914 -1.1736
 7233TIP3   OH243113   3.648   4.536   4.810 -0.4052  0.7506 -0.2474
 7233TIP3    H143114   3.742   4.523   4.796 -0.7529 -1.9711 -0.2642
 7233TIP3    H243115   3.638   4.545   4.904 -0.0599  1.7879 -0.3025
 7234TIP3   OH243116   6.717   4.495   6.430  0.2305 -0.1636  0.0251
 7234TIP3    H143117   6.803   4.533   6.413  0.0831 -0.5643 -1.6945
 7234TIP3    H243118   6.714   4.415   6.377 -1.5526  0.3466 -0.7052
 7235TIP3   OH243119   6.384   4.495  12.139  0.1406  0.2467 -0.7442
 7235TIP3    H143120   6.395   4.420  12.081 -0.5718 -0.3358 -0.1395
 7235TIP3    H243121   6.404   4.571  12.085  0.8870 -0.3792 -1.3612
 7236TIP3   OH243122   0.432   4.552  14.511 -0.4036  0.1520 -0.2545
 7236TIP3    H143123   0.355   4.609  14.507 -0.6847 -0.3188 -1.8714
 7236TIP3    H243124   0.440   4.529  14.603 -0.3527  2.6968  0.4131
 7237TIP3   OH243125   0.364   0.369  16.476 -0.3493  0.4402 -0.8652
 7237TIP3    H143126   0.389   0.443  16.422 -0.7891  1.4122  0.2509
 7237TIP3    H243127   0.446   0.341  16.517 -0.7473  2.5459  1.4605
 7238TIP3   OH243128   5.334   6.255  11.311 -0.1063  0.5070  0.5045
 7238TIP3    H143129   5.244   6.279  11.289 -0.6274 -1.8731 -0.0614
 7238TIP3    H243130   5.326   6.197  11.387  1.0763  1.6679  1.5435
 7239TIP3   OH243131   0.903   6.625  13.762  0.1229 -0.5183  0.2069
 7239TIP3    H143132   0.910   6.713  13.724 -0.0824 -0.3109  0.6436
 7239TIP3    H243133   0.941   6.634  13.850 -1.6563 -0.3933  1.0002
 7240TIP3   OH243134   4.449   3.735   4.984 -0.2245 -0.5713 -0.0117
 7240TIP3    H143135   4.443   3.645   4.952  0.9622 -1.1250  1.2608
 7240TIP3    H243136   4.420   3.788   4.910  2.0144 -1.8339 -1.8715
 7241TIP3   OH243137   0.202   2.107  11.468 -0.4132 -0.4065  0.6146
 7241TIP3    H143138   0.149   2.168  11.520 -1.8855 -0.6424 -0.5932
 7241TIP3    H243139   0.215   2.152  11.384  1.6162 -0.1958  1.0193
 7242TIP3   OH243140   4.498   2.594   2.720 -0.6295 -0.0821  0.0500
 7242TIP3    H143141   4.497   2.652   2.643  0.4469 -0.1419 -0.0161
 7242TIP3    H243142   4.445   2.640   2.785  2.1696  2.2058  0.8434
 7243TIP3   OH243143   0.639   3.640   5.660 -0.1771  0.4010  0.5128
 7243TIP3    H143144   0.604   3.615   5.746 -0.3342 -0.4742  0.1919
 7243TIP3    H243145   0.733   3.647   5.673 -0.1442 -0.2696  0.6187
 7244TIP3   OH243146   0.477   3.562   2.180  0.5384 -0.7025 -0.0708
 7244TIP3    H143147   0.461   3.624   2.108 -1.4590 -2.4632 -1.1946
 7244TIP3    H243148   0.403   3.575   2.239 -0.1653 -2.3658 -0.5717
 7245TIP3   OH243149   4.733   6.290  13.768  0.1348 -0.6814  0.3456
 7245TIP3    H143150   4.766   6.303  13.680  0.0783  0.3447  0.4666
 7245TIP3    H243151   4.810   6.268  13.820 -0.2867 -4.9940 -0.6106
 7246TIP3   OH243152   6.180   1.621   0.698 -0.0397  0.5961 -0.3286
 7246TIP3    H143153   6.179   1.704   0.746  1.7983  1.0431 -1.0378
 7246TIP3    H243154   6.235   1.638   0.621  0.2669 -1.2517 -0.5399
 7247TIP3   OH243155   2.327   6.276  11.785 -0.1714 -0.0442  0.1485
 7247TIP3    H143156   2.255   6.253  11.844  0.9362 -0.8931  1.2022
 7247TIP3    H243157   2.386   6.328  11.840 -0.4520  1.5037 -0.9822
 7248TIP3   OH243158   5.636   5.121  14.309  0.0597  0.2599  0.0395
 7248TIP3    H143159   5.572   5.178  14.266  0.0829 -0.4513 -0.9630
 7248TIP3    H243160   5.642   5.045  14.251  0.4240 -0.5170  1.0997
 7249TIP3   OH243161   1.132   4.568   1.577 -0.6826 -0.6295  0.2057
 7249TIP3    H143162   1.062   4.630   1.596  1.3019  1.2280  1.6407
 7249TIP3    H243163   1.150   4.526   1.661  0.3779 -0.6470 -0.0332
 7250TIP3   OH243164   0.201   2.994  11.905  0.2904  0.8354 -0.1311
 7250TIP3    H143165   0.279   2.939  11.896 -1.1688 -1.2186 -0.5775
 7250TIP3    H243166   0.151   2.977  11.825 -1.8983  0.0007  1.3500
 7251TIP3   OH243167   3.756   0.595  15.594  0.4565  0.8610  0.4298
 7251TIP3    H143168   3.770   0.677  15.546 -0.5139  1.0779  0.5132
 7251TIP3    H243169   3.821   0.535  15.558  0.1998  1.2283 -0.6622
 7252TIP3   OH243170   5.714   2.227  14.518  0.1430  0.2102 -0.3723
 7252TIP3    H143171   5.660   2.305  14.505  0.4983  0.5974  0.4546
 7252TIP3    H243172   5.803   2.260  14.525  0.5684 -0.4671 -2.2256
 7253TIP3   OH243173   3.101   3.320  12.205 -0.1936 -0.6497  0.4994
 7253TIP3    H143174   3.060   3.249  12.254 -0.3419 -1.1726 -0.3655
 7253TIP3    H243175   3.168   3.278  12.152 -0.0193 -0.0928  0.2677
 7254TIP3   OH243176   4.471   3.398   5.151 -0.5510  0.1250  0.2130
 7254TIP3    H143177   4.401   3.348   5.193  0.8152 -2.5581 -0.6511
 7254TIP3    H243178   4.507   3.452   5.222 -1.6912 -0.4650  1.2608
 7255TIP3   OH243179   1.001   2.196  15.604  0.2852  0.2275 -0.4475
 7255TIP3    H143180   1.063   2.192  15.677 -0.0721 -1.3482 -0.2023
 7255TIP3    H243181   0.998   2.106  15.571 -1.6641  0.3367 -0.6140
 7256TIP3   OH243182   0.586   3.806   2.428 -0.4756 -0.1304 -0.2293
 7256TIP3    H143183   0.555   3.852   2.506  0.8537 -0.0042  0.2426
 7256TIP3    H243184   0.605   3.717   2.458 -1.4873 -0.5503 -0.7803
 7257TIP3   OH243185   3.882   2.239  15.502 -0.2340 -0.3678 -0.7560
 7257TIP3    H143186   3.934   2.204  15.574  1.3043  1.3748 -0.9727
 7257TIP3    H243187   3.821   2.169  15.480 -1.0239 -0.7553  2.4942
 7258TIP3   OH243188   6.421   1.734   3.441  0.3147 -0.2145 -0.1025
 7258TIP3    H143189   6.435   1.823   3.409  1.1209 -0.3425 -0.0919
 7258TIP3    H243190   6.458   1.734   3.529 -0.9603 -0.1622  0.4478
 7259TIP3   OH243191   4.529   1.584  13.596 -0.0405  0.2206  0.2314
 7259TIP3    H143192   4.591   1.656  13.588  0.7423 -0.3024  1.4906
 7259TIP3    H243193   4.561   1.533  13.670 -1.5810 -0.4424  0.4549
 7260TIP3   OH243194   5.744   1.421  12.145  0.4897  0.6305 -0.0180
 7260TIP3    H143195   5.757   1.490  12.209  0.3874 -0.3065  1.0214
 7260TIP3    H243196   5.664   1.376  12.174  0.0594  0.6218 -1.1816
 7261TIP3   OH243197   6.139   1.663   1.292  0.5605  0.4371 -0.1086
 7261TIP3    H143198   6.098   1.746   1.316 -1.1193 -0.6434  0.8535
 7261TIP3    H243199   6.092   1.634   1.214  1.1151  0.3676 -0.4183
 7262TIP3   OH243200   3.345   6.713  12.458  0.1000  0.0922  0.4483
 7262TIP3    H143201   3.369   6.763  12.536 -0.3712 -0.1841  0.7697
 7262TIP3    H243202   3.429   6.687  12.420  0.3567  1.2845  0.1688
 7263TIP3   OH243203   1.486   5.427   1.347 -0.2506 -0.3945 -0.1336
 7263TIP3    H143204   1.400   5.412   1.387 -1.2260 -1.0470 -2.4185
 7263TIP3    H243205   1.467   5.458   1.259  1.8645  0.0087 -0.4793
 7264TIP3   OH243206   0.727   3.303  14.271  0.1970  0.1515  0.0995
 7264TIP3    H143207   0.721   3.227  14.213 -1.7697  0.3270  0.0251
 7264TIP3    H243208   0.783   3.365  14.225 -0.3631 -0.2033 -1.0717
 7265TIP3   OH243209   0.475   1.411   5.459  0.8210 -0.1440 -0.0230
 7265TIP3    H143210   0.478   1.371   5.372 -1.3639 -0.1899 -0.1186
 7265TIP3    H243211   0.419   1.489   5.447 -0.0650 -0.5288  1.4707
 7266TIP3   OH243212   0.366   0.502   6.131 -0.1202 -0.3909  0.0173
 7266TIP3    H143213   0.424   0.434   6.096 -1.2004 -1.5829  0.4804
 7266TIP3    H243214   0.318   0.535   6.055 -0.2543 -0.8103 -0.0841
 7267TIP3   OH243215   1.677   0.082  11.177 -0.0364  0.1681  0.1174
 7267TIP3    H143216   1.733   0.046  11.246  3.0416 -1.0627 -2.8914
 7267TIP3    H243217   1.730   0.148  11.133 -1.5823  0.2972 -1.6671
 7268TIP3   OH243218   3.593   6.375  15.032  0.2674  0.3072 -0.1681
 7268TIP3    H143219   3.674   6.340  14.993  0.3020 -0.2374  0.3930
 7268TIP3    H243220   3.579   6.322  15.110  0.1114  1.2978  0.4908
 7269TIP3   OH243221   4.138   3.554  11.717  0.4079  0.3423 -0.5492
 7269TIP3    H143222   4.056   3.579  11.673 -0.4618  0.0518  0.8698
 7269TIP3    H243223   4.127   3.461  11.737  1.8554 -0.1528 -1.9664
 7270TIP3   OH243224   3.376   6.643   4.586 -0.2100  0.0352  0.7580
 7270TIP3    H143225   3.341   6.682   4.506 -0.1351 -2.9040 -0.7768
 7270TIP3    H243226   3.319   6.677   4.656 -0.4888  2.3624 -0.5494
 7271TIP3   OH243227   1.286   3.849  10.787  0.0041 -0.5215  0.0881
 7271TIP3    H143228   1.220   3.858  10.718  0.9189  1.2651 -0.5720
 7271TIP3    H243229   1.370   3.851  10.741  0.6140  0.3120  1.2040
 7272TIP3   OH243230   2.265   3.985  13.223 -0.0790 -0.0760 -0.3221
 7272TIP3    H143231   2.334   3.976  13.289  1.3553 -1.1690 -1.9134
 7272TIP3    H243232   2.312   3.982  13.140 -1.9081  0.7866 -1.4042
 7273TIP3   OH243233   5.684   1.199   3.029 -1.1046 -0.3414  0.3898
 7273TIP3    H143234   5.731   1.228   2.951 -1.6583  0.8469  0.4944
 7273TIP3    H243235   5.752   1.176   3.092 -0.6467 -1.6339 -0.5592
 7274TIP3   OH243236   6.053   4.653  13.113  0.2391 -0.9260 -0.2506
 7274TIP3    H143237   6.043   4.709  13.036  0.7500  0.6590  0.7956
 7274TIP3    H243238   5.965   4.643  13.148  0.1187 -0.9462 -0.5643
 7275TIP3   OH243239   1.830   5.950   0.648 -0.2448 -0.3705  0.3384
 7275TIP3    H143240   1.743   5.989   0.637 -0.1611 -0.3651 -0.3573
 7275TIP3    H243241   1.889   6.025   0.654 -0.0662 -0.3634 -1.1472
 7276TIP3   OH243242   0.648   1.780   2.875  0.2482 -0.6201  0.3348
 7276TIP3    H143243   0.552   1.776   2.870  0.1141  0.4282  1.6144
 7276TIP3    H243244   0.671   1.860   2.827  0.2487  0.5297  2.1764
 7277TIP3   OH243245   1.042   4.072   5.342  0.2134 -0.3963  0.1603
 7277TIP3    H143246   1.087   4.110   5.418  0.8669 -1.3360  0.2615
 7277TIP3    H243247   0.967   4.025   5.379  0.3841 -0.6345  0.2105
 7278TIP3   OH243248   1.467   3.926   0.153  0.2449 -0.0581 -0.0037
 7278TIP3    H143249   1.426   3.839   0.157 -2.1101  1.0656  1.5717
 7278TIP3    H243250   1.424   3.969   0.080 -0.3605  0.6222  0.7440
 7279TIP3   OH243251   1.698   2.491  14.166 -0.2818 -0.2816  0.0943
 7279TIP3    H143252   1.724   2.402  14.143  0.8224 -0.0477  0.4265
 7279TIP3    H243253   1.772   2.546  14.140 -0.8155  0.4994  0.1962
 7280TIP3   OH243254   6.336   2.103  13.770  0.6026  0.5973 -0.0329
 7280TIP3    H143255   6.430   2.086  13.758  0.5101  0.4812 -0.6233
 7280TIP3    H243256   6.313   2.055  13.849  0.9906  0.4230 -0.0215
 7281TIP3   OH243257   4.965   2.580   4.172  0.1135 -0.1825  0.2810
 7281TIP3    H143258   4.951   2.537   4.256 -0.2150 -1.1143 -0.2515
 7281TIP3    H243259   5.033   2.528   4.129  1.2913  1.0979  0.5365
 7282TIP3   OH243260   1.517   4.277  13.162 -0.3428 -0.5458  0.2343
 7282TIP3    H143261   1.518   4.321  13.077  1.2715  2.2682  1.6041
 7282TIP3    H243262   1.457   4.330  13.215  1.7587  0.2175  1.9712
 7283TIP3   OH243263   0.304   1.496  13.742 -0.5486  0.3722  0.0248
 7283TIP3    H143264   0.384   1.547  13.754 -0.2328 -0.0863 -0.0888
 7283TIP3    H243265   0.315   1.421  13.801 -0.3605 -0.3087 -0.8562
 7284TIP3   OH243266   2.592   4.001  12.393  0.1443  0.2229 -0.1383
 7284TIP3    H143267   2.618   4.090  12.414  0.8798 -0.2123  0.8831
 7284TIP3    H243268   2.497   4.006  12.379  0.0602  1.0328  0.6682
 7285TIP3   OH243269   6.552   5.043  11.962  0.3276  0.2249  0.0156
 7285TIP3    H143270   6.520   5.074  11.877  0.2055 -0.1442 -0.0747
 7285TIP3    H243271   6.558   5.121  12.016  2.3200  0.7769 -0.9437
 7286TIP3   OH243272   4.733   4.495   3.361 -0.4299 -0.2729  0.1198
 7286TIP3    H143273   4.642   4.514   3.383 -0.6596 -2.0569  0.8195
 7286TIP3    H243274   4.748   4.408   3.397  1.4881 -0.0914 -0.2145
 7287TIP3   OH243275   1.933   5.426  17.032 -0.0393 -0.2584  1.0557
 7287TIP3    H143276   1.983   5.356  17.076 -0.0228 -0.8008  0.1714
 7287TIP3    H243277   2.000   5.486  17.000 -0.0221 -0.2147  1.1727
 7288TIP3   OH243278   1.114   4.480   4.309 -0.1639  0.5810 -0.5816
 7288TIP3    H143279   1.024   4.490   4.279 -0.3608  0.4479 -0.0491
 7288TIP3    H243280   1.111   4.500   4.403  0.3855  0.7244 -0.5893
 7289TIP3   OH243281   6.497   0.808  13.896 -0.1102  0.4305 -0.0984
 7289TIP3    H143282   6.444   0.762  13.831 -0.4513 -1.9530  1.7874
 7289TIP3    H243283   6.556   0.863  13.845 -0.1571 -1.6165 -2.4316
 7290TIP3   OH243284   4.309   1.117   2.776 -0.2617 -0.1839 -0.4239
 7290TIP3    H143285   4.324   1.088   2.686 -0.3737  0.7555 -0.7492
 7290TIP3    H243286   4.321   1.038   2.829  2.5835 -0.2066 -0.9882
 7291TIP3   OH243287   3.665   1.728  14.922  0.9322  0.5049 -0.1607
 7291TIP3    H143288   3.665   1.769  15.008 -1.6556  0.2283  0.0076
 7291TIP3    H243289   3.723   1.652  14.931  0.4091  0.2862  1.4378
 7292TIP3   OH243290   5.518   5.446  15.771 -0.1024  0.1816 -0.1915
 7292TIP3    H143291   5.491   5.453  15.679 -0.3708  1.6501 -0.0059
 7292TIP3    H243292   5.595   5.389  15.769  0.6142  1.1762 -1.4671
 7293TIP3   OH243293   4.026   3.953  15.371 -0.1608  0.7685 -0.0421
 7293TIP3    H143294   4.083   3.880  15.398  0.2079  1.0008 -0.1894
 7293TIP3    H243295   3.964   3.962  15.443 -1.4408 -0.9760 -0.8925
 7294TIP3   OH243296   2.022   2.699  15.817  0.1931 -0.3928  0.3218
 7294TIP3    H143297   2.016   2.792  15.838  0.3974 -0.5491  1.0568
 7294TIP3    H243298   1.938   2.663  15.842  0.6787 -0.7086  1.5242
 7295TIP3   OH243299   3.017   4.775   5.222  0.1520 -0.2221  0.3500
 7295TIP3    H143300   2.924   4.764   5.243 -0.2308  1.8215 -0.1364
 7295TIP3    H243301   3.056   4.810   5.302  0.0231  1.1139 -0.1497
 7296TIP3   OH243302   2.586   3.113   3.831 -0.0722  0.3553 -0.3099
 7296TIP3    H143303   2.628   3.158   3.757 -0.6334  1.2350 -0.0875
 7296TIP3    H243304   2.493   3.133   3.822 -0.2726 -0.3908  0.0532
 7297TIP3   OH243305   2.080   5.323  16.517  0.1429  0.2063 -0.0412
 7297TIP3    H143306   2.139   5.262  16.560  1.6267  0.1192 -2.1122
 7297TIP3    H243307   2.023   5.268  16.463 -0.7571  0.4143  0.6827
 7298TIP3   OH243308   2.092   3.475  15.243 -0.1131 -0.0032  0.1500
 7298TIP3    H143309   1.999   3.453  15.250  0.1161 -1.1424 -0.2525
 7298TIP3    H243310   2.130   3.446  15.325 -0.0314  0.0267  0.1226
 7299TIP3   OH243311   5.868   1.249   4.845 -0.2453  0.0314  0.3719
 7299TIP3    H143312   5.823   1.311   4.788 -0.7347  0.8457  1.6260
 7299TIP3    H243313   5.960   1.255   4.819 -0.3378  1.0528  0.2680
 7300TIP3   OH243314   2.712   4.076  15.658  0.1982 -0.3141  0.3618
 7300TIP3    H143315   2.801   4.087  15.623  0.3659 -0.9653  0.5827
 7300TIP3    H243316   2.667   4.024  15.591  0.3949 -1.1959  0.9185
 7301TIP3   OH243317   5.899   2.175   0.339  0.0215  0.0088  0.7758
 7301TIP3    H143318   5.905   2.088   0.299 -0.2305  0.4118 -0.1563
 7301TIP3    H243319   5.973   2.224   0.303 -1.5124  1.0921 -1.0323
 7302TIP3   OH243320   3.992   1.870   1.340 -0.1334  0.5083  0.5969
 7302TIP3    H143321   4.031   1.933   1.279 -0.7522  0.1080 -0.2303
 7302TIP3    H243322   3.898   1.887   1.333 -0.1411  1.4692  2.5599
 7303TIP3   OH243323   4.491   5.762  14.026  0.3408 -0.3441  0.4802
 7303TIP3    H143324   4.409   5.740  14.070  0.4072 -2.1414 -0.2992
 7303TIP3    H243325   4.471   5.841  13.976 -0.2573  0.6030  2.1653
 7304TIP3   OH243326   5.915   2.762   3.919  0.2453 -0.7436 -0.2284
 7304TIP3    H143327   5.836   2.729   3.876 -0.4711 -0.3840  0.7842
 7304TIP3    H243328   5.920   2.712   4.000  0.4192  0.0401  0.2467
 7305TIP3   OH243329   4.944   0.733   5.807 -0.2245  0.2713  0.7118
 7305TIP3    H143330   5.011   0.665   5.812 -1.1959 -0.7631 -0.1675
 7305TIP3    H243331   4.870   0.698   5.854 -0.3046  1.2554  1.3407
 7306TIP3   OH243332   2.028   5.138   1.776  0.6150 -0.7672  0.4774
 7306TIP3    H143333   1.992   5.060   1.735 -1.1602  0.8727 -1.1669
 7306TIP3    H243334   2.074   5.105   1.853 -0.6750 -3.3553  0.1990
 7307TIP3   OH243335   5.038   1.261   6.162  0.2126  0.0729 -0.0131
 7307TIP3    H143336   5.002   1.215   6.237  2.8264 -0.2692  1.0930
 7307TIP3    H243337   5.047   1.352   6.192 -0.2377  0.2662 -0.4623
 7308TIP3   OH243338   5.594   4.249   3.624  0.0731  0.4025  0.7983
 7308TIP3    H143339   5.503   4.243   3.595  0.0489 -0.2634  1.0050
 7308TIP3    H243340   5.629   4.327   3.580 -0.2352 -0.0652 -0.2791
 7309TIP3   OH243341   5.378   2.771   3.966 -0.2635  0.7712  0.0378
 7309TIP3    H143342   5.315   2.760   3.894 -0.9400  1.4519  0.5157
 7309TIP3    H243343   5.327   2.810   4.037  0.2646 -0.4532  1.1063
 7310TIP3   OH243344   1.646   6.218   2.843 -0.3350 -0.5191  0.1716
 7310TIP3    H143345   1.632   6.149   2.779  0.5630 -0.2574 -0.3088
 7310TIP3    H243346   1.707   6.180   2.907  1.6711  0.4590 -1.1224
 7311TIP3   OH243347   6.272   5.028  12.321  0.1843 -0.2070 -0.1601
 7311TIP3    H143348   6.279   4.959  12.255 -1.3058  0.8444 -1.4522
 7311TIP3    H243349   6.254   4.981  12.402 -1.3918 -1.3267 -1.1330
 7312TIP3   OH243350   2.355   0.016   2.590 -0.3902 -0.4824  0.1021
 7312TIP3    H143351   2.418  -0.044   2.548  1.1939  1.3693 -0.2536
 7312TIP3    H243352   2.282   0.021   2.528  0.6213 -0.0744 -1.0863
 7313TIP3   OH243353   5.764   5.024   1.867  0.0879  0.4258  0.1136
 7313TIP3    H143354   5.746   5.108   1.910 -0.6214  1.3758 -1.9809
 7313TIP3    H243355   5.681   4.976   1.873 -0.8482  1.6376 -2.5205
 7314TIP3   OH243356   4.449   2.716   2.125  0.3874  0.3091 -0.1382
 7314TIP3    H143357   4.363   2.680   2.101  0.2638 -0.1665  0.9705
 7314TIP3    H243358   4.448   2.805   2.090 -0.4840  0.2404 -0.3160
 7315TIP3   OH243359   6.137   5.507   0.137 -0.4804 -0.0192  0.4561
 7315TIP3    H143360   6.216   5.468   0.101 -0.4909 -1.2439  1.7296
 7315TIP3    H243361   6.120   5.458   0.217 -2.5544  0.1895  0.1757
 7316TIP3   OH243362   1.131   4.366   3.919 -0.3058  0.0773  0.0026
 7316TIP3    H143363   1.061   4.417   3.960 -1.7594 -1.1822 -0.8190
 7316TIP3    H243364   1.113   4.372   3.825  1.1998  0.4359 -0.2750
 7317TIP3   OH243365   5.864   0.561   1.621  0.1119 -0.2877  0.0316
 7317TIP3    H143366   5.819   0.562   1.537  0.1886  0.6617 -0.0009
 7317TIP3    H243367   5.949   0.520   1.602 -0.0517 -0.4935 -0.2600
 7318TIP3   OH243368   1.416   4.061  15.991 -0.4938 -0.0127 -0.2324
 7318TIP3    H143369   1.368   4.022  16.064  1.6009  0.7133  1.5714
 7318TIP3    H243370   1.383   4.150  15.986  0.4144  0.3888  0.8013
 7319TIP3   OH243371   0.333   4.276  12.740 -0.3895 -0.6371 -0.5083
 7319TIP3    H143372   0.298   4.236  12.819  1.0130 -1.5004 -0.3089
 7319TIP3    H243373   0.385   4.350  12.771  0.8383 -1.4667 -0.5462
 7320TIP3   OH243374   1.566   0.937   0.579 -0.4488  0.2791 -0.2769
 7320TIP3    H143375   1.566   0.843   0.593  0.8614  0.5161  1.6185
 7320TIP3    H243376   1.500   0.971   0.640 -0.9016  0.5838 -0.9338
 7321TIP3   OH243377   3.055   3.081  11.637 -0.0612 -0.3812 -0.0060
 7321TIP3    H143378   2.980   3.046  11.589  0.0128 -0.9396  0.2796
 7321TIP3    H243379   3.122   3.012  11.631  0.3738  0.0465 -0.1244
 7322TIP3   OH243380   0.181   6.190  14.265  0.3323  0.1428 -0.7929
 7322TIP3    H143381   0.148   6.276  14.292  1.2354  0.1648  0.2548
 7322TIP3    H243382   0.170   6.189  14.170 -2.8132  0.0980 -0.4823
 7323TIP3   OH243383   2.576   4.853  16.872 -0.0023 -0.0717  0.2301
 7323TIP3    H143384   2.596   4.844  16.779 -0.6200  0.2776  0.0639
 7323TIP3    H243385   2.481   4.855  16.876  0.0421  1.1673  0.7556
 7324TIP3   OH243386   3.211   4.584  11.455 -0.2577 -0.0721 -0.1928
 7324TIP3    H143387   3.158   4.589  11.534  0.1093  0.0818  0.0442
 7324TIP3    H243388   3.295   4.548  11.483  0.0224  0.3794 -0.4285
 7325TIP3   OH243389   4.996   2.483   6.546 -0.3320 -0.3859  0.2227
 7325TIP3    H143390   5.086   2.479   6.578 -0.4032  0.6316  0.5457
 7325TIP3    H243391   5.001   2.449   6.456  0.3172 -0.6182  0.3448
 7326TIP3   OH243392   1.768   3.329   1.359  0.1538 -0.0047  0.4268
 7326TIP3    H143393   1.788   3.389   1.287  0.9813 -1.2063 -0.3617
 7326TIP3    H243394   1.709   3.379   1.416  1.4781  1.8377  0.2190
 7327TIP3   OH243395   3.970   5.612   3.301 -0.3584 -0.7546 -0.5599
 7327TIP3    H143396   3.911   5.662   3.358 -0.2173  0.1628 -1.1995
 7327TIP3    H243397   4.040   5.582   3.359 -0.1441  0.2905 -0.2686
 7328TIP3   OH243398   1.412   1.017   0.780 -0.3941 -0.4058 -0.1998
 7328TIP3    H143399   1.324   0.980   0.777 -0.5154 -0.1307 -0.0014
 7328TIP3    H243400   1.408   1.083   0.848  0.3285 -1.3318  0.7505
 7329TIP3   OH243401   0.906   0.089  13.123 -0.4398 -0.3223  0.1641
 7329TIP3    H143402   0.902   0.012  13.180 -0.6270 -0.0140  0.5667
 7329TIP3    H243403   0.994   0.123  13.135 -0.2830 -0.5929 -0.1790
 7330TIP3   OH243404   3.544   5.768  12.491 -0.1490  0.1984  0.2939
 7330TIP3    H143405   3.545   5.679  12.528 -1.0160  0.4094  0.8308
 7330TIP3    H243406   3.476   5.766  12.425  0.9246  0.0240 -0.8322
 7331TIP3   OH243407   0.514   6.197  11.823 -0.0459 -0.3445 -0.4527
 7331TIP3    H143408   0.448   6.261  11.797 -0.1117 -0.5264 -0.7319
 7331TIP3    H243409   0.590   6.250  11.846  0.4743 -0.2340 -2.3319
 7332TIP3   OH243410   1.035   2.463  16.455  0.5799  0.0422  0.6547
 7332TIP3    H143411   0.945   2.435  16.473  0.6649  0.1979  1.3559
 7332TIP3    H243412   1.081   2.448  16.538  1.7557 -2.2087 -0.3400
 7333TIP3   OH243413   6.173   6.017   3.848  0.5774  0.1620 -0.2531
 7333TIP3    H143414   6.202   6.015   3.757  0.7384 -1.0611 -0.1745
 7333TIP3    H243415   6.164   5.925   3.873 -2.6309  0.4829 -0.0270
 7334TIP3   OH243416   1.136   5.799  14.442  0.5003  0.4629 -0.1036
 7334TIP3    H143417   1.185   5.831  14.366  3.4383 -0.0536  1.5265
 7334TIP3    H243418   1.148   5.866  14.509 -1.0842  0.3305  0.3388
 7335TIP3   OH243419   3.217   2.636   5.618  0.1176 -0.3797 -0.5530
 7335TIP3    H143420   3.144   2.581   5.590  0.7606 -0.3060 -2.5054
 7335TIP3    H243421   3.264   2.583   5.682 -0.0643 -1.5636 -1.3743
 7336TIP3   OH243422   1.824   0.614   0.637  0.4721  0.4222 -0.0700
 7336TIP3    H143423   1.860   0.573   0.558  0.6313 -0.3701  0.4052
 7336TIP3    H243424   1.730   0.611   0.625  0.4635 -0.4798  0.1394
 7337TIP3   OH243425   6.163   0.749  15.185 -0.2461 -0.2121  0.3080
 7337TIP3    H143426   6.139   0.707  15.268  0.9937  1.8304  1.7546
 7337TIP3    H243427   6.254   0.721  15.171  0.1512  0.9267  0.6046
 7338TIP3   OH243428   4.403   0.473  12.064  0.1975 -0.1252  0.2413
 7338TIP3    H143429   4.492   0.463  12.098  0.6826 -0.7060 -1.1404
 7338TIP3    H243430   4.362   0.387  12.078  0.3899 -0.3562 -0.6120
 7339TIP3   OH243431   3.558   3.913  15.142  0.1262 -0.0507 -0.0692
 7339TIP3    H143432   3.485   3.851  15.144 -0.0672  0.1506 -0.7030
 7339TIP3    H243433   3.575   3.933  15.234 -1.6471  1.0914  0.0568
 7340TIP3   OH243434   4.807   2.112   5.232 -0.0651 -0.2235 -0.1581
 7340TIP3    H143435   4.802   2.068   5.147 -0.8746 -1.3085  0.4455
 7340TIP3    H243436   4.716   2.132   5.254  0.1418  0.0557  0.4634
 7341TIP3   OH243437   4.359   1.305  13.768  0.0667  0.3423 -0.3551
 7341TIP3    H143438   4.369   1.355  13.849  0.3192 -2.0495  1.1215
 7341TIP3    H243439   4.448   1.279  13.745 -0.0753  0.4784 -1.0708
 7342TIP3   OH243440   1.503   0.947  16.258 -0.3262 -0.7769 -0.0481
 7342TIP3    H143441   1.520   0.878  16.195 -0.0850 -0.1652 -0.6582
 7342TIP3    H243442   1.509   1.028  16.208 -0.9391 -0.3230  0.5861
 7343TIP3   OH243443   5.629   3.833  10.599  0.2166  0.6826 -0.3407
 7343TIP3    H143444   5.601   3.742  10.594  0.2124  0.6768 -0.2122
 7343TIP3    H243445   5.564   3.881  10.548  0.9476  0.4481 -1.5203
 7344TIP3   OH243446   0.178   4.218  13.326  0.0353 -0.3092  0.2213
 7344TIP3    H143447   0.147   4.206  13.416  1.5883  1.1858  0.9825
 7344TIP3    H243448   0.146   4.305  13.301 -1.0048 -1.0116 -0.9479
 7345TIP3   OH243449   1.023   6.123  11.568  0.1621 -0.4631 -0.2549
 7345TIP3    H143450   1.029   6.201  11.623 -1.9747 -0.4756  0.0508
 7345TIP3    H243451   1.025   6.050  11.629  0.2965 -0.5660 -0.3831
 7346TIP3   OH243452   0.206   6.149   3.239  0.5278 -0.2528 -0.0861
 7346TIP3    H143453   0.190   6.243   3.250  2.6615 -0.0360  1.4634
 7346TIP3    H243454   0.150   6.123   3.165 -0.5940  2.0809 -0.0898
 7347TIP3   OH243455   0.855   2.988   4.690 -0.4870 -0.1932 -0.3657
 7347TIP3    H143456   0.777   2.998   4.636 -0.3228  0.7953 -0.4279
 7347TIP3    H243457   0.924   3.034   4.642 -0.7956  2.5479  1.6592
 7348TIP3   OH243458   4.147   1.379  10.984 -0.0474  0.0506 -0.0403
 7348TIP3    H143459   4.154   1.410  10.893 -0.2005  0.2401  0.0132
 7348TIP3    H243460   4.227   1.327  10.997 -0.5671 -0.9246 -0.6437
 7349TIP3   OH243461   4.127   5.066  11.749  0.0164  0.0681  0.1266
 7349TIP3    H143462   4.083   5.149  11.731 -0.6386 -0.1581  0.6763
 7349TIP3    H243463   4.183   5.052  11.672  0.4669  1.2345  0.2372
 7350TIP3   OH243464   5.100   3.461   3.582  0.7508  0.4942  0.7088
 7350TIP3    H143465   5.018   3.508   3.575 -1.6250 -3.0767  2.8495
 7350TIP3    H243466   5.094   3.392   3.515  1.9502  0.1690  0.9191
 7351TIP3   OH243467   2.781   2.862   1.782 -0.5247 -0.2799  0.4702
 7351TIP3    H143468   2.857   2.915   1.803 -0.9570  0.5709 -0.1192
 7351TIP3    H243469   2.737   2.908   1.711 -1.7752 -0.5899  1.0210
 7352TIP3   OH243470   0.113   5.066   1.162  0.0930 -0.2750  0.1829
 7352TIP3    H143471   0.093   5.159   1.165 -0.8152 -0.4708  0.6028
 7352TIP3    H243472   0.030   5.024   1.136  0.7607 -0.8845 -1.0207
 7353TIP3   OH243473   2.658   3.761  16.078  0.0010  0.0250 -0.5476
 7353TIP3    H143474   2.673   3.745  15.985 -0.7020  0.0868 -0.6756
 7353TIP3    H243475   2.566   3.737  16.091  0.2212 -0.4156  0.2218
 7354TIP3   OH243476   3.676   2.237   4.476 -1.3416 -0.8363  0.4581
 7354TIP3    H143477   3.771   2.235   4.488 -1.4136 -0.3335  1.1689
 7354TIP3    H243478   3.653   2.330   4.482 -1.6104 -0.7087 -1.9701
 7355TIP3   OH243479   3.837   0.038  10.865 -0.0706 -0.0850  0.3307
 7355TIP3    H143480   3.890   0.032  10.785 -3.1465  0.2614 -1.8168
 7355TIP3    H243481   3.802  -0.050  10.877 -0.1403  0.0215  0.9020
 7356TIP3   OH243482   2.376   2.275   1.495 -0.0971 -0.3579 -0.1184
 7356TIP3    H143483   2.445   2.322   1.448 -0.4502 -0.9578 -1.2402
 7356TIP3    H243484   2.423   2.219   1.557  0.4097 -0.3801 -0.5193
 7357TIP3   OH243485   2.487   0.316  11.982  0.2758 -0.5868  0.5751
 7357TIP3    H143486   2.482   0.321  11.886 -0.4368  0.1912  0.6444
 7357TIP3    H243487   2.472   0.224  12.002 -0.9240 -0.5345  0.0027
 7358TIP3   OH243488   0.132   3.979  15.553  0.0214  0.3166  0.2145
 7358TIP3    H143489   0.115   3.991  15.459  0.6131 -1.1240 -0.0899
 7358TIP3    H243490   0.046   3.961  15.590 -0.2762  1.2966  0.0235
 7359TIP3   OH243491   2.241   2.811   4.717  0.0726 -0.1631  0.2621
 7359TIP3    H143492   2.240   2.758   4.796 -0.9360 -0.3626  0.1224
 7359TIP3    H243493   2.216   2.899   4.747 -1.4719 -0.5035 -0.0165
 7360TIP3   OH243494   4.346   1.462  10.391  0.4476 -0.3575  0.1069
 7360TIP3    H143495   4.378   1.495  10.476  0.1504  0.0446  0.0701
 7360TIP3    H243496   4.301   1.381  10.413 -0.0484 -0.0095  0.4113
 7361TIP3   OH243497   1.347   2.681   1.088  0.4437  0.0749  0.5335
 7361TIP3    H143498   1.429   2.697   1.136  0.9528  1.0819 -0.6486
 7361TIP3    H243499   1.298   2.762   1.099  0.9909  0.6919 -1.4779
 7362TIP3   OH243500   4.525   1.712   0.882 -0.0529  0.2560  0.0929
 7362TIP3    H143501   4.590   1.751   0.824 -0.2792  0.7029  0.1383
 7362TIP3    H243502   4.555   1.622   0.895 -1.2489 -0.5843 -2.6187
 7363TIP3   OH243503   4.342   3.088  11.183 -0.1782 -0.6209  0.3544
 7363TIP3    H143504   4.380   3.064  11.098 -0.9686 -1.4830  0.2384
 7363TIP3    H243505   4.386   3.031  11.246 -0.7731 -1.1462  0.3049
 7364TIP3   OH243506   5.572   6.638   1.015  0.3804  0.6033 -1.0998
 7364TIP3    H143507   5.491   6.634   1.065  1.1196  0.6127  0.1211
 7364TIP3    H243508   5.550   6.599   0.931 -0.9821  0.9452 -0.9102
 7365TIP3   OH243509   4.941   3.964   0.272  0.3047  0.3005  0.3431
 7365TIP3    H143510   4.925   3.869   0.267  3.2343 -0.2029 -0.3211
 7365TIP3    H243511   4.995   3.974   0.350 -0.4830  1.5172  0.7343
 7366TIP3   OH243512   3.144   1.280  13.482 -0.0646 -0.2764  0.1979
 7366TIP3    H143513   3.049   1.289  13.491 -0.0741  2.3534 -1.8905
 7366TIP3    H243514   3.164   1.315  13.395  2.7422 -1.4354  0.3215
 7367TIP3   OH243515   6.324   1.388  13.361 -0.2870  0.0678 -0.0439
 7367TIP3    H143516   6.401   1.427  13.320 -0.5418  0.6978  0.0714
 7367TIP3    H243517   6.281   1.461  13.404 -0.4543 -0.4512  0.6677
 7368TIP3   OH243518   4.094   2.886  13.474 -0.6087  0.7773 -0.2131
 7368TIP3    H143519   4.014   2.840  13.450  0.0102 -1.5828  2.0556
 7368TIP3    H243520   4.160   2.853  13.412 -1.0671  1.8065 -1.2823
 7369TIP3   OH243521   5.952   4.025   1.498  0.1532 -0.3977 -0.4872
 7369TIP3    H143522   5.938   3.933   1.476 -0.3712 -0.5743  0.5747
 7369TIP3    H243523   6.028   4.024   1.557  0.6516 -0.0643 -1.1124
 7370TIP3   OH243524   6.693   5.770  11.862  0.6122 -0.5863  0.2197
 7370TIP3    H143525   6.703   5.850  11.811 -1.0552 -0.5418 -0.0638
 7370TIP3    H243526   6.778   5.758  11.905  1.3000  0.5954 -0.7899
 7371TIP3   OH243527   3.141   0.757   3.239  0.3420  0.1499  0.5599
 7371TIP3    H143528   3.184   0.827   3.289 -0.0157  0.7315  0.0684
 7371TIP3    H243529   3.188   0.756   3.155 -1.4177  1.7038 -0.5073
 7372TIP3   OH243530   3.957   4.353  11.037  0.0572 -0.1867  0.4246
 7372TIP3    H143531   4.047   4.363  11.067  0.7241  1.9624 -2.0778
 7372TIP3    H243532   3.935   4.438  10.998 -2.9055 -0.8005  0.6315
 7373TIP3   OH243533   6.397   6.063   1.491 -0.5477  0.1856 -0.0327
 7373TIP3    H143534   6.422   6.156   1.496  0.0353  0.2040 -2.4797
 7373TIP3    H243535   6.361   6.043   1.577  0.0827  2.4714  0.8003
 7374TIP3   OH243536   3.961   6.555   0.446  0.1244 -0.5751 -0.4488
 7374TIP3    H143537   4.000   6.535   0.531  1.2679 -0.8844 -1.0394
 7374TIP3    H243538   4.020   6.514   0.382 -0.6168 -0.1770 -1.4000
 7375TIP3   OH243539   6.337   6.737   0.605  0.1455 -0.3137 -0.5124
 7375TIP3    H143540   6.348   6.642   0.610  3.4295  0.0480  0.8158
 7375TIP3    H243541   6.274   6.758   0.675 -0.3764 -1.4729 -0.6325
 7376TIP3   OH243542   0.171   3.902   5.971 -0.3725  0.0359 -0.2447
 7376TIP3    H143543   0.083   3.874   5.997  0.0169  0.2729  1.3879
 7376TIP3    H243544   0.170   3.997   5.981 -0.2786  0.1550 -1.3404
 7377TIP3   OH243545   4.676   4.299   4.949 -0.5655  0.4928 -0.2128
 7377TIP3    H143546   4.699   4.208   4.931  0.3150  0.1346  2.4702
 7377TIP3    H243547   4.757   4.347   4.937 -0.4687  0.5561  0.6472
 7378TIP3   OH243548   0.161   6.694   3.029 -0.1819  0.0893  0.3748
 7378TIP3    H143549   0.158   6.742   3.112  0.8918 -0.4868  0.7527
 7378TIP3    H243550   0.081   6.642   3.029 -1.5572  2.1090 -0.2004
 7379TIP3   OH243551   3.393   3.133  13.410 -0.1815  0.1197  0.0930
 7379TIP3    H143552   3.315   3.137  13.354  0.3658 -2.7052 -0.9706
 7379TIP3    H243553   3.360   3.151  13.498 -1.2156  3.6446 -0.9463
 7380TIP3   OH243554   5.710   5.125   3.901 -0.0489 -0.2420  0.2876
 7380TIP3    H143555   5.637   5.110   3.841 -1.7140  1.1610  1.9044
 7380TIP3    H243556   5.787   5.093   3.854 -1.5998 -1.0663 -1.7446
 7381TIP3   OH243557   2.197   1.851  12.231 -0.1238  0.2804 -0.3848
 7381TIP3    H143558   2.154   1.786  12.176 -2.1107  1.8759 -0.7964
 7381TIP3    H243559   2.182   1.821  12.321 -1.3530  0.3455 -0.5596
 7382TIP3   OH243560   1.248   1.329   3.059 -0.2392 -0.2037  0.9085
 7382TIP3    H143561   1.214   1.261   3.001  0.7783  0.4041 -0.4167
 7382TIP3    H243562   1.330   1.357   3.018  0.1875  0.6601  2.3172
 7383TIP3   OH243563   4.345   6.132  13.085  0.3652  0.2704  0.1407
 7383TIP3    H143564   4.274   6.196  13.092 -0.3203 -0.5128  0.4113
 7383TIP3    H243565   4.339   6.080  13.165  2.5915  1.5424  1.1710
 7384TIP3   OH243566   2.506   0.406   3.542  0.1816  0.4230  0.0017
 7384TIP3    H143567   2.590   0.425   3.585  1.6016 -0.9329 -2.0785
 7384TIP3    H243568   2.513   0.449   3.457 -1.2180  0.2343 -0.2145
 7385TIP3   OH243569   0.434   2.391  12.403  0.1824 -0.3818  0.7127
 7385TIP3    H143570   0.389   2.308  12.386  0.3818 -0.7012  1.7369
 7385TIP3    H243571   0.526   2.373  12.383 -0.1869  0.4212 -1.9071
 7386TIP3   OH243572   0.211   1.071   3.386 -0.1816  0.1006 -0.2595
 7386TIP3    H143573   0.244   0.995   3.339 -0.4909  0.2433 -0.7094
 7386TIP3    H243574   0.115   1.061   3.386 -0.4573  2.1078 -3.1384
 7387TIP3   OH243575   4.493   5.834   3.300  0.1995 -0.0647 -0.0189
 7387TIP3    H143576   4.486   5.879   3.216  2.4823  0.4475  0.0420
 7387TIP3    H243577   4.412   5.858   3.346 -0.1921  1.2064 -1.3165
 7388TIP3   OH243578   4.394   1.236   2.386  0.8187  0.1579 -0.1454
 7388TIP3    H143579   4.434   1.217   2.301  0.5706 -0.2458 -0.1758
 7388TIP3    H243580   4.324   1.297   2.367  0.6000 -0.1286 -0.2688
 7389TIP3   OH243581   2.956   1.586  11.419  0.3752 -0.5387 -0.3824
 7389TIP3    H143582   3.031   1.583  11.478  0.5385 -2.4444 -0.6537
 7389TIP3    H243583   2.992   1.574  11.331  0.0078  1.0626 -0.7658
 7390TIP3   OH243584   4.191   0.165   0.396 -0.0975  0.0425 -0.1325
 7390TIP3    H143585   4.280   0.138   0.375 -0.5016 -1.6147  0.2270
 7390TIP3    H243586   4.139   0.138   0.321 -0.1319  2.0810 -0.8806
 7391TIP3   OH243587   5.399   0.463   3.938  0.1027  0.1089 -0.2175
 7391TIP3    H143588   5.420   0.377   3.900  0.8284  0.0325  0.3514
 7391TIP3    H243589   5.355   0.510   3.867  1.0403 -0.2008 -1.0135
 7392TIP3   OH243590   2.840   3.059  15.160  1.2794 -0.4260 -0.3744
 7392TIP3    H143591   2.882   2.974  15.174  2.3335 -0.0068 -0.9744
 7392TIP3    H243592   2.881   3.094  15.081  0.2229  0.2556 -0.6389
 7393TIP3   OH243593   0.166   2.173   1.930 -0.0727  0.5176  0.2407
 7393TIP3    H143594   0.209   2.167   1.844 -2.1283  1.5252 -0.9021
 7393TIP3    H243595   0.150   2.082   1.955  0.3601  0.2222 -0.5320
 7394TIP3   OH243596   1.913   0.456  15.512 -0.3044 -0.1832 -0.9374
 7394TIP3    H143597   1.913   0.371  15.555 -0.3647 -0.7394 -2.0100
 7394TIP3    H243598   1.954   0.439  15.427  1.3520  1.2208 -0.4487
 7395TIP3   OH243599   5.715   6.656  16.863  0.0499 -0.6456  0.2499
 7395TIP3    H143600   5.776   6.617  16.925 -0.3129 -1.1379  0.3016
 7395TIP3    H243601   5.760   6.734  16.831 -0.7654  1.0032  2.9823
 7396TIP3   OH243602   5.790   5.561   0.934  0.8027 -0.3246  0.5986
 7396TIP3    H143603   5.710   5.516   0.962  0.3789 -0.2447 -0.4576
 7396TIP3    H243604   5.804   5.532   0.844  1.4220  0.4139  0.4511
 7397TIP3   OH243605   5.406   6.442  14.643  0.1521  0.3739 -0.6939
 7397TIP3    H143606   5.348   6.492  14.586 -1.1175  1.0769  1.1605
 7397TIP3    H243607   5.445   6.508  14.701 -1.3439 -0.7142  1.6068
 7398TIP3   OH243608   6.569   2.290   3.823  0.1996  0.1899  0.2820
 7398TIP3    H143609   6.520   2.369   3.799  1.3494  0.9880  0.5701
 7398TIP3    H243610   6.582   2.245   3.739 -0.0649  0.5188  0.0581
 7399TIP3   OH243611   6.399   2.471   0.276 -0.0024 -0.3431  0.1174
 7399TIP3    H143612   6.433   2.451   0.189  2.2101  0.3083  0.8071
 7399TIP3    H243613   6.398   2.567   0.279  0.6953 -0.3645  1.1041
 7400TIP3   OH243614   4.681   5.202   0.472 -0.3557  0.5671 -0.0440
 7400TIP3    H143615   4.604   5.177   0.422  1.7698  0.1963 -3.2835
 7400TIP3    H243616   4.693   5.130   0.535 -1.2047 -0.6048 -1.1914
 7401TIP3   OH243617   0.013   0.395   3.425  0.1889 -0.2802 -0.0251
 7401TIP3    H143618   0.063   0.452   3.484  0.8529 -0.9844  0.0875
 7401TIP3    H243619   0.058   0.311   3.429 -0.0936 -0.4823 -1.1172
 7402TIP3   OH243620   0.829   4.394  14.054 -0.1638  0.7214 -0.6693
 7402TIP3    H143621   0.754   4.439  14.095 -0.6137  0.0364 -0.7413
 7402TIP3    H243622   0.904   4.448  14.077 -0.6720  1.3750 -0.5294
 7403TIP3   OH243623   4.528   1.012   2.989  0.1066  0.3536 -0.0401
 7403TIP3    H143624   4.486   1.055   3.063  0.7171 -0.4088  0.7617
 7403TIP3    H243625   4.573   1.082   2.942  0.2593  0.7440  0.6885
 7404TIP3   OH243626   0.801   1.312  13.866  0.1851 -0.3258  0.1094
 7404TIP3    H143627   0.786   1.400  13.899 -0.1633  0.0101 -0.9272
 7404TIP3    H243628   0.722   1.290  13.817  0.3483 -1.1428  0.1940
 7405TIP3   OH243629   2.376   5.277  16.330  0.1001 -0.2218  1.0647
 7405TIP3    H143630   2.427   5.296  16.251 -2.1380 -0.2884 -0.4283
 7405TIP3    H243631   2.346   5.363  16.360  0.4868 -0.2516  1.5488
 7406TIP3   OH243632   4.546   2.292   0.783 -0.2260  0.5799 -0.1389
 7406TIP3    H143633   4.531   2.197   0.777  0.6796  0.5892 -3.5011
 7406TIP3    H243634   4.484   2.329   0.720  1.9609  1.9372 -1.5173
 7407TIP3   OH243635   6.600   4.060  12.515  0.4166 -1.1320 -0.1762
 7407TIP3    H143636   6.629   4.084  12.603 -0.5619 -0.9226  0.1001
 7407TIP3    H243637   6.644   3.977  12.497  1.8483 -0.3954 -0.1262
 7408TIP3   OH243638   4.062   1.536  12.822 -0.5792 -0.2627 -0.0972
 7408TIP3    H143639   4.076   1.595  12.747  0.2281  1.8912  1.6832
 7408TIP3    H243640   4.149   1.509  12.848 -0.9000 -1.5172 -0.3148
 7409TIP3   OH243641   6.361   3.296   4.394 -0.0439 -0.6028 -0.3512
 7409TIP3    H143642   6.433   3.338   4.441  0.7139 -0.4624 -1.6027
 7409TIP3    H243643   6.292   3.287   4.459 -0.6839  3.6526 -0.2995
 7410TIP3   OH243644   5.293   0.844  17.039  0.0016 -0.0122 -0.6545
 7410TIP3    H143645   5.205   0.856  17.073 -0.2371  0.2938 -1.3643
 7410TIP3    H243646   5.294   0.754  17.006 -0.3522  0.2888 -1.5103
 7411TIP3   OH243647   0.115   2.444   5.986 -0.3268  0.9268 -0.5537
 7411TIP3    H143648   0.052   2.474   6.053 -0.5527  0.6144 -0.6263
 7411TIP3    H243649   0.162   2.524   5.961 -0.3064  1.0661 -0.0914
 7412TIP3   OH243650   1.365   4.222   1.676  0.0413 -0.0163  0.3320
 7412TIP3    H143651   1.456   4.247   1.692  0.0749  0.9756 -1.2768
 7412TIP3    H243652   1.371   4.151   1.612 -0.2150 -1.8726  2.3146
 7413TIP3   OH243653   1.304   0.393   4.900 -0.3365  0.1545 -0.4037
 7413TIP3    H143654   1.279   0.368   4.811  0.8644  2.4159 -1.4090
 7413TIP3    H243655   1.390   0.352   4.912 -0.2088  0.3919 -0.5160
 7414TIP3   OH243656   5.980   1.613  14.061 -0.2386 -0.0573  0.0576
 7414TIP3    H143657   6.049   1.557  14.099 -0.8810 -0.6836  0.3314
 7414TIP3    H243658   5.900   1.562  14.073 -0.7167  0.5680 -0.4653
 7415TIP3   OH243659   3.373   0.906   3.772  0.1561  0.1974  0.3888
 7415TIP3    H143660   3.333   0.935   3.854  0.0309  0.2576  0.3062
 7415TIP3    H243661   3.330   0.822   3.753  0.4552 -0.0014  0.5823
 7416TIP3   OH243662   2.788   3.931  15.434  0.3922  0.6306 -0.2423
 7416TIP3    H143663   2.709   3.879  15.446  0.1100  1.1053 -0.0137
 7416TIP3    H243664   2.839   3.883  15.369 -1.6198  1.9989 -2.9497
 7417TIP3   OH243665   2.460   2.556   5.633  0.1420  0.0774 -0.3597
 7417TIP3    H143666   2.540   2.604   5.612  0.4083 -0.6430 -1.0314
 7417TIP3    H243667   2.479   2.466   5.609 -0.7662 -0.1575 -0.2326
 7418TIP3   OH243668   1.767   2.571  11.610 -0.1077 -0.1168  0.7958
 7418TIP3    H143669   1.797   2.632  11.677  1.2104  1.2123 -0.9741
 7418TIP3    H243670   1.706   2.622  11.557  0.8982 -0.3642 -0.6139
 7419TIP3   OH243671   5.270   5.150  16.002  0.2107  0.5466 -0.1570
 7419TIP3    H143672   5.179   5.172  15.982  0.5490  1.5827 -0.5952
 7419TIP3    H243673   5.264   5.072  16.057 -0.9403  0.5864 -0.2090
 7420TIP3   OH243674   5.053   3.645  15.452  0.0561  0.3929  0.1335
 7420TIP3    H143675   5.091   3.651  15.365  1.1845  1.0389  0.6511
 7420TIP3    H243676   4.978   3.705  15.450  0.1711  0.5213 -0.3428
 7421TIP3   OH243677   6.460   0.062  11.976 -0.3331 -0.1360 -0.2834
 7421TIP3    H143678   6.369   0.045  12.000 -0.7616  0.1693 -1.6472
 7421TIP3    H243679   6.498  -0.024  11.962 -0.3376 -0.2760  0.5400
 7422TIP3   OH243680   3.452   6.427  11.470  0.0066  0.1547 -0.3327
 7422TIP3    H143681   3.472   6.520  11.457  0.0034  0.0740 -0.9399
 7422TIP3    H243682   3.443   6.392  11.382 -0.9032 -0.2345 -0.0839
 7423TIP3   OH243683   3.630   4.823   3.602  0.2052 -0.2386 -0.6470
 7423TIP3    H143684   3.676   4.761   3.545 -0.2626 -0.3757 -0.8799
 7423TIP3    H243685   3.561   4.860   3.547 -0.5719 -0.7518 -0.0341
 7424TIP3   OH243686   5.459   0.723   5.100 -0.4269  0.0027  0.1576
 7424TIP3    H143687   5.511   0.656   5.145  0.8808  1.3687  0.7714
 7424TIP3    H243688   5.372   0.685   5.091 -0.2289 -1.0296  2.2487
 7425TIP3   OH243689   6.739   0.533   2.915  0.7200  0.7166  0.4469
 7425TIP3    H143690   6.773   0.533   3.005  1.3295  0.6814  0.2212
 7425TIP3    H243691   6.814   0.507   2.861  0.7409  2.0909 -0.2106
 7426TIP3   OH243692   6.089   1.490   2.705  0.2925 -0.1179  0.1129
 7426TIP3    H143693   6.032   1.493   2.781 -0.2686 -0.9637 -0.2734
 7426TIP3    H243694   6.153   1.560   2.720 -0.5083  0.4646  0.8051
 7427TIP3   OH243695   3.545   6.420  17.142 -0.0645 -0.2154 -0.1096
 7427TIP3    H143696   3.491   6.350  17.107  0.5809 -0.3554 -0.8205
 7427TIP3    H243697   3.593   6.455  17.067  0.3272  0.3600  0.3954
 7428TIP3   OH243698   6.706   2.605   6.138  0.0644  0.0116  0.1852
 7428TIP3    H143699   6.763   2.660   6.084 -0.4774  0.7112  0.3145
 7428TIP3    H243700   6.642   2.666   6.174  1.2455 -0.2040  2.7532
 7429TIP3   OH243701   3.145   2.926  11.368  0.4789  0.0181 -0.1460
 7429TIP3    H143702   3.092   2.996  11.331 -0.3077  0.2073  1.2899
 7429TIP3    H243703   3.185   2.883  11.292 -0.4091  0.9157 -1.1403
 7430TIP3   OH243704   1.130   5.462  16.073  0.4724 -0.0981  0.2274
 7430TIP3    H143705   1.118   5.547  16.030  0.9895 -0.0712  0.1240
 7430TIP3    H243706   1.223   5.442  16.060  0.1451 -1.1361 -0.5932
 7431TIP3   OH243707   1.989   3.272   0.852  0.3719  0.3214 -0.2058
 7431TIP3    H143708   1.911   3.289   0.800  0.0118  2.2081  0.8941
 7431TIP3    H243709   2.057   3.325   0.811  0.7102 -0.1659 -0.2765
 7432TIP3   OH243710   5.026   5.630  15.906 -0.6003 -0.1195 -0.0325
 7432TIP3    H143711   5.070   5.638  15.822 -0.1234  4.4367  0.4998
 7432TIP3    H243712   5.097   5.612  15.968 -0.4504 -0.0512 -0.1810
 7433TIP3   OH243713   5.744   1.253   2.472 -0.1974  0.3233  0.0478
 7433TIP3    H143714   5.840   1.254   2.474 -0.2096  2.3454 -0.1980
 7433TIP3    H243715   5.719   1.260   2.564 -0.1260  0.1092  0.0854
 7434TIP3   OH243716   4.362   1.312   0.418 -0.6540  0.4642 -0.3026
 7434TIP3    H143717   4.418   1.260   0.477  0.2700  1.0151 -0.6974
 7434TIP3    H243718   4.320   1.376   0.476  0.4699  1.1873 -0.2867
 7435TIP3   OH243719   6.745   1.278  11.735 -0.1323 -0.3815  0.0834
 7435TIP3    H143720   6.813   1.342  11.755  2.7999 -3.3746  0.1267
 7435TIP3    H243721   6.673   1.300  11.793  1.6706  1.5019  1.6720
 7436TIP3   OH243722   3.818   6.712  12.011 -0.1256  0.9693 -0.2192
 7436TIP3    H143723   3.770   6.652  11.953  0.3592  0.8329 -0.4812
 7436TIP3    H243724   3.825   6.664  12.093 -0.7156  1.1170 -0.0778
 7437TIP3   OH243725   2.697   6.434  13.889 -0.2501 -0.1771 -0.7241
 7437TIP3    H143726   2.674   6.425  13.981 -0.6357 -0.6209 -0.8634
 7437TIP3    H243727   2.643   6.506  13.857 -1.8156 -1.5392 -1.1741
 7438TIP3   OH243728   6.631   5.396  15.265  0.0672  0.6428  0.2737
 7438TIP3    H143729   6.577   5.444  15.328  1.4812  1.0338  1.2197
 7438TIP3    H243730   6.710   5.372  15.315  0.5272 -0.3841 -0.9231
 7439TIP3   OH243731   3.975   0.059   0.256  0.1037  0.4790  0.2486
 7439TIP3    H143732   3.908  -0.004   0.282  0.4979 -0.1371 -0.2336
 7439TIP3    H243733   3.925   0.136   0.227 -0.3826  0.2407  0.4413
 7440TIP3   OH243734   4.156   2.895  11.429  0.4861  0.2893  0.2348
 7440TIP3    H143735   4.179   2.821  11.372 -1.8649 -0.4685  0.1767
 7440TIP3    H243736   4.239   2.934  11.454  1.6761 -1.0546 -1.5177
 7441TIP3   OH243737   1.821   6.011   5.857 -0.3135  0.1642  0.1789
 7441TIP3    H143738   1.900   5.971   5.822  0.1069  1.1790 -0.0303
 7441TIP3    H243739   1.795   5.954   5.929  1.0875  0.2977  0.8030
 7442TIP3   OH243740   0.809   4.581   0.857 -0.0540 -0.2181  0.3726
 7442TIP3    H143741   0.849   4.599   0.772  0.8675  0.2913  0.9060
 7442TIP3    H243742   0.860   4.508   0.893  0.4437  0.4623  1.0769
 7443TIP3   OH243743   4.875   2.047   2.986 -0.4014 -0.2447 -0.3325
 7443TIP3    H143744   4.808   2.103   3.025  0.3769  0.8530 -0.5356
 7443TIP3    H243745   4.843   2.030   2.898 -1.5346 -1.6593  0.3257
 7444TIP3   OH243746   5.275   5.678  15.762 -0.0022 -0.4562  0.7273
 7444TIP3    H143747   5.327   5.754  15.737 -0.5809 -0.1526  0.4380
 7444TIP3    H243748   5.323   5.638  15.835  0.3005  0.1823  0.8769
 7445TIP3   OH243749   0.867   4.637   3.310  0.1585 -0.1599  0.2305
 7445TIP3    H143750   0.805   4.570   3.279 -0.3417 -0.0718  1.0018
 7445TIP3    H243751   0.822   4.720   3.294  0.0672 -0.0970  0.8065
 7446TIP3   OH243752   5.225   5.494  15.141  0.4175 -0.1813  0.0138
 7446TIP3    H143753   5.305   5.474  15.092  0.9696  0.9675  0.4276
 7446TIP3    H243754   5.226   5.433  15.215  1.6952  0.8368  0.8573
 7447TIP3   OH243755   6.564   2.596  16.334  0.4413  0.6632 -0.0784
 7447TIP3    H143756   6.475   2.614  16.365  0.3606  0.6716 -0.3201
 7447TIP3    H243757   6.600   2.535  16.399  0.1052  0.3031 -0.2299
 7448TIP3   OH243758   1.199   3.343   0.146  0.7296  0.0694 -0.5584
 7448TIP3    H143759   1.175   3.264   0.194  0.3082  1.2747  1.2763
 7448TIP3    H243760   1.217   3.408   0.214  0.4162  1.7491 -2.0336
 7449TIP3   OH243761   5.472   6.269  11.075  0.5029 -0.4148 -0.2270
 7449TIP3    H143762   5.444   6.318  11.152 -1.3581  1.4880 -2.0401
 7449TIP3    H243763   5.392   6.231  11.040  1.3077 -1.1865 -1.2787
 7450TIP3   OH243764   5.482   0.833   1.249 -0.6314  0.0677  0.0768
 7450TIP3    H143765   5.530   0.770   1.302  2.8904  1.4025 -1.3424
 7450TIP3    H243766   5.499   0.806   1.158 -2.1097  0.9226 -0.4757
 7451TIP3   OH243767   5.402   3.596  15.360  0.1467  0.5713 -0.4578
 7451TIP3    H143768   5.379   3.673  15.413 -1.9734 -0.0140 -0.4983
 7451TIP3    H243769   5.404   3.628  15.270 -0.1563  0.6994 -0.4190
 7452TIP3   OH243770   0.927   1.692   3.516 -0.0604 -0.2519  0.3518
 7452TIP3    H143771   1.010   1.671   3.559  1.1342  0.5925 -1.4955
 7452TIP3    H243772   0.893   1.608   3.488  0.1225 -0.6167  1.2032
 7453TIP3   OH243773   0.960   6.516  12.748 -0.2118 -0.3178  0.6596
 7453TIP3    H143774   1.049   6.551  12.757 -0.2081 -0.3008  0.5562
 7453TIP3    H243775   0.973   6.421  12.740 -0.1397 -0.2256 -0.3409
 7454TIP3   OH243776   4.454   0.895   3.865 -0.7538  0.7321  1.0810
 7454TIP3    H143777   4.412   0.966   3.818 -0.2737  0.7922  0.7342
 7454TIP3    H243778   4.388   0.826   3.870 -0.9124  0.8457  0.5895
 7455TIP3   OH243779   5.802   5.973   3.455 -0.0028  0.3445 -0.7058
 7455TIP3    H143780   5.870   5.956   3.390 -0.6112 -1.2613 -0.9480
 7455TIP3    H243781   5.816   6.064   3.481  0.3986  0.9178 -2.8836
 7456TIP3   OH243782   5.818   4.311   0.268  0.4430  0.3531 -0.4712
 7456TIP3    H143783   5.735   4.355   0.246  1.3222  2.6675  0.6545
 7456TIP3    H243784   5.856   4.366   0.337  1.8738 -1.9138  0.5794
 7457TIP3   OH243785   2.061   3.776   2.157  0.2306  0.1871  0.1213
 7457TIP3    H143786   2.089   3.848   2.214 -1.8859  1.1218  0.0095
 7457TIP3    H243787   1.974   3.752   2.189 -0.2391 -0.4586 -1.5985
 7458TIP3   OH243788   5.531   3.045   3.789  0.3588  0.9748  0.1261
 7458TIP3    H143789   5.623   3.019   3.790 -0.4263 -2.0073  0.0769
 7458TIP3    H243790   5.508   3.051   3.696 -0.4085 -1.9378  0.0788
 7459TIP3   OH243791   5.938   5.429  13.372  0.4591  0.0132  0.1845
 7459TIP3    H143792   5.898   5.361  13.426 -0.9124  0.3345 -0.4030
 7459TIP3    H243793   5.872   5.499  13.368  0.7443  0.2168 -1.4464
 7460TIP3   OH243794   0.860   1.383  12.685 -0.0349 -0.2572  0.5604
 7460TIP3    H143795   0.915   1.451  12.648  0.1350 -0.7370 -0.0714
 7460TIP3    H243796   0.807   1.428  12.750 -1.3041  0.8458 -1.2109
 7461TIP3   OH243797   1.995   5.454  13.545  0.5587  0.0203  0.6601
 7461TIP3    H143798   2.069   5.392  13.543  2.9287  2.7018  1.7552
 7461TIP3    H243799   2.026   5.530  13.496 -2.7248 -0.0228 -1.6327
 7462TIP3   OH243800   6.167   0.836   0.781 -0.0592 -0.3232 -0.1442
 7462TIP3    H143801   6.086   0.840   0.832 -0.9775 -1.4678 -1.4507
 7462TIP3    H243802   6.168   0.747   0.746  1.6327 -0.2162 -0.3664
 7463TIP3   OH243803   5.275   2.632   2.503  0.2684 -0.5342  0.3959
 7463TIP3    H143804   5.215   2.576   2.552 -1.0916 -0.8228 -1.5153
 7463TIP3    H243805   5.360   2.586   2.507 -0.2606 -1.4839  0.9107
 7464TIP3   OH243806   3.976   6.062   1.600  0.6081 -0.4158  0.5829
 7464TIP3    H143807   3.969   6.104   1.686  0.0878 -0.3829  0.5261
 7464TIP3    H243808   4.054   6.101   1.561  1.7559 -1.6020  1.6761
 7465TIP3   OH243809   3.290   5.912  16.764 -0.0847 -0.8550 -0.1492
 7465TIP3    H143810   3.240   5.959  16.696  0.4175 -0.9333 -0.5817
 7465TIP3    H243811   3.234   5.839  16.790  0.0328 -1.2622 -1.0260
 7466TIP3   OH243812   4.049   6.472   5.702  0.1417  0.1520  0.2331
 7466TIP3    H143813   4.079   6.382   5.711 -0.4552 -0.0775 -0.0037
 7466TIP3    H243814   4.108   6.511   5.637 -0.2118 -0.3643 -0.4120
 7467TIP3   OH243815   2.369   1.571  15.655 -0.5637  0.0095  0.2519
 7467TIP3    H143816   2.377   1.555  15.561  1.2004  0.0982  0.3610
 7467TIP3    H243817   2.451   1.614  15.679 -0.4956 -1.0727  2.0595
 7468TIP3   OH243818   2.916   5.670  14.747  0.3973 -0.2205 -0.0162
 7468TIP3    H143819   2.887   5.760  14.736 -0.0637 -0.3611  0.0262
 7468TIP3    H243820   2.885   5.645  14.834  0.7488 -0.3369  0.0802
 7469TIP3   OH243821   1.235   2.322   0.837 -0.2164 -0.3454 -0.0907
 7469TIP3    H143822   1.280   2.297   0.917  0.0681 -0.4219 -0.2763
 7469TIP3    H243823   1.157   2.368   0.867  0.0487 -0.1022  0.2291
 7470TIP3   OH243824   1.967   1.088   2.903 -0.1206 -0.3198 -0.6031
 7470TIP3    H143825   1.912   1.080   2.826  0.3954 -1.0858 -0.8965
 7470TIP3    H243826   2.056   1.094   2.869  0.0571  0.0236 -0.0935
 7471TIP3   OH243827   3.182   5.562   5.830 -0.3546  0.4092 -0.4172
 7471TIP3    H143828   3.269   5.522   5.827 -0.9833 -1.0278  0.0759
 7471TIP3    H243829   3.145   5.546   5.743 -0.4297  0.3040 -0.3667
 7472TIP3   OH243830   4.489   6.544  10.712  0.1804  0.2020  0.3454
 7472TIP3    H143831   4.537   6.474  10.668  2.0069  1.7965 -0.3113
 7472TIP3    H243832   4.556   6.590  10.763 -0.8993  1.6682  0.4925
 7473TIP3   OH243833   2.645   3.116   3.455 -0.6444  0.3445 -0.1241
 7473TIP3    H143834   2.629   3.180   3.525 -1.0042 -1.2267  1.2472
 7473TIP3    H243835   2.608   3.158   3.377  0.1467  2.3061  0.5135
 7474TIP3   OH243836   5.834   5.928  13.881  0.2556 -0.2037  0.0120
 7474TIP3    H143837   5.893   5.853  13.876  1.2228  0.5425  0.0559
 7474TIP3    H243838   5.872   5.993  13.822  1.0538  1.3244  2.1159
 7475TIP3   OH243839   3.235   5.936   0.541  0.0658 -0.2983  0.0584
 7475TIP3    H143840   3.224   5.981   0.457 -0.4896  3.9215  2.2768
 7475TIP3    H243841   3.330   5.937   0.555  0.3561 -2.9253 -1.4527
 7476TIP3   OH243842   4.833   2.100  11.649  0.0190  0.1552 -0.4738
 7476TIP3    H143843   4.854   2.050  11.571  0.0990  2.1237 -1.7558
 7476TIP3    H243844   4.852   2.191  11.625  1.4826  0.6376  2.3265
 7477TIP3   OH243845   5.745   3.275   3.589  0.0071  0.8502 -0.1182
 7477TIP3    H143846   5.754   3.243   3.679 -0.3046  0.0678 -0.3595
 7477TIP3    H243847   5.829   3.256   3.547 -0.9408 -1.7410 -0.9049
 7478TIP3   OH243848   4.287   3.191   4.284  0.5021 -0.0855 -0.7632
 7478TIP3    H143849   4.281   3.121   4.349 -0.8850 -2.2951 -3.1491
 7478TIP3    H243850   4.236   3.263   4.322 -1.3264 -1.7649  0.0995
 7479TIP3   OH243851   5.606   6.497  11.949 -0.1810 -0.1093  0.4113
 7479TIP3    H143852   5.559   6.572  11.911  1.5335  1.4648  1.2874
 7479TIP3    H243853   5.586   6.424  11.891  0.3063  1.6495 -2.0441
 7480TIP3   OH243854   0.568   3.342  16.806  0.0733  0.0242 -0.2816
 7480TIP3    H143855   0.589   3.290  16.884 -0.4065 -0.9741 -0.8201
 7480TIP3    H243856   0.502   3.405  16.836 -0.2113 -0.4495  0.0865
 7481TIP3   OH243857   6.494   5.739   5.549  0.0403 -0.4130 -0.4744
 7481TIP3    H143858   6.472   5.797   5.476  1.1879 -0.8485 -1.1860
 7481TIP3    H243859   6.438   5.768   5.620 -1.1551 -0.0283 -1.5487
 7482TIP3   OH243860   2.983   6.754   1.983 -0.6064  0.5069  0.1161
 7482TIP3    H143861   3.050   6.696   1.947  0.7573  0.0484  3.2663
 7482TIP3    H243862   2.913   6.753   1.917  0.8544 -1.9592 -1.4855
 7483TIP3   OH243863   3.394   6.561   3.360 -0.2586 -0.0992 -0.0614
 7483TIP3    H143864   3.429   6.520   3.439  0.4565  0.6782  0.0385
 7483TIP3    H243865   3.426   6.651   3.364  1.8789 -0.6836 -2.4626
 7484TIP3   OH243866   2.675   2.058  15.852 -0.0794 -0.2057 -0.2611
 7484TIP3    H143867   2.679   2.002  15.930  1.2131  0.6214  0.2668
 7484TIP3    H243868   2.581   2.073  15.839 -0.4164 -1.9071  0.0014
 7485TIP3   OH243869   5.115   6.058  13.301  0.4885 -0.1822  0.0037
 7485TIP3    H143870   5.071   5.981  13.265  0.7255  0.4931 -1.7850
 7485TIP3    H243871   5.058   6.131  13.277  1.9400  0.5655 -1.2686
 7486TIP3   OH243872   0.383   2.549  16.371 -0.2346  0.3178 -0.1833
 7486TIP3    H143873   0.371   2.457  16.394 -0.2244  0.0679 -1.1600
 7486TIP3    H243874   0.370   2.596  16.453 -0.1072 -0.5648  0.3513
 7487TIP3   OH243875   4.042   1.694   4.529 -0.3936 -0.2524  0.4761
 7487TIP3    H143876   3.967   1.703   4.471  1.0506 -2.1351 -1.7707
 7487TIP3    H243877   4.012   1.637   4.600 -0.9956 -1.1895 -0.5406
 7488TIP3   OH243878   0.878   2.179   5.799 -0.3490  0.3252 -0.5721
 7488TIP3    H143879   0.854   2.258   5.848  0.1270  0.7041 -0.9396
 7488TIP3    H243880   0.894   2.113   5.867 -1.3391  0.3678 -0.2858
 7489TIP3   OH243881   2.846   5.199   4.996 -0.0780 -0.2189  0.2025
 7489TIP3    H143882   2.829   5.276   5.050 -0.1177  0.0851 -0.2413
 7489TIP3    H243883   2.897   5.232   4.922  0.9744 -0.8273  0.6401
 7490TIP3   OH243884   1.263   2.154  15.890 -0.0003 -0.0628 -0.1941
 7490TIP3    H143885   1.250   2.091  15.819 -0.6576  0.1612 -0.2750
 7490TIP3    H243886   1.210   2.230  15.865 -0.3369 -0.0275  0.5934
 7491TIP3   OH243887   5.839   3.959  11.919 -0.4859  0.1125  0.3986
 7491TIP3    H143888   5.883   4.010  11.987  1.6720  0.6726 -1.3697
 7491TIP3    H243889   5.854   3.868  11.944 -0.2565  0.3126  1.0012
 7492TIP3   OH243890   4.581   3.564  16.408 -0.3812  0.7210 -0.1567
 7492TIP3    H143891   4.551   3.651  16.434  0.6458  0.8844  0.5120
 7492TIP3    H243892   4.626   3.530  16.486 -1.4668 -0.7285 -0.1485
 7493TIP3   OH243893   1.578   6.692  13.708 -0.3870 -0.4386 -0.4285
 7493TIP3    H143894   1.555   6.769  13.657  2.4479 -0.4418 -1.8130
 7493TIP3    H243895   1.641   6.644  13.654  2.7563 -0.4326  2.9456
 7494TIP3   OH243896   3.100   6.704   3.740  0.1293  0.1668  0.2343
 7494TIP3    H143897   3.045   6.772   3.778  2.1705  2.4471 -0.7300
 7494TIP3    H243898   3.075   6.624   3.786 -3.7451  1.1560  0.0027
 7495TIP3   OH243899   6.068   3.766   2.119 -0.1276 -0.0621  0.4209
 7495TIP3    H143900   6.156   3.795   2.145  0.2373 -0.0951 -0.7496
 7495TIP3    H243901   6.018   3.847   2.113 -0.1636 -0.0381  1.0551
 7496TIP3   OH243902   1.024   0.620   2.910  0.1212  0.2126  0.7437
 7496TIP3    H143903   1.088   0.674   2.956  1.6087  0.0262 -1.0509
 7496TIP3    H243904   0.997   0.673   2.835 -0.8586 -0.2432  0.7632
 7497TIP3   OH243905   2.295   6.486   1.738  0.1677 -0.0905 -0.0435
 7497TIP3    H143906   2.283   6.572   1.700 -0.5104 -0.1858 -0.0361
 7497TIP3    H243907   2.207   6.452   1.753  0.4198 -0.3944  0.8417
 7498TIP3   OH243908   2.367   5.497  11.786 -0.5846  0.2470  0.3317
 7498TIP3    H143909   2.388   5.422  11.731 -3.1389 -0.7459  0.6178
 7498TIP3    H243910   2.271   5.503  11.782 -0.5101  2.6247  1.4451
 7499TIP3   OH243911   4.778   2.083   3.406  0.2569 -0.0509 -0.4678
 7499TIP3    H143912   4.869   2.088   3.376 -0.2707  1.8359 -1.8728
 7499TIP3    H243913   4.749   2.175   3.408 -1.6855 -0.6562 -0.2256
 7500TIP3   OH243914   2.446   6.175   1.525  0.8645  0.1514  0.2986
 7500TIP3    H143915   2.490   6.097   1.491  0.5022 -0.8466  2.0032
 7500TIP3    H243916   2.469   6.176   1.618 -0.8095  0.9060  0.7257
 7501TIP3   OH243917   3.972   0.448   1.500 -0.0693  0.3389  0.1463
 7501TIP3    H143918   4.067   0.453   1.509  0.0202 -1.8132  0.4719
 7501TIP3    H243919   3.942   0.416   1.585 -0.9406 -0.5741 -0.4993
 7502TIP3   OH243920   0.199   6.406  11.284 -0.3745 -0.3966  0.6201
 7502TIP3    H143921   0.255   6.328  11.283  1.5780  0.9684  0.8913
 7502TIP3    H243922   0.141   6.395  11.209  0.7525 -1.4824 -0.1148
 7503TIP3   OH243923   0.509   3.973  14.112  0.6584  0.4135 -0.4994
 7503TIP3    H143924   0.573   4.034  14.075  0.3579  0.3419 -1.1570
 7503TIP3    H243925   0.433   4.027  14.132  0.5613  0.3333 -0.6495
 7504TIP3   OH243926   4.508   1.065  11.144  0.0473  0.3501 -0.1895
 7504TIP3    H143927   4.598   1.046  11.169 -0.3590 -1.3512  0.0853
 7504TIP3    H243928   4.460   0.984  11.164 -1.9325  1.8872  1.6158
 7505TIP3   OH243929   4.530   6.136   2.776  0.0590 -0.1645  0.3435
 7505TIP3    H143930   4.576   6.155   2.694 -0.0642  1.0120  0.5486
 7505TIP3    H243931   4.466   6.207   2.785 -0.0444 -0.3829  1.3733
 7506TIP3   OH243932   0.412   1.837   4.753 -0.5827  0.1996  0.2129
 7506TIP3    H143933   0.349   1.854   4.684 -0.3070  0.2751 -0.0202
 7506TIP3    H243934   0.373   1.876   4.832 -1.0145 -0.1183  0.1550
 7507TIP3   OH243935   4.804   4.185   4.627  0.0363 -0.0143  0.3139
 7507TIP3    H143936   4.810   4.127   4.551  2.3537  1.5295 -0.7164
 7507TIP3    H243937   4.733   4.246   4.606  0.9652  0.6860 -0.8142
 7508TIP3   OH243938   1.056   3.053   3.172 -0.0882 -0.1344 -0.1336
 7508TIP3    H143939   1.092   2.970   3.139 -2.4531 -1.0631 -0.4233
 7508TIP3    H243940   1.084   3.056   3.263  1.2707 -0.5266 -0.5250
 7509TIP3   OH243941   2.389   4.365  13.583  0.2502 -0.5665  0.0134
 7509TIP3    H143942   2.347   4.296  13.533 -0.4159  0.6102 -1.0976
 7509TIP3    H243943   2.436   4.417  13.517 -0.4801  0.8981  0.6120
 7510TIP3   OH243944   4.053   1.807  14.212 -0.0903 -0.0240  0.1474
 7510TIP3    H143945   4.040   1.867  14.139 -0.4905 -0.0787  0.1724
 7510TIP3    H243946   4.108   1.856  14.274 -0.1682  0.2068  0.0339
 7511TIP3   OH243947   2.780   1.340   2.726  0.6553  0.2294 -0.2711
 7511TIP3    H143948   2.779   1.244   2.725 -1.2237  0.2326 -0.5889
 7511TIP3    H243949   2.872   1.363   2.737  1.7126 -1.6073 -4.1264
 7512TIP3   OH243950   1.563   0.308   4.870 -0.2999 -0.1200 -0.0610
 7512TIP3    H143951   1.606   0.352   4.943  0.1634 -2.2392  1.0099
 7512TIP3    H243952   1.633   0.288   4.808 -0.5367  0.8142 -0.6295
 7513TIP3   OH243953   0.424   2.671   3.134  0.0625 -0.4645 -0.2896
 7513TIP3    H143954   0.331   2.651   3.129 -0.0681 -0.4969  1.6585
 7513TIP3    H243955   0.440   2.732   3.063 -1.8643  1.0593  0.5622
 7514TIP3   OH243956   3.692   6.695   3.258  0.4675 -0.2900  0.0443
 7514TIP3    H143957   3.683   6.652   3.173 -0.3580  1.3530 -0.7187
 7514TIP3    H243958   3.636   6.772   3.252 -0.3029 -0.6172  2.3964
 7515TIP3   OH243959   3.698   5.917  12.793 -0.6373  0.1102 -0.3032
 7515TIP3    H143960   3.673   6.006  12.818  0.7318  0.1193  1.0806
 7515TIP3    H243961   3.732   5.926  12.704  0.8191  1.2192  0.3454
 7516TIP3   OH243962   6.375   6.281   2.167 -0.5017  0.1774  0.3349
 7516TIP3    H143963   6.321   6.271   2.088 -0.0387 -0.8529  0.1372
 7516TIP3    H243964   6.313   6.302   2.236 -1.0444 -0.0437 -0.0827
 7517TIP3   OH243965   3.604   4.828   4.930 -0.2029  0.1457 -0.2523
 7517TIP3    H143966   3.598   4.739   4.964  0.3529 -0.2185 -1.0972
 7517TIP3    H243967   3.659   4.875   4.993 -0.2590 -0.1749  0.0365
 7518TIP3   OH243968   3.105   4.506   4.100  0.5684  0.5712 -0.7238
 7518TIP3    H143969   3.012   4.528   4.100  0.3267 -0.3967 -0.7221
 7518TIP3    H243970   3.113   4.437   4.167  1.7434  2.4697  1.1673
 7519TIP3   OH243971   1.105   1.035  16.559 -0.2210 -0.3224 -0.3916
 7519TIP3    H143972   1.171   0.969  16.536  0.0541 -0.4715  0.7732
 7519TIP3    H243973   1.081   1.014  16.649 -0.9307  0.5168 -0.3782
 7520TIP3   OH243974   5.520   3.916  11.679  0.3517  0.0135 -0.0366
 7520TIP3    H143975   5.471   3.859  11.620 -2.2111  1.9878  0.1113
 7520TIP3    H243976   5.487   3.895  11.766 -0.2468  1.3068  0.0675
 7521TIP3   OH243977   2.105   6.204   3.023  0.2218  0.1601 -0.4088
 7521TIP3    H143978   2.109   6.270   2.954  0.0655 -0.0744 -0.6429
 7521TIP3    H243979   2.029   6.150   3.000  1.1807 -0.9626 -0.9914
 7522TIP3   OH243980   3.808   0.067  14.364  0.0763  0.4976  0.0641
 7522TIP3    H143981   3.775   0.001  14.425 -0.4555  0.4071 -0.3226
 7522TIP3    H243982   3.865   0.020  14.304  0.4983  0.5644  0.4092
 7523TIP3   OH243983   0.137   3.429   4.338 -0.0874  0.3753 -0.2073
 7523TIP3    H143984   0.097   3.486   4.404  3.2651  2.6495 -0.0481
 7523TIP3    H243985   0.110   3.467   4.254 -0.0930  0.5618 -0.1211
 7524TIP3   OH243986   1.791   1.504   5.554 -0.1883 -0.4362 -0.5481
 7524TIP3    H143987   1.721   1.448   5.584 -0.2748 -0.1683 -0.2507
 7524TIP3    H243988   1.835   1.534   5.633 -0.7384  0.6821 -0.6459
 7525TIP3   OH243989   5.632   4.511   2.755 -0.2956  0.1581 -0.5701
 7525TIP3    H143990   5.724   4.503   2.729 -0.1608 -2.0177  0.4835
 7525TIP3    H243991   5.583   4.471   2.683 -0.3992  1.0934 -1.0174
 7526TIP3   OH243992   1.812   1.512  10.788 -0.5459  0.7148  0.1622
 7526TIP3    H143993   1.753   1.545  10.855 -0.5003  0.8118  0.1553
 7526TIP3    H243994   1.827   1.586  10.729 -0.0497  0.8262  0.4244
 7527TIP3   OH243995   0.140   3.204   1.632  0.4955  0.1086  0.4719
 7527TIP3    H143996   0.058   3.164   1.661 -1.2420  1.8749 -1.7795
 7527TIP3    H243997   0.184   3.135   1.584  0.3406 -0.8629  1.6954
 7528TIP3   OH243998   5.658   4.719   2.407  0.2812  0.4222 -0.0583
 7528TIP3    H143999   5.586   4.781   2.403  0.6190  0.7941 -0.3681
 7528TIP3    H244000   5.632   4.647   2.350 -0.1993  0.1828  0.4580
 7529TIP3   OH244001   4.266   0.210  17.055 -0.4332 -0.1876  0.1020
 7529TIP3    H144002   4.220   0.284  17.096 -2.6870 -1.0762 -0.7182
 7529TIP3    H244003   4.203   0.137  17.060  0.3832 -1.1022 -2.2233
 7530TIP3   OH244004   3.447   3.994   5.958  0.0510  0.2977  0.4654
 7530TIP3    H144005   3.452   4.045   6.039 -1.8796  1.7768 -0.3116
 7530TIP3    H244006   3.353   3.990   5.938  0.2680 -2.3838 -0.2610
 7531TIP3   OH244007   1.167   5.189  15.496  0.5338  0.6991  0.1713
 7531TIP3    H144008   1.098   5.206  15.432  0.9654  2.1694  0.0743
 7531TIP3    H244009   1.193   5.098  15.480 -2.4338 -0.3901  1.2467
 7532TIP3   OH244010   2.089   5.339   0.247 -0.4283 -0.1510 -0.4465
 7532TIP3    H144011   2.173   5.353   0.292  0.3916 -2.2200 -1.2901
 7532TIP3    H244012   2.039   5.283   0.307 -1.7291  2.0550  0.6141
 7533TIP3   OH244013   1.046   1.481   0.665  0.3054 -0.0933  0.5823
 7533TIP3    H144014   0.977   1.480   0.731  0.1299  0.0787  0.4024
 7533TIP3    H244015   1.108   1.414   0.693 -0.9453 -1.6738 -0.3537
 7534TIP3   OH244016   4.077   0.160   3.343 -0.6236 -0.3807  0.4300
 7534TIP3    H144017   4.134   0.216   3.396 -0.9152 -0.2632  0.6144
 7534TIP3    H244018   4.037   0.099   3.405  0.5632 -1.5388  0.0815
 7535TIP3   OH244019   5.221   2.978   1.196  0.1804 -0.1100  0.2374
 7535TIP3    H144020   5.170   3.055   1.218  0.5877  0.7408 -1.7059
 7535TIP3    H244021   5.284   2.970   1.268 -1.3446 -0.0023  1.6128
 7536TIP3   OH244022   4.924   1.328   2.978  0.1777  0.3804 -0.1348
 7536TIP3    H144023   5.004   1.290   3.016  0.2288 -0.4170 -1.0221
 7536TIP3    H244024   4.910   1.278   2.898 -0.3713  1.5222 -0.7618
 7537TIP3   OH244025   0.093   5.159   3.026 -0.0863 -0.0974 -0.7592
 7537TIP3    H144026   0.034   5.173   3.100  0.4780  0.7287 -0.4538
 7537TIP3    H244027   0.176   5.198   3.054  1.0444 -2.5021 -0.5915
 7538TIP3   OH244028   5.411   5.358   5.940  0.5600 -0.2653 -0.8371
 7538TIP3    H144029   5.345   5.426   5.926  0.0135 -0.6704 -0.2640
 7538TIP3    H244030   5.382   5.312   6.019  0.5686 -1.5774 -1.5777
 7539TIP3   OH244031   1.184   0.304   5.459  0.0896  0.6505 -0.0148
 7539TIP3    H144032   1.091   0.289   5.470  0.0832  0.5810 -0.1600
 7539TIP3    H244033   1.190   0.384   5.407  0.1055  0.4527 -0.3180
 7540TIP3   OH244034   3.529   2.320  14.384 -0.7106  0.0474  0.7979
 7540TIP3    H144035   3.434   2.325  14.372 -0.5533  2.5802  0.3452
 7540TIP3    H244036   3.561   2.279  14.304 -1.3499  0.0774  0.5226
 7541TIP3   OH244037   6.370   0.769  16.763  0.3400  0.3340  0.2747
 7541TIP3    H144038   6.357   0.820  16.843  3.7871 -1.5450  2.1561
 7541TIP3    H244039   6.353   0.831  16.692 -1.8192  2.3185  2.4565
 7542TIP3   OH244040   1.148   6.739  14.243  0.7334  0.4550  0.0022
 7542TIP3    H144041   1.067   6.694  14.267  0.5415 -0.6734 -2.5168
 7542TIP3    H244042   1.119   6.825  14.213  0.5954  0.4926  0.2394
 7543TIP3   OH244043   4.087   0.488   3.904 -0.0043 -0.6957 -0.0413
 7543TIP3    H144044   4.006   0.483   3.955 -0.0571  0.4503  0.0160
 7543TIP3    H244045   4.060   0.473   3.814 -0.2692 -0.4630 -0.0024
 7544TIP3   OH244046   4.084   1.471   3.349  0.4106  0.3125  0.0496
 7544TIP3    H144047   4.009   1.442   3.297  0.1355  2.5072 -0.8255
 7544TIP3    H244048   4.046   1.496   3.433  0.4834 -0.6609  0.3808
 7545TIP3   OH244049   3.766   6.039  14.226 -0.4210 -0.0033 -0.6864
 7545TIP3    H144050   3.688   6.084  14.192  0.3747  1.9435 -0.0558
 7545TIP3    H244051   3.795   6.095  14.299  2.0458 -0.2236 -1.4641
 7546TIP3   OH244052   5.605   2.223  11.854  0.0165  0.3743  0.3487
 7546TIP3    H144053   5.558   2.303  11.880  0.5565  0.6939  0.3472
 7546TIP3    H244054   5.676   2.216  11.916 -0.6093 -0.6595  0.9615
 7547TIP3   OH244055   4.927   5.109  13.525  0.0529 -0.1607  0.1398
 7547TIP3    H144056   4.900   5.017  13.527 -0.4814 -0.0860 -2.3175
 7547TIP3    H244057   4.915   5.139  13.615 -1.9140 -1.8914  0.5005
 7548TIP3   OH244058   4.361   2.247   6.072 -0.1103  0.1820  0.2211
 7548TIP3    H144059   4.407   2.281   6.148  0.7294  1.6384 -0.9223
 7548TIP3    H244060   4.268   2.248   6.097  0.0966  1.3542  0.9602
 7549TIP3   OH244061   2.470   5.239   1.299 -0.3288 -0.1587  0.7076
 7549TIP3    H144062   2.391   5.287   1.320  0.9121  2.7300 -0.9048
 7549TIP3    H244063   2.489   5.262   1.208  0.7813 -3.1013  0.1353
 7550TIP3   OH244064   2.162   2.531  13.655 -0.4444  0.1382  0.5532
 7550TIP3    H144065   2.249   2.568  13.671  0.1891 -1.1250  0.1241
 7550TIP3    H244066   2.104   2.607  13.651  0.8656  1.1170 -0.5856
 7551TIP3   OH244067   4.368   4.541  16.447 -0.2776 -0.6505  0.7485
 7551TIP3    H144068   4.432   4.550  16.376 -0.9189  1.7145  0.4449
 7551TIP3    H244069   4.418   4.500  16.519  1.5589  1.0389  0.4751
 7552TIP3   OH244070   3.543   5.197  11.154 -0.2566  0.8824  0.1490
 7552TIP3    H144071   3.476   5.197  11.086 -1.2641  0.1213  1.1167
 7552TIP3    H244072   3.572   5.106  11.159 -1.2420  0.6303  1.7214
 7553TIP3   OH244073   5.522   0.111   3.602 -0.0497 -0.1853 -0.1223
 7553TIP3    H144074   5.484   0.100   3.516  0.7746 -1.5102 -0.3308
 7553TIP3    H244075   5.448   0.132   3.659 -0.9848 -1.9394 -0.6558
 7554TIP3   OH244076   0.384   2.177  14.313  0.2544 -0.3677 -0.2286
 7554TIP3    H144077   0.425   2.220  14.388 -1.1674  0.1720  0.2587
 7554TIP3    H244078   0.443   2.194  14.240  0.9367  0.3201  0.4783
 7555TIP3   OH244079   3.933   5.265  10.880 -0.4494 -0.2219  0.1771
 7555TIP3    H144080   3.912   5.347  10.835  2.5205  0.3005 -0.3133
 7555TIP3    H244081   3.894   5.197  10.825 -0.4613  0.6738 -0.9424
 7556TIP3   OH244082   4.021   0.921   5.995 -0.2670  0.1993  0.6008
 7556TIP3    H144083   4.097   0.956   6.041  0.2435  0.4639 -0.4485
 7556TIP3    H244084   4.053   0.897   5.908 -1.2785 -0.1131  0.2993
 7557TIP3   OH244085   1.792   3.869   5.657  0.6105  0.8295 -0.3864
 7557TIP3    H144086   1.700   3.871   5.683  0.8380 -1.9887  0.7173
 7557TIP3    H244087   1.806   3.954   5.614 -2.3183  1.5476 -0.0263
 7558TIP3   OH244088   1.191   2.391   2.859  0.1827 -0.3263  1.0197
 7558TIP3    H144089   1.113   2.447   2.865  0.1028 -0.4818  1.4542
 7558TIP3    H244090   1.159   2.308   2.826  0.8220  0.9399 -3.0583
 7559TIP3   OH244091   1.722   1.467  11.718  0.3157 -0.4146 -0.1756
 7559TIP3    H144092   1.762   1.485  11.633  0.6718 -0.9376 -0.1240
 7559TIP3    H244093   1.712   1.372  11.720 -0.4424 -0.3359  0.0317
 7560TIP3   OH244094   4.979   2.107   3.229  0.5548 -0.0525 -0.1831
 7560TIP3    H144095   5.005   2.200   3.226 -3.1315  1.0397 -0.9592
 7560TIP3    H244096   4.954   2.086   3.139 -0.9083 -1.1096  0.4605
 7561TIP3   OH244097   3.087   3.952   1.164  0.4848  0.8145 -0.2387
 7561TIP3    H144098   3.137   3.925   1.240  0.2343 -1.1134 -0.7385
 7561TIP3    H244099   3.003   3.982   1.199  0.1225 -0.6835  0.1944
 7562TIP3   OH244100   5.679   1.803   1.240 -0.4418  0.0978 -0.2140
 7562TIP3    H144101   5.633   1.863   1.181 -0.3929 -1.5148 -1.9165
 7562TIP3    H244102   5.630   1.721   1.233  0.3685 -0.4980  0.9901
 7563TIP3   OH244103   5.669   0.975  16.308  0.5946 -0.4818 -0.2179
 7563TIP3    H144104   5.742   1.036  16.318 -0.9542  1.2856  0.5846
 7563TIP3    H244105   5.685   0.907  16.374  0.1093  1.3438  1.8207
 7564TIP3   OH244106   2.052   2.673  12.067 -0.3379  0.2612  0.3298
 7564TIP3    H144107   2.105   2.660  12.145  0.9344 -0.7701 -0.6855
 7564TIP3    H244108   2.097   2.742  12.018  1.2519 -1.9724 -1.4956
 7565TIP3   OH244109   5.205   0.919  13.039  0.0314 -0.2777  0.5887
 7565TIP3    H144110   5.197   0.912  12.944  1.1155 -0.5329  0.5095
 7565TIP3    H244111   5.202   0.829  13.070  2.0869 -0.3694  0.5812
 7566TIP3   OH244112   6.579   4.858   4.132  0.2954  0.5844  0.3899
 7566TIP3    H144113   6.604   4.767   4.116  1.4128  0.6739  1.5444
 7566TIP3    H244114   6.557   4.860   4.226  2.6623  2.0294  0.9484
 7567TIP3   OH244115   5.077   5.478  14.908  0.2763  0.4069 -0.2013
 7567TIP3    H144116   5.122   5.513  14.985  2.8366 -1.2731 -0.8223
 7567TIP3    H244117   5.072   5.384  14.925 -1.4670  0.3572 -0.9488
 7568TIP3   OH244118   1.410   1.417   5.120 -0.2564  0.8902 -0.1559
 7568TIP3    H144119   1.355   1.491   5.146  0.0129  0.9859  0.1492
 7568TIP3    H244120   1.472   1.407   5.192 -0.6505  0.0025  0.0583
 7569TIP3   OH244121   4.091   1.214   2.651  0.5083 -0.7499  0.0399
 7569TIP3    H144122   4.161   1.165   2.695  1.0934 -0.6164 -0.7235
 7569TIP3    H244123   4.137   1.268   2.586 -0.3022 -0.6549 -0.4605
 7570TIP3   OH244124   3.605   1.397  12.471  0.3503 -0.1323 -0.0303
 7570TIP3    H144125   3.511   1.412  12.463  0.1075 -1.1347  0.7813
 7570TIP3    H244126   3.642   1.429  12.389 -0.8051 -0.5718 -0.7319
 7571TIP3   OH244127   6.655   4.541   1.727 -0.7186  0.6738  0.3661
 7571TIP3    H144128   6.626   4.545   1.636 -0.5980  0.5173  0.3203
 7571TIP3    H244129   6.685   4.451   1.739  0.9621  1.1599  0.0270
 7572TIP3   OH244130   0.816   1.407   4.769  0.1996 -0.3203  0.5056
 7572TIP3    H144131   0.840   1.500   4.760 -1.1226 -0.1660 -1.7403
 7572TIP3    H244132   0.900   1.363   4.784  0.8009  1.2730  2.0282
 7573TIP3   OH244133   6.209   2.983   4.905 -0.0685 -0.1960  0.1927
 7573TIP3    H144134   6.157   3.059   4.933  0.5023  0.2354  0.0895
 7573TIP3    H244135   6.249   2.950   4.985 -0.9976 -0.9162  0.3732
 7574TIP3   OH244136   4.722   0.546  10.325  0.6815 -0.2234 -0.2145
 7574TIP3    H144137   4.663   0.620  10.337 -1.6539 -1.6965 -2.0716
 7574TIP3    H244138   4.805   0.585  10.298  0.8552  1.9394  3.1756
 7575TIP3   OH244139   4.930   5.999  15.224 -0.6114 -0.3490 -0.3544
 7575TIP3    H144140   4.915   6.018  15.317  0.2892  0.2021 -0.3236
 7575TIP3    H244141   4.913   5.905  15.216  0.2374 -0.5823  0.5554
 7576TIP3   OH244142   5.540   1.833  13.655 -0.5886  0.1235 -0.4547
 7576TIP3    H144143   5.459   1.789  13.629 -1.3749  1.0645  0.3731
 7576TIP3    H244144   5.563   1.887  13.580 -0.3234 -0.7190 -0.9797
 7577TIP3   OH244145   0.162   1.938  12.549  0.2987 -0.4648  0.1344
 7577TIP3    H144146   0.121   1.867  12.499 -1.1770  0.8841 -0.6110
 7577TIP3    H244147   0.243   1.957  12.501 -1.3821  1.2159 -2.1843
 7578TIP3   OH244148   1.806   1.922  14.514  0.2850  0.3329  0.2896
 7578TIP3    H144149   1.752   1.945  14.438  0.4025  1.4893  0.5450
 7578TIP3    H244150   1.832   1.832  14.498  0.2482  0.5360 -1.0159
 7579TIP3   OH244151   1.468   6.366   5.227  0.2011 -0.2272 -0.2836
 7579TIP3    H144152   1.481   6.312   5.149  1.4688 -0.3095 -0.0294
 7579TIP3    H244153   1.550   6.358   5.276 -0.1243  0.7966  0.4589
 7580TIP3   OH244154   1.273   4.913  11.246 -0.5005 -0.1713 -0.2027
 7580TIP3    H144155   1.296   4.886  11.157 -0.2372 -1.8380  0.3484
 7580TIP3    H244156   1.341   4.976  11.271 -0.6829  0.4432 -1.2372
 7581TIP3   OH244157   1.919   5.426   1.000  0.3504  0.2601 -0.1405
 7581TIP3    H144158   1.857   5.488   1.038 -1.6178 -1.8640  0.2339
 7581TIP3    H244159   1.967   5.390   1.075 -0.0087 -0.2425 -0.1520
 7582TIP3   OH244160   3.037   1.754  14.873  0.0099  0.2776  0.0358
 7582TIP3    H144161   3.075   1.768  14.786 -0.4136 -0.0676 -0.2053
 7582TIP3    H244162   2.983   1.832  14.888 -0.5763 -0.0548 -0.3600
 7583TIP3   OH244163   4.260   3.742   3.749 -0.4872  0.7033  0.5194
 7583TIP3    H144164   4.304   3.797   3.814 -2.5287  0.9990  1.6962
 7583TIP3    H244165   4.277   3.653   3.779  1.6742  0.6968 -0.6284
 7584TIP3   OH244166   5.987   1.671  11.614  0.3879  0.1551  0.2824
 7584TIP3    H144167   6.072   1.629  11.625  1.1252  1.6180  0.3903
 7584TIP3    H244168   5.996   1.756  11.659 -1.4344 -0.0555  1.1067
 7585TIP3   OH244169   4.485   4.355  14.329  0.2633 -0.1527 -0.6009
 7585TIP3    H144170   4.404   4.317  14.295 -1.0601  0.5396  1.6744
 7585TIP3    H244171   4.509   4.422  14.265 -1.5889  0.3926 -0.7422
 7586TIP3   OH244172   4.194   6.364  14.765 -0.0558 -0.4935  0.0683
 7586TIP3    H144173   4.271   6.393  14.717 -0.4334 -1.6691 -1.2651
 7586TIP3    H244174   4.125   6.426  14.740 -0.3164 -1.2506 -1.1272
 7587TIP3   OH244175   1.275   2.979   6.365  0.0248 -0.1242 -0.1995
 7587TIP3    H144176   1.356   2.986   6.415 -0.4901 -0.5379  0.7073
 7587TIP3    H244177   1.255   2.885   6.365 -0.6770  0.0177 -0.0477
 7588TIP3   OH244178   2.230   6.066  16.432  0.0584  0.0412  0.2926
 7588TIP3    H144179   2.220   6.013  16.511  2.0567 -1.7651 -0.6118
 7588TIP3    H244180   2.325   6.070  16.419 -0.1418  2.4345 -0.6340
 7589TIP3   OH244181   5.500   3.700   3.604  0.0719 -0.3164 -0.1751
 7589TIP3    H144182   5.540   3.639   3.666  1.0212  0.2786 -0.1939
 7589TIP3    H244183   5.419   3.657   3.576 -1.9978  0.7648  3.8443
 7590TIP3   OH244184   3.934   1.820  12.481 -0.3819 -0.6183 -0.3898
 7590TIP3    H144185   3.865   1.807  12.545 -0.5423 -0.4744 -0.5338
 7590TIP3    H244186   3.892   1.801  12.397 -0.3375 -0.1934 -0.5071
 7591TIP3   OH244187   4.618   2.152  11.344  0.1572  0.2280 -0.6399
 7591TIP3    H144188   4.642   2.077  11.399  0.5539  2.2034  1.9534
 7591TIP3    H244189   4.532   2.179  11.375  0.9213  2.1385 -0.1035
 7592TIP3   OH244190   6.142   5.967  14.609 -0.0865 -0.4322  0.6664
 7592TIP3    H144191   6.048   5.982  14.606  0.0436  0.4661  0.8993
 7592TIP3    H244192   6.152   5.887  14.661 -0.7999 -1.3476 -0.5685
 7593TIP3   OH244193   3.152   2.547  15.154  0.2764 -0.3952 -0.0485
 7593TIP3    H144194   3.145   2.641  15.172 -0.7269 -0.6391  0.9069
 7593TIP3    H244195   3.204   2.542  15.074 -1.2980  1.0759 -1.1993
 7594TIP3   OH244196   6.535   1.435   1.518  0.4555 -0.6064  0.7050
 7594TIP3    H144197   6.618   1.459   1.476 -0.8170  1.2501 -0.8712
 7594TIP3    H244198   6.534   1.484   1.600  0.7251 -0.3072  0.5305
 7595TIP3   OH244199   1.496   2.133   3.248  0.0805 -0.2354 -0.1436
 7595TIP3    H144200   1.449   2.179   3.178 -1.0708 -1.7011 -0.3727
 7595TIP3    H244201   1.514   2.200   3.314 -1.6020  0.5357 -0.4380
 7596TIP3   OH244202   0.496   6.534  16.332  0.2347 -0.0432  0.3512
 7596TIP3    H144203   0.566   6.492  16.282  0.6933  1.4965 -0.3457
 7596TIP3    H244204   0.521   6.626  16.334 -1.4058  0.4043  0.7286
 7597TIP3   OH244205   4.474   4.545  14.139  0.0039  0.7316  0.4644
 7597TIP3    H144206   4.401   4.500  14.096  0.0253  0.8819  0.2770
 7597TIP3    H244207   4.538   4.560  14.070 -0.7705  2.6920  0.1508
 7598TIP3   OH244208   3.465   5.983   5.590  0.2739  0.0456  0.6592
 7598TIP3    H144209   3.487   5.938   5.671  0.6904 -0.4765  0.2665
 7598TIP3    H244210   3.492   6.073   5.605 -1.0620  0.2924  1.6470
 7599TIP3   OH244211   2.276   3.807   1.768  0.2810  0.2512 -0.0334
 7599TIP3    H144212   2.280   3.899   1.741 -1.0609 -0.3830 -2.5485
 7599TIP3    H244213   2.188   3.798   1.806  0.7919  0.2191  1.1851
 7600TIP3   OH244214   5.762   5.677  16.164  0.1632  0.2435  0.4466
 7600TIP3    H144215   5.696   5.639  16.222  1.1227  0.4785  1.7282
 7600TIP3    H244216   5.757   5.625  16.084 -1.3792  0.0913  0.6283
 7601TIP3   OH244217   6.630   4.044   0.798 -0.2357  0.1881 -0.4497
 7601TIP3    H144218   6.726   4.043   0.808 -0.3101  0.3045  0.2961
 7601TIP3    H244219   6.610   3.959   0.757  0.2089  0.2725 -0.8509
 7602TIP3   OH244220   2.176   6.295   5.934 -0.3049 -0.3426 -0.1029
 7602TIP3    H144221   2.099   6.268   5.884 -1.5194 -1.5551  2.3325
 7602TIP3    H244222   2.157   6.385   5.960  0.2361  0.2188 -1.5764
 7603TIP3   OH244223   1.853   0.624   6.042  0.3415  0.1479  0.2385
 7603TIP3    H144224   1.906   0.644   6.119 -0.4268  2.3959  0.1922
 7603TIP3    H244225   1.763   0.620   6.075  0.0844  0.4375 -0.4309
 7604TIP3   OH244226   5.434   4.486   4.908  0.1558  0.5622  0.7326
 7604TIP3    H144227   5.530   4.491   4.898  0.2242 -1.2269  0.2587
 7604TIP3    H244228   5.409   4.409   4.857 -1.5351  0.9267  0.9809
 7605TIP3   OH244229   0.759   5.514  17.112 -0.1179 -0.0727  0.1999
 7605TIP3    H144230   0.843   5.500  17.155 -0.4548 -1.1958  0.5178
 7605TIP3    H244231   0.748   5.609  17.110  1.7253  0.1371 -0.9659
 7606TIP3   OH244232   1.268   1.210   2.786 -0.1645  0.3334 -0.3385
 7606TIP3    H144233   1.230   1.296   2.802 -1.4852 -0.2443 -0.3345
 7606TIP3    H244234   1.207   1.148   2.825  0.4006 -0.6553 -0.9796
 7607TIP3   OH244235   0.410   4.933  15.960  0.2364  0.1023 -0.4392
 7607TIP3    H144236   0.410   5.015  15.910  1.4679  0.6159  0.3740
 7607TIP3    H244237   0.451   4.956  16.043  1.8860 -1.6519 -0.7308
 7608TIP3   OH244238   5.526   2.136  13.543 -0.6431 -0.1657  0.1386
 7608TIP3    H144239   5.581   2.146  13.621 -0.1435 -1.2504 -0.0756
 7608TIP3    H244240   5.588   2.130  13.470 -1.0260 -1.9067 -0.0488
 7609TIP3   OH244241   5.255   1.026  15.604  0.4439  0.7889 -0.1832
 7609TIP3    H144242   5.324   1.076  15.647  0.3512 -1.2299  2.4874
 7609TIP3    H244243   5.302   0.964  15.548  0.9381 -1.2668  2.3998
 7610TIP3   OH244244   2.946   1.690   6.362 -0.4051 -0.0048  0.2207
 7610TIP3    H144245   3.041   1.703   6.372 -0.3635 -0.3528  0.2746
 7610TIP3    H244246   2.913   1.778   6.342 -0.0947  0.1508  0.3696
 7611TIP3   OH244247   0.333   1.096  13.062 -0.0300 -0.4209  0.6397
 7611TIP3    H144248   0.322   1.095  12.967  1.3217 -0.1386  0.4581
 7611TIP3    H244249   0.249   1.069  13.097 -1.3206  1.9079 -0.5676
 7612TIP3   OH244250   3.556   2.493  15.382 -0.2057  0.4427 -0.5420
 7612TIP3    H144251   3.511   2.437  15.446  2.3486 -1.4619 -0.3388
 7612TIP3    H244252   3.533   2.455  15.297 -1.3935  1.3160 -0.6219
 7613TIP3   OH244253   3.152   5.545  11.385 -0.3259 -0.2887 -0.0681
 7613TIP3    H144254   3.246   5.544  11.403 -0.0642  1.1958 -1.2724
 7613TIP3    H244255   3.125   5.635  11.402 -1.3529 -0.5019 -0.5545
 7614TIP3   OH244256   2.990   2.921   5.105 -0.2167 -0.0351  0.5069
 7614TIP3    H144257   2.925   2.931   5.034  0.0282 -3.5741 -0.3077
 7614TIP3    H244258   2.938   2.896   5.181 -0.1708  0.8377  0.8279
 7615TIP3   OH244259   4.466   3.159   3.651  0.2581  0.2605 -0.0222
 7615TIP3    H144260   4.372   3.179   3.655  0.7715  2.5312  0.8544
 7615TIP3    H244261   4.472   3.091   3.584 -2.1178 -0.5686  0.5503
 7616TIP3   OH244262   2.705   5.112  13.476  0.4435 -0.5610 -0.5900
 7616TIP3    H144263   2.646   5.159  13.417 -2.2070 -0.1178  2.2317
 7616TIP3    H244264   2.663   5.026  13.488  0.7163 -0.5098  0.8583
 7617TIP3   OH244265   3.652   4.266  16.094  0.5134  0.5197 -0.8376
 7617TIP3    H144266   3.688   4.350  16.123 -0.4147  0.7791 -0.4253
 7617TIP3    H244267   3.579   4.290  16.038  1.2257 -0.0088 -2.0036
 7618TIP3   OH244268   0.995   3.906  15.310 -0.1189  0.9729 -0.0408
 7618TIP3    H144269   1.007   3.907  15.405 -0.7411  0.0954  0.0545
 7618TIP3    H244270   0.957   3.991  15.290  0.2653  1.2650  0.4618
 7619TIP3   OH244271   5.539   4.108  12.731  0.2076 -0.1144 -0.1265
 7619TIP3    H144272   5.495   4.092  12.815 -0.9071 -0.1960 -0.7137
 7619TIP3    H244273   5.481   4.169  12.685  1.8628  1.6296  0.0031
 7620TIP3   OH244274   5.812   5.925   2.397  0.0321 -0.5082 -0.3998
 7620TIP3    H144275   5.861   5.904   2.477 -0.6825  0.2094  0.2404
 7620TIP3    H244276   5.879   5.954   2.335  0.4337  0.5740  0.5036
 7621TIP3   OH244277   1.268   6.026  11.951 -0.5018  0.1441  0.5044
 7621TIP3    H144278   1.307   5.996  11.869  2.1053 -0.2949  1.8446
 7621TIP3    H244279   1.276   5.951  12.011 -1.3244  0.8239  1.4918
 7622TIP3   OH244280   1.738   0.223   0.043 -0.1336  0.5802  0.1318
 7622TIP3    H144281   1.656   0.177   0.065  0.7061 -0.6455  0.7688
 7622TIP3    H244282   1.710   0.312   0.021 -1.6205  0.2329  0.5247
 7623TIP3   OH244283   2.738   5.385  12.504 -0.3953 -0.1830  0.0115
 7623TIP3    H144284   2.683   5.463  12.496  0.2046  0.2771  0.3316
 7623TIP3    H244285   2.691   5.329  12.566 -0.6196  0.1019  0.1000
 7624TIP3   OH244286   1.659   6.030  16.655  0.4060  0.1224 -0.3639
 7624TIP3    H144287   1.672   6.117  16.693  1.0073  0.2815 -0.9221
 7624TIP3    H244288   1.673   6.043  16.561 -0.5698 -0.3679 -0.5809
 7625TIP3   OH244289   1.640   6.473   2.740 -0.1320  0.5381  0.0709
 7625TIP3    H144290   1.705   6.472   2.671  1.8090 -0.6529  1.8517
 7625TIP3    H244291   1.639   6.383   2.773 -1.6811  0.8644  0.9790
 7626TIP3   OH244292   6.215   5.053   2.936 -0.0382  0.6062 -0.0708
 7626TIP3    H144293   6.162   5.106   2.877 -0.8615  0.3628  0.4393
 7626TIP3    H244294   6.151   5.000   2.984  0.8332 -1.9324 -1.6166
 7627TIP3   OH244295   6.740   5.786  12.892  0.2136 -0.6457  0.0277
 7627TIP3    H144296   6.689   5.706  12.885 -3.9260  1.6179  1.9853
 7627TIP3    H244297   6.690   5.851  12.842  1.9384  1.3615  0.7972
 7628TIP3   OH244298   0.514   0.860  11.816  0.3379  0.7315  0.0885
 7628TIP3    H144299   0.588   0.865  11.755  0.2579 -0.2576 -0.0953
 7628TIP3    H244300   0.488   0.951  11.830  0.2329  0.9627 -1.5104
 7629TIP3   OH244301   6.286   4.144  11.693  0.2346  0.4256 -0.3717
 7629TIP3    H144302   6.256   4.220  11.743  1.5255 -0.9525  2.5779
 7629TIP3    H244303   6.208   4.089  11.683  0.0500  0.5321  0.4696
 7630TIP3   OH244304   0.027   4.578  15.602  0.2068 -0.1196  0.7980
 7630TIP3    H144305   0.048   4.662  15.561  1.7613  0.4278  2.6550
 7630TIP3    H244306  -0.027   4.601  15.678 -0.2711 -0.8929  0.7048
 7631TIP3   OH244307   0.789   2.578   0.341  0.7020 -0.5794  0.4960
 7631TIP3    H144308   0.859   2.576   0.406  1.0550  1.0362  0.1811
 7631TIP3    H244309   0.834   2.572   0.257  0.4607  0.2008  0.3024
 7632TIP3   OH244310   1.939   3.357  13.055  0.3586 -0.0977  0.9981
 7632TIP3    H144311   1.934   3.349  12.960  1.8435 -0.8521  0.9699
 7632TIP3    H244312   1.871   3.299  13.088 -0.2912  0.3156  0.4021
 7633TIP3   OH244313   2.476   2.118  13.213 -0.0903  0.4493  0.3228
 7633TIP3    H144314   2.488   2.028  13.245  0.4271  1.4045  2.9156
 7633TIP3    H244315   2.387   2.119  13.178 -0.2977 -0.9306  0.7843
 7634TIP3   OH244316   6.448   1.657  15.337 -0.4712  0.2566  0.3156
 7634TIP3    H144317   6.419   1.739  15.296 -0.3697  0.9254  1.5374
 7634TIP3    H244318   6.516   1.685  15.398 -1.5774 -0.5385  1.9365
 7635TIP3   OH244319   3.691   1.790   1.307  0.9159  0.2814 -0.2324
 7635TIP3    H144320   3.634   1.867   1.301  1.6463  0.7763 -0.9262
 7635TIP3    H244321   3.678   1.757   1.396 -1.1314 -0.1360 -0.6581
 7636TIP3   OH244322   6.236   2.939  11.196  0.1013  0.0175  0.1493
 7636TIP3    H144323   6.231   2.847  11.168  0.8576 -0.2159  0.7596
 7636TIP3    H244324   6.320   2.945  11.241  0.7019  1.3510 -1.1192
 7637TIP3   OH244325   6.370   0.071   3.466  0.5499  0.2055 -0.1249
 7637TIP3    H144326   6.321  -0.001   3.427  1.2377  0.5691 -1.6957
 7637TIP3    H244327   6.438   0.092   3.402  1.0451  1.5307  0.8026
 7638TIP3   OH244328   5.898   4.368   4.890 -0.0799 -0.2951 -0.3054
 7638TIP3    H144329   5.874   4.291   4.838 -0.5981 -0.7278  0.5728
 7638TIP3    H244330   5.966   4.337   4.949  1.0781  0.3895 -1.2414
 7639TIP3   OH244331   3.726   4.497  14.011  0.0847 -0.8599  0.5253
 7639TIP3    H144332   3.796   4.562  14.005 -0.7635  0.0806  0.6011
 7639TIP3    H244333   3.679   4.504  13.927 -0.9150 -0.3077  1.1130
 7640TIP3   OH244334   5.313   4.885  16.102  0.4408 -0.0272 -0.1879
 7640TIP3    H144335   5.299   4.879  16.197 -1.0932 -0.5916 -0.4241
 7640TIP3    H244336   5.382   4.821  16.084  0.5597 -0.1047  0.5210
 7641TIP3   OH244337   1.701   2.907  12.607 -0.1053  0.1177  0.0600
 7641TIP3    H144338   1.618   2.863  12.587  0.1061  0.8814 -2.5442
 7641TIP3    H244339   1.680   2.963  12.682 -1.0596 -2.2553  1.6392
 7642TIP3   OH244340   0.820   0.771   2.739 -0.2153 -0.5767 -0.7472
 7642TIP3    H144341   0.737   0.724   2.745 -0.5025  0.1914  2.1238
 7642TIP3    H244342   0.823   0.804   2.650 -1.8733 -2.6056 -1.6032
 7643TIP3   OH244343   2.179   1.828   4.003  0.0709 -0.2583 -0.0148
 7643TIP3    H144344   2.232   1.813   3.926  1.4573 -2.0756  1.2375
 7643TIP3    H244345   2.089   1.819   3.972  0.6199 -1.4905 -1.3258
 7644TIP3   OH244346   4.888   4.892  12.797  0.3112 -0.2800  0.1265
 7644TIP3    H144347   4.868   4.800  12.815  0.4187 -0.2331  0.4950
 7644TIP3    H244348   4.924   4.892  12.708 -0.3218 -0.5065 -0.1384
 7645TIP3   OH244349   6.637   6.584  12.896  0.5007  0.4813 -0.2241
 7645TIP3    H144350   6.674   6.612  12.812 -1.6801  1.5991 -0.8360
 7645TIP3    H244351   6.699   6.617  12.961  1.0681  1.5206 -1.2688
 7646TIP3   OH244352   4.783   6.476  17.155  0.1662 -0.0660  0.4337
 7646TIP3    H144353   4.872   6.507  17.169  0.0498  1.3273 -1.7216
 7646TIP3    H244354   4.749   6.531  17.085 -1.2793 -2.7784 -1.0785
 7647TIP3   OH244355   3.245   5.732   2.852  0.1949 -0.2786 -0.2336
 7647TIP3    H144356   3.189   5.792   2.902 -0.1038 -2.0831  1.6820
 7647TIP3    H244357   3.333   5.748   2.887  0.0896 -1.0511  0.3980
 7648TIP3   OH244358   5.396   4.458   2.008 -0.3489  0.4697  0.0593
 7648TIP3    H144359   5.367   4.367   2.011 -0.3895  0.3931 -2.1894
 7648TIP3    H244360   5.476   4.460   2.061  1.4052 -1.5424 -2.4071
 7649TIP3   OH244361   3.186   1.734  12.930  0.6229 -0.2950 -0.0464
 7649TIP3    H144362   3.229   1.666  12.878  0.1097 -0.0490 -0.8017
 7649TIP3    H244363   3.093   1.712  12.927  0.2939  1.2236 -1.4853
 7650TIP3   OH244364   0.425   5.636  15.650 -0.4820  0.4785 -0.6794
 7650TIP3    H144365   0.404   5.727  15.631 -0.9880  0.5071 -0.0090
 7650TIP3    H244366   0.515   5.624  15.618 -0.4753  1.1602 -0.9105
 7651TIP3   OH244367   2.365   0.604  16.524 -0.0969  0.3839  0.2929
 7651TIP3    H144368   2.367   0.521  16.476 -0.0596 -0.3636  1.5757
 7651TIP3    H244369   2.452   0.612  16.563  0.2411  1.5462 -0.6911
 7652TIP3   OH244370   3.638   0.137  13.413 -0.2528 -0.2618  0.0491
 7652TIP3    H144371   3.718   0.102  13.452 -1.0493 -1.2714  0.7908
 7652TIP3    H244372   3.655   0.231  13.403  1.3337 -0.6012 -0.5761
 7653TIP3   OH244373   3.608   2.405  11.359 -0.3446 -0.5158 -0.3289
 7653TIP3    H144374   3.574   2.345  11.427 -1.0507 -0.4369 -0.6091
 7653TIP3    H244375   3.560   2.381  11.280 -1.4938  1.2194 -0.1758
 7654TIP3   OH244376   5.326   4.359   3.262 -0.1550  0.3300  0.0600
 7654TIP3    H144377   5.255   4.312   3.219  0.9463  0.9026 -2.4855
 7654TIP3    H244378   5.303   4.452   3.251  1.0070  0.5257 -0.9020
 7655TIP3   OH244379   3.826   0.282  14.511  0.6708 -0.4491 -0.0465
 7655TIP3    H144380   3.831   0.201  14.461 -1.7685 -0.3252 -0.5584
 7655TIP3    H244381   3.812   0.350  14.445  2.3528  0.3522  0.4053
 7656TIP3   OH244382   6.583   4.683   2.124 -0.3793  0.3466 -0.0300
 7656TIP3    H144383   6.640   4.704   2.050 -0.2375 -0.2326 -0.0920
 7656TIP3    H244384   6.494   4.688   2.089 -0.5371  3.5550  0.6293
 7657TIP3   OH244385   2.643   2.708  16.381  0.0004 -0.2479 -0.3017
 7657TIP3    H144386   2.602   2.717  16.295 -0.2080 -0.3659 -0.2181
 7657TIP3    H244387   2.640   2.796  16.419  0.7600 -0.0441 -0.7075
 7658TIP3   OH244388   1.517   6.348  11.710 -0.1345 -0.4374 -0.2638
 7658TIP3    H144389   1.501   6.254  11.709  1.9076 -0.8004 -0.8777
 7658TIP3    H244390   1.502   6.377  11.620 -0.0072 -0.3132 -0.2462
 7659TIP3   OH244391   3.521   3.975   6.523  0.8669  0.1081  0.0329
 7659TIP3    H144392   3.602   3.925   6.521  0.7491 -0.0447 -0.7650
 7659TIP3    H244393   3.545   4.058   6.565  1.2299 -0.3009  0.6364
 7660TIP3   OH244394   0.347   3.231  11.932  0.1973 -0.6692  0.2800
 7660TIP3    H144395   0.291   3.155  11.921 -0.6604  0.0105 -0.1144
 7660TIP3    H244396   0.348   3.274  11.846  0.6516 -0.2258  0.4997
 7661TIP3   OH244397   5.167   5.992   0.175  0.6902 -0.0736  0.0772
 7661TIP3    H144398   5.228   5.923   0.203 -2.5892 -1.8114  3.4169
 7661TIP3    H244399   5.148   5.971   0.084  0.0838 -3.4500  0.8967
 7662TIP3   OH244400   2.539   2.502   4.829  0.0773 -0.0758  0.1677
 7662TIP3    H144401   2.584   2.581   4.858  0.5124 -1.1025  2.3299
 7662TIP3    H244402   2.553   2.500   4.734  1.3462  1.6138  0.3059
 7663TIP3   OH244403   2.232   5.495  15.170  0.1400 -0.1770 -0.1094
 7663TIP3    H144404   2.236   5.538  15.256  1.8270  0.1525 -0.3345
 7663TIP3    H244405   2.324   5.488  15.143 -0.4383  0.9064 -2.4726
 7664TIP3   OH244406   1.971   4.417  12.896  0.2904 -0.5006 -0.0765
 7664TIP3    H144407   2.061   4.388  12.885 -0.3160 -1.3730 -3.1093
 7664TIP3    H244408   1.972   4.509  12.870  0.2703 -0.5867 -0.3907
 7665TIP3   OH244409   4.559   4.355   5.420  0.7149 -0.3230  0.1890
 7665TIP3    H144410   4.639   4.350   5.367 -0.2772 -0.9422 -1.2720
 7665TIP3    H244411   4.502   4.414   5.372 -0.2636 -1.0164  0.4849
 7666TIP3   OH244412   5.178   5.939   5.138 -0.2238  0.2876  0.0134
 7666TIP3    H144413   5.207   6.009   5.196 -5.6241  1.8118  1.0844
 7666TIP3    H244414   5.172   5.862   5.194 -0.1275  0.4185  0.2024
 7667TIP3   OH244415   2.669   4.995  12.119 -0.1768  0.3736 -0.6192
 7667TIP3    H144416   2.599   4.958  12.173 -1.2930  1.6789 -1.1585
 7667TIP3    H244417   2.698   5.072  12.166 -0.3289  0.8359 -1.2658
 7668TIP3   OH244418   5.462   5.884   1.046 -0.5482 -0.7259  0.0249
 7668TIP3    H144419   5.544   5.875   0.998 -0.4192  0.0727  0.0888
 7668TIP3    H244420   5.394   5.865   0.982 -0.2991 -1.9553  0.1129
 7669TIP3   OH244421   0.225   4.287  14.823  0.6691 -0.4944 -0.4391
 7669TIP3    H144422   0.215   4.357  14.759 -0.0529 -0.3121 -0.1330
 7669TIP3    H244423   0.197   4.208  14.777  0.5853 -0.4363 -0.4865
 7670TIP3   OH244424   3.146   4.668   2.314 -0.9598  0.3653 -0.0705
 7670TIP3    H144425   3.124   4.576   2.302 -0.2393  0.1504  0.2238
 7670TIP3    H244426   3.208   4.687   2.244 -0.9167  0.5592  0.0194
 7671TIP3   OH244427   2.135   4.944   2.963 -0.4997  0.2007  0.5733
 7671TIP3    H144428   2.211   4.886   2.952 -2.1110 -1.9113  0.0224
 7671TIP3    H244429   2.078   4.920   2.890 -1.9377  1.3396  1.3196
 7672TIP3   OH244430   0.586   4.841   6.400  0.5929 -0.6330  0.6853
 7672TIP3    H144431   0.677   4.811   6.402  1.4820  1.5308 -2.6535
 7672TIP3    H244432   0.541   4.778   6.344  0.7217 -0.1031 -0.0267
 7673TIP3   OH244433   5.128   5.193   2.303  0.1251 -0.9004  0.6140
 7673TIP3    H144434   5.093   5.241   2.378 -1.3976 -1.8686  0.5369
 7673TIP3    H244435   5.222   5.190   2.318 -0.0546 -0.1823  1.9503
 7674TIP3   OH244436   5.296   6.263   3.023 -0.1489 -0.1746  0.6630
 7674TIP3    H144437   5.204   6.288   3.019 -0.4131 -1.1611  0.1312
 7674TIP3    H244438   5.307   6.203   2.949  0.6049 -1.0425  1.4543
 7675TIP3   OH244439   6.269   1.092   0.801  0.3404  0.2565 -0.6318
 7675TIP3    H144440   6.218   1.146   0.861 -1.1788  1.4573 -2.9176
 7675TIP3    H244441   6.250   1.002   0.828 -0.7845  0.7626  0.3193
 7676TIP3   OH244442   2.792   3.314   1.194 -0.2727  0.5022 -0.1047
 7676TIP3    H144443   2.772   3.374   1.122 -0.6632  0.4303 -0.0551
 7676TIP3    H244444   2.886   3.326   1.209 -0.4649  1.5179  0.2928
 7677TIP3   OH244445   6.121   4.236  14.593 -0.3251  0.1923  0.1512
 7677TIP3    H144446   6.149   4.153  14.554 -0.5347 -0.3492  1.1366
 7677TIP3    H244447   6.121   4.219  14.687 -1.6438  0.9127  0.2942
 7678TIP3   OH244448   4.615   3.756   1.690  0.2058 -0.1314 -0.0806
 7678TIP3    H144449   4.632   3.825   1.626  3.8827 -0.7533  0.1073
 7678TIP3    H244450   4.588   3.681   1.637 -1.2321  0.6657 -0.5020
 7679TIP3   OH244451   0.054   5.307  15.405  0.0564  0.1441 -0.6130
 7679TIP3    H144452   0.086   5.362  15.476 -2.5406  0.9533 -0.0372
 7679TIP3    H244453   0.055   5.218  15.441  0.7075  0.2874 -0.2741
 7680TIP3   OH244454   4.026   5.446   1.284  0.3018 -0.3915  0.2046
 7680TIP3    H144455   3.994   5.521   1.235  0.0039  1.3770  2.9813
 7680TIP3    H244456   3.974   5.446   1.364  2.3719 -1.7412  1.6055
 7681TIP3   OH244457   2.670   1.022  16.148 -0.5470  0.7250 -0.1798
 7681TIP3    H144458   2.629   0.961  16.087  1.3029 -0.3749 -0.3678
 7681TIP3    H244459   2.645   1.109  16.117 -0.0471  0.1591 -2.1832
 7682TIP3   OH244460   0.117   4.072   0.537 -0.2314 -0.6696 -0.1896
 7682TIP3    H144461   0.201   4.025   0.539  0.6129  0.5991 -3.1832
 7682TIP3    H244462   0.122   4.132   0.612  1.3578 -0.8708 -0.1098
 7683TIP3   OH244463   3.431   3.970  13.728 -0.0905 -0.1473  0.0407
 7683TIP3    H144464   3.365   4.027  13.768  0.7831 -0.5387  2.0402
 7683TIP3    H244465   3.424   3.888  13.776  0.7503 -0.7311 -0.8213
 7684TIP3   OH244466   5.149   3.699  14.397 -0.0098 -0.1646  0.2763
 7684TIP3    H144467   5.183   3.712  14.309  0.0661 -1.4736  0.1049
 7684TIP3    H244468   5.054   3.700  14.387 -0.0070  0.4026  0.2907
 7685TIP3   OH244469   3.895   6.331  15.029 -0.0405 -0.2832  0.6824
 7685TIP3    H144470   3.920   6.253  15.079  2.0186 -0.7167 -0.9379
 7685TIP3    H244471   3.978   6.372  15.007 -0.8155 -0.5745 -3.1002
 7686TIP3   OH244472   0.809   3.231  16.727 -0.1921 -0.2510  0.1285
 7686TIP3    H144473   0.731   3.287  16.729 -0.4611 -0.6201  0.0872
 7686TIP3    H244474   0.882   3.292  16.717 -0.2757  0.2887  2.4943
 7687TIP3   OH244475   4.642   3.999   2.208 -0.0517 -0.3765 -0.2046
 7687TIP3    H144476   4.669   3.973   2.296  0.5414  0.1728 -0.2225
 7687TIP3    H244477   4.546   3.990   2.208 -0.2921  1.8540  1.2329
 7688TIP3   OH244478   1.743   1.946   1.853  0.4242  0.4411 -0.0137
 7688TIP3    H144479   1.831   1.976   1.830  0.6171  0.0609  0.2316
 7688TIP3    H244480   1.755   1.891   1.930  0.0736 -0.2964 -0.4757
 7689TIP3   OH244481   1.947   6.323  13.716 -0.2583 -0.1243 -0.2874
 7689TIP3    H144482   1.924   6.248  13.770  0.2251 -1.4719 -1.8922
 7689TIP3    H244483   1.878   6.326  13.649  0.3119  0.1905 -0.8694
 7690TIP3   OH244484   2.705   3.311  13.721 -0.0006 -0.3245 -0.3626
 7690TIP3    H144485   2.614   3.282  13.727 -0.2254  0.8102  2.5959
 7690TIP3    H244486   2.755   3.240  13.762  0.4199 -0.7618 -1.6143
 7691TIP3   OH244487   6.740   0.373  10.987  0.3023  0.1280 -0.2846
 7691TIP3    H144488   6.646   0.356  10.992  0.2762  0.7100  1.4527
 7691TIP3    H244489   6.771   0.316  10.917 -1.4373  0.3711 -1.2839
 7692TIP3   OH244490   6.439   1.347   3.079 -0.3492 -0.4885  1.0736
 7692TIP3    H144491   6.503   1.276   3.083  0.3622 -0.0005 -0.8565
 7692TIP3    H244492   6.462   1.404   3.153  1.7210 -0.1181  0.1943
 7693TIP3   OH244493   1.734   5.958   4.329 -0.2536  0.4859  0.5347
 7693TIP3    H144494   1.683   5.923   4.402  1.0560  0.7697  1.5951
 7693TIP3    H244495   1.716   6.052   4.329  1.3095  0.7879  1.7434
 7694TIP3   OH244496   4.320   4.630   0.858  0.0287  0.7019 -0.2152
 7694TIP3    H144497   4.258   4.695   0.825  1.1182  2.0846  0.4248
 7694TIP3    H244498   4.266   4.553   0.877 -1.2240  1.2977 -1.2839
 7695TIP3   OH244499   2.812   2.912   0.402  0.6314 -0.0853 -0.1832
 7695TIP3    H144500   2.823   2.949   0.314 -0.2124 -2.1770 -1.2163
 7695TIP3    H244501   2.724   2.938   0.428 -0.5487 -2.4949 -1.5373
 7696TIP3   OH244502   3.814   1.698  12.214 -0.4023 -0.6140 -0.0233
 7696TIP3    H144503   3.844   1.620  12.167  0.8751  0.3080 -0.7780
 7696TIP3    H244504   3.723   1.708  12.187 -0.5554 -1.7881  0.0052
 7697TIP3   OH244505   5.768   5.378  12.777 -0.0152 -0.3020 -0.1652
 7697TIP3    H144506   5.691   5.366  12.833 -0.2507 -1.1896 -0.6758
 7697TIP3    H244507   5.743   5.341  12.692 -0.0483  2.0186 -1.1986
 7698TIP3   OH244508   6.452   5.721   2.977  0.6075 -0.0713  0.3837
 7698TIP3    H144509   6.368   5.765   2.991  0.6370 -0.8684  3.3197
 7698TIP3    H244510   6.518   5.782   3.008  0.8910 -0.7514  1.1265
 7699TIP3   OH244511   2.870   5.911  14.912  0.6904 -0.4371  0.3658
 7699TIP3    H144512   2.910   5.898  14.998 -2.4564  0.5562  2.0735
 7699TIP3    H244513   2.943   5.938  14.856  2.4912  0.9585  3.2157
 7700TIP3   OH244514   2.402   6.687   5.332  0.1399  0.0393 -0.0540
 7700TIP3    H144515   2.400   6.780   5.309 -1.1048 -0.1392 -0.7277
 7700TIP3    H244516   2.397   6.686   5.428 -2.1032  0.6291 -0.1290
 7701TIP3   OH244517   4.444   6.640  13.801 -0.8723  0.2815 -0.2385
 7701TIP3    H144518   4.537   6.632  13.777 -0.8063  0.3553 -0.0043
 7701TIP3    H244519   4.445   6.669  13.892 -1.1252 -0.3757 -0.0223
 7702TIP3   OH244520   0.016   2.216  10.805 -0.2081  0.2295 -0.1748
 7702TIP3    H144521   0.088   2.197  10.744 -1.3888 -2.3565 -0.8135
 7702TIP3    H244522  -0.063   2.193  10.756 -1.3828  1.3456  1.1602
 7703TIP3   OH244523   3.689   5.100  15.580  0.2048 -0.1966 -0.4560
 7703TIP3    H144524   3.604   5.138  15.601  0.0847 -1.0376  0.6240
 7703TIP3    H244525   3.674   5.005  15.582  1.2389 -0.3533  0.0663
 7704TIP3   OH244526   5.927   2.812  15.051 -0.4675 -0.3818  0.1457
 7704TIP3    H144527   5.941   2.814  15.146  0.9656  0.1322 -0.0692
 7704TIP3    H244528   6.000   2.761  15.017 -0.0297  0.8794 -0.8461
 7705TIP3   OH244529   6.784   2.209   1.565 -0.1294  0.3211  0.2957
 7705TIP3    H144530   6.760   2.276   1.501 -0.6733  0.1611  0.3365
 7705TIP3    H244531   6.723   2.221   1.638  0.4026  0.4175  0.7343
 7706TIP3   OH244532   0.423   6.325  16.878  0.3693 -0.6764 -0.4367
 7706TIP3    H144533   0.516   6.302  16.888 -0.0364 -1.6633  1.2413
 7706TIP3    H244534   0.383   6.300  16.961 -1.2591  0.5056 -0.8380
 7707TIP3   OH244535   5.193   5.776   2.808 -0.8756 -0.0040  0.0928
 7707TIP3    H144536   5.283   5.753   2.785 -1.1457  0.4255 -1.4862
 7707TIP3    H244537   5.177   5.731   2.891  0.9699  0.3627  0.6654
 7708TIP3   OH244538   2.894   1.771  14.492 -0.3413 -0.0041  0.0803
 7708TIP3    H144539   2.850   1.718  14.426  0.4724  0.5290 -0.8928
 7708TIP3    H244540   2.832   1.774  14.565 -0.9931 -1.0898 -0.4151
 7709TIP3   OH244541   0.904   6.322   2.946 -0.0593 -0.1377 -0.3203
 7709TIP3    H144542   0.936   6.240   2.910  0.2472  0.2271 -0.8911
 7709TIP3    H244543   0.832   6.347   2.889 -0.6409 -0.3813  0.2934
 7710TIP3   OH244544   6.121   0.281  13.634 -0.4407 -0.4060  0.1847
 7710TIP3    H144545   6.195   0.321  13.588 -0.8120  0.9506  0.7401
 7710TIP3    H244546   6.158   0.204  13.677  0.8622  0.8286  1.3005
 7711TIP3   OH244547   1.160   6.631  11.533  0.0715  0.3858  0.1644
 7711TIP3    H144548   1.168   6.562  11.467 -0.5535  1.2811 -0.8578
 7711TIP3    H244549   1.134   6.709  11.484 -1.4935  0.8067  1.5928
 7712TIP3   OH244550   4.254   0.703   4.955 -0.5543  0.6417 -0.6389
 7712TIP3    H144551   4.222   0.751   5.032 -0.6805 -0.5847  0.0903
 7712TIP3    H244552   4.349   0.707   4.963 -0.5616 -0.8901  0.5012
 7713TIP3   OH244553   5.833   4.244  10.689 -0.1415  0.6406 -0.3359
 7713TIP3    H144554   5.903   4.307  10.669 -0.2259  0.6192 -0.7036
 7713TIP3    H244555   5.771   4.254  10.617  0.2855 -0.5121 -0.8841
 7714TIP3   OH244556   2.715   0.435   1.372 -0.4280 -0.0034  0.1708
 7714TIP3    H144557   2.769   0.417   1.295 -0.0070  0.2786  0.4011
 7714TIP3    H244558   2.644   0.491   1.338  0.0957  0.6289  0.1029
 7715TIP3   OH244559   0.514   3.098   4.873 -0.1557 -0.2775 -0.2488
 7715TIP3    H144560   0.457   3.131   4.803  0.2548 -1.1610 -0.9976
 7715TIP3    H244561   0.518   3.004   4.858  2.6720 -0.0765 -1.0696
 7716TIP3   OH244562   0.782   0.797  15.985 -0.5306  0.1058  0.1212
 7716TIP3    H144563   0.772   0.876  15.930 -0.2739  0.5846  0.7572
 7716TIP3    H244564   0.756   0.725  15.927 -0.4205  0.6190 -0.5825
 7717TIP3   OH244565   4.899   0.293   2.514 -0.0957 -0.0713 -0.1159
 7717TIP3    H144566   4.877   0.293   2.607  0.6112  0.6952  0.0573
 7717TIP3    H244567   4.864   0.375   2.480 -0.2966 -0.3180 -0.5113
 7718TIP3   OH244568   1.566   4.017  14.805  0.0999 -0.5825 -0.4425
 7718TIP3    H144569   1.481   4.014  14.761 -1.2802  1.0966  2.0378
 7718TIP3    H244570   1.580   3.927  14.836  0.7161 -1.5962 -3.5073
 7719TIP3   OH244571   6.304   1.765  14.466  0.0674 -0.0890 -0.0761
 7719TIP3    H144572   6.288   1.682  14.512 -1.1217  1.6184  2.6758
 7719TIP3    H244573   6.219   1.788  14.428 -0.6380  1.8245  2.5386
 7720TIP3   OH244574   1.219   5.133   4.623  0.4458  0.0517  0.6138
 7720TIP3    H144575   1.252   5.124   4.713  0.5668 -1.5905  0.4189
 7720TIP3    H244576   1.175   5.051   4.605  4.2017 -1.5008 -2.3607
 7721TIP3   OH244577   6.147   5.387  15.619  0.0733 -0.2768  0.1845
 7721TIP3    H144578   6.210   5.317  15.601 -1.4523 -1.3513 -1.1530
 7721TIP3    H244579   6.126   5.377  15.712  0.8159 -0.7957  0.3027
 7722TIP3   OH244580   5.550   5.377  16.111  0.2567 -0.0235  0.4464
 7722TIP3    H144581   5.531   5.283  16.108  1.5659 -0.2686 -0.3728
 7722TIP3    H244582   5.645   5.383  16.098  0.4627  1.2988  2.3151
 7723TIP3   OH244583   4.575   0.430  14.250  0.3599  0.2561 -0.0006
 7723TIP3    H144584   4.572   0.513  14.203 -2.1009 -0.5251 -1.3077
 7723TIP3    H244585   4.647   0.382  14.209 -0.4979  0.3577 -1.6787
 7724TIP3   OH244586   5.621   0.315  16.880 -0.1129 -0.1839 -0.0680
 7724TIP3    H144587   5.578   0.390  16.921 -0.3532  0.1465 -0.9200
 7724TIP3    H244588   5.551   0.252  16.865 -0.0159 -0.3284  0.0740
 7725TIP3   OH244589   1.772   5.734   3.537 -0.2378  0.0243 -0.2605
 7725TIP3    H144590   1.726   5.650   3.529 -0.4320  0.0193  0.8227
 7725TIP3    H244591   1.759   5.760   3.628  1.2114  0.4282 -0.1455
 7726TIP3   OH244592   1.746   5.741  15.194 -0.2820  0.7296  0.0793
 7726TIP3    H144593   1.794   5.796  15.257  0.9367 -0.1103 -0.0928
 7726TIP3    H244594   1.655   5.766  15.205 -0.1883  0.0803  2.6971
 7727TIP3   OH244595   2.191   4.451  13.204 -0.3427 -0.1301  0.4630
 7727TIP3    H144596   2.196   4.490  13.291  1.0051  2.3262 -0.6792
 7727TIP3    H244597   2.277   4.466  13.166 -0.3624 -2.7100 -0.6936
 7728TIP3   OH244598   2.513   2.034  11.685  0.1006  0.1328 -0.1012
 7728TIP3    H144599   2.545   2.003  11.770 -1.4940 -1.6939 -0.1237
 7728TIP3    H244600   2.545   2.124  11.678  1.7067 -0.2668  1.6555
 7729TIP3   OH244601   3.239   2.988  16.772 -0.3169 -0.0304  0.6859
 7729TIP3    H144602   3.303   2.918  16.762 -0.4658 -0.0594 -0.0763
 7729TIP3    H244603   3.267   3.036  16.850  1.5932  0.9681 -0.5861
 7730TIP3   OH244604   3.183   3.996   5.931  0.0809 -0.2355 -0.1436
 7730TIP3    H144605   3.159   4.061   5.997  2.3997  0.2392  0.2667
 7730TIP3    H244606   3.104   3.943   5.920 -0.7277  0.4478  2.1034
 7731TIP3   OH244607   6.636   4.177  15.365  0.0211 -0.4687 -0.2958
 7731TIP3    H144608   6.641   4.098  15.418 -0.6622  0.7709  1.6870
 7731TIP3    H244609   6.567   4.159  15.301 -0.3321 -1.3616  0.3281
 7732TIP3   OH244610   0.499   1.911  15.372 -0.1379 -0.3574 -0.1139
 7732TIP3    H144611   0.594   1.907  15.360 -0.0416 -0.3228  0.6613
 7732TIP3    H244612   0.485   1.891  15.464 -0.7589  1.4181  0.1820
 7733TIP3   OH244613   0.356   1.255  11.017  0.2506 -0.0427  0.0775
 7733TIP3    H144614   0.280   1.232  11.070  0.3779  0.0935  0.3245
 7733TIP3    H244615   0.420   1.288  11.081  1.0677 -1.5346  0.0667
 7734TIP3   OH244616   5.492   5.310  12.946  0.0524  0.1723  0.3399
 7734TIP3    H144617   5.539   5.235  12.910 -0.0884  0.7854 -1.1613
 7734TIP3    H244618   5.492   5.295  13.041  3.8234  0.5028  0.4736
 7735TIP3   OH244619   0.778   1.191  14.588  0.0062 -0.1125  0.2658
 7735TIP3    H144620   0.779   1.225  14.498  0.2493  1.1764  0.7363
 7735TIP3    H244621   0.775   1.270  14.643  2.1130 -0.8216  1.4422
 7736TIP3   OH244622   3.182   6.055   0.781 -0.0033  0.1716 -0.0499
 7736TIP3    H144623   3.163   6.020   0.694  1.1833  0.6710 -0.5150
 7736TIP3    H244624   3.258   6.111   0.769  1.3018 -1.1894  1.6335
 7737TIP3   OH244625   3.621   4.852   6.719  0.4169 -0.6794 -0.2590
 7737TIP3    H144626   3.635   4.770   6.671  2.0305 -0.5490 -0.0098
 7737TIP3    H244627   3.685   4.912   6.683  1.0594 -0.3126  1.4545
 7738TIP3   OH244628   0.491   1.308   4.175  0.1536  0.0816  0.4524
 7738TIP3    H144629   0.549   1.251   4.225 -0.4691 -1.1090 -0.1720
 7738TIP3    H244630   0.403   1.277   4.195 -0.1252 -0.1456 -1.0564
 7739TIP3   OH244631   0.715   3.548   1.275  0.6606 -0.1265  0.5979
 7739TIP3    H144632   0.746   3.630   1.238  2.3847 -1.0745 -0.1435
 7739TIP3    H244633   0.791   3.513   1.323 -0.3816 -0.7613  1.8275
 7740TIP3   OH244634   0.762   0.690  13.898 -0.0809  0.2111  0.6812
 7740TIP3    H144635   0.705   0.767  13.907 -1.2571 -0.8291  2.3816
 7740TIP3    H244636   0.803   0.681  13.984 -0.1415 -1.2125  0.5644
 7741TIP3   OH244637   3.512   6.004  13.838  0.4387 -0.1188 -0.2106
 7741TIP3    H144638   3.592   6.055  13.820  1.6346 -1.0493  2.2537
 7741TIP3    H244639   3.441   6.061  13.809  1.9337  1.2226 -1.3766
 7742TIP3   OH244640   5.059   2.141  12.502  0.4054  0.2286  0.6179
 7742TIP3    H144641   5.148   2.147  12.468 -0.7149  1.7877 -2.2051
 7742TIP3    H244642   5.045   2.047  12.516  2.1396 -0.1242  0.1094
 7743TIP3   OH244643   1.964   5.361  12.265  0.8269 -0.3282  0.3038
 7743TIP3    H144644   1.955   5.398  12.353 -0.6201  3.2524 -1.2333
 7743TIP3    H244645   2.052   5.388  12.236  0.1954  1.0446 -0.3979
 7744TIP3   OH244646   6.645   1.094   1.203 -0.3615  0.6238 -0.1685
 7744TIP3    H144647   6.664   1.128   1.290 -2.1350  2.4597 -0.4500
 7744TIP3    H244648   6.703   1.143   1.145 -1.9576  2.2431 -0.4265
 7745TIP3   OH244649   2.821   1.339  10.546  0.5452  0.0575  0.3105
 7745TIP3    H144650   2.774   1.257  10.557 -0.2519  0.5723  0.7567
 7745TIP3    H244651   2.895   1.317  10.489 -0.1848 -0.7723 -0.3231
 7746TIP3   OH244652   4.318   4.828  13.100  0.2875 -0.6289 -0.1913
 7746TIP3    H144653   4.303   4.734  13.107  0.2730 -0.4688  2.7492
 7746TIP3    H244654   4.258   4.866  13.164 -0.4049  1.4690 -2.0315
 7747TIP3   OH244655   2.469   6.324  11.322  0.0155  0.9672 -0.2937
 7747TIP3    H144656   2.400   6.313  11.388  0.7705 -1.4608  0.1735
 7747TIP3    H244657   2.541   6.364  11.369  1.0497 -2.0020  0.7986
 7748TIP3   OH244658   1.135   6.090   2.958  0.7085  0.7352 -0.5292
 7748TIP3    H144659   1.081   6.065   3.033 -1.7590 -0.8053 -2.7188
 7748TIP3    H244660   1.218   6.119   2.997 -0.4839  0.0079  2.7624
 7749TIP3   OH244661   2.576   2.951   2.095  0.2370  0.2154  0.5688
 7749TIP3    H144662   2.664   2.912   2.088 -0.1642 -0.6910  0.4445
 7749TIP3    H244663   2.591   3.036   2.136  1.0956 -0.2402  1.2337
 7750TIP3   OH244664   3.422   3.908   1.169  0.1616  0.7121  0.3706
 7750TIP3    H144665   3.460   3.945   1.089  0.2515  1.2795  0.6743
 7750TIP3    H244666   3.328   3.906   1.152  0.4055 -2.0605 -0.9601
 7751TIP3   OH244667   2.011   3.556  14.252 -0.2845  0.2140 -0.2381
 7751TIP3    H144668   1.964   3.540  14.170  0.3829  2.4651 -1.0907
 7751TIP3    H244669   1.947   3.600  14.309  0.1722  1.4971 -0.6961
 7752TIP3   OH244670   6.240   4.482  15.450  0.3768 -0.7525 -0.6313
 7752TIP3    H144671   6.242   4.510  15.358  0.5558 -0.4808 -0.5442
 7752TIP3    H244672   6.327   4.447  15.466  0.7483  0.3257 -0.2157
 7753TIP3   OH244673   5.733   6.782  11.991 -0.3632 -0.0755  0.0970
 7753TIP3    H144674   5.688   6.759  11.909 -0.9863  0.8333  0.1833
 7753TIP3    H244675   5.672   6.759  12.060  0.0884 -0.6653  0.3037
 7754TIP3   OH244676   1.006   6.387   3.737 -0.1113  0.0026 -0.2351
 7754TIP3    H144677   0.929   6.423   3.691 -2.2219 -1.5264  1.9848
 7754TIP3    H244678   1.058   6.464   3.759 -1.8385  1.2430 -0.3263
 7755TIP3   OH244679   2.491   5.400  14.302  0.1359  0.4864 -0.3001
 7755TIP3    H144680   2.576   5.415  14.260 -0.2956 -1.6954 -1.9921
 7755TIP3    H244681   2.507   5.326  14.361 -0.6783 -0.1923 -0.9263
 7756TIP3   OH244682   3.391   5.247   3.490 -0.6833  0.2612 -0.3679
 7756TIP3    H144683   3.400   5.168   3.435  0.2260  0.7514 -0.9466
 7756TIP3    H244684   3.383   5.318   3.427  0.0976  0.8045  0.1419
 7757TIP3   OH244685   3.281   3.674  13.416  0.0185 -0.8019 -0.3919
 7757TIP3    H144686   3.186   3.666  13.414 -0.3294  1.3009  3.3647
 7757TIP3    H244687   3.310   3.603  13.473  0.7193 -1.4675 -1.5602
 7758TIP3   OH244688   1.477   1.396   1.993 -0.0872  0.4313 -0.1290
 7758TIP3    H144689   1.473   1.481   1.948 -0.7111  1.0317  1.0573
 7758TIP3    H244690   1.386   1.374   2.011  0.0811 -0.4454 -0.3144
 7759TIP3   OH244691   5.552   2.853   6.211 -0.5979  0.3367  0.0748
 7759TIP3    H144692   5.572   2.925   6.151  1.0827  0.0486  0.2690
 7759TIP3    H244693   5.463   2.827   6.188 -0.2352  0.6998 -1.8213
 7760TIP3   OH244694   3.827   6.010  12.287 -0.3553 -0.1886  0.1046
 7760TIP3    H144695   3.906   6.051  12.250 -0.4932 -0.0408 -0.0257
 7760TIP3    H244696   3.760   6.078  12.282 -1.1179 -1.0191 -1.9319
 7761TIP3   OH244697   4.386   1.820   6.290 -0.5105 -0.3963  0.4841
 7761TIP3    H144698   4.389   1.874   6.211  0.2842 -2.1976 -0.7446
 7761TIP3    H244699   4.295   1.825   6.319 -0.3957  1.8478  0.6050
 7762TIP3   OH244700   1.849   5.506   4.742  0.4121 -0.0534 -0.2390
 7762TIP3    H144701   1.816   5.595   4.752  0.2781  0.2841 -3.2031
 7762TIP3    H244702   1.944   5.515   4.752  0.1829 -0.0894  2.3769
 7763TIP3   OH244703   4.989   4.500   5.683  0.2680  0.1704 -0.0290
 7763TIP3    H144704   4.939   4.501   5.602  1.7864 -2.1220 -1.0711
 7763TIP3    H244705   4.928   4.467   5.749 -0.4287  0.2474 -0.6284
 7764TIP3   OH244706   0.889   1.105   3.494  0.1632  0.2449 -0.3974
 7764TIP3    H144707   0.957   1.039   3.500  0.1471  0.3944  2.0670
 7764TIP3    H244708   0.834   1.090   3.572  0.3205  3.2923  0.3839
 7765TIP3   OH244709   4.663   3.830   0.896  0.5357  0.3078 -0.1946
 7765TIP3    H144710   4.584   3.775   0.897  0.2008  0.7037 -2.4129
 7765TIP3    H244711   4.630   3.918   0.917  0.2579  0.5910 -1.7379
 7766TIP3   OH244712   5.101   2.343  15.469  0.4335  0.3184 -0.4878
 7766TIP3    H144713   5.104   2.363  15.563  0.2595 -0.5640 -0.2854
 7766TIP3    H244714   5.016   2.301  15.456  0.6378  0.0464 -0.9605
 7767TIP3   OH244715   1.716   3.713   4.880 -0.3383 -0.1132  0.1927
 7767TIP3    H144716   1.795   3.662   4.897  0.2577  0.4344 -0.8922
 7767TIP3    H244717   1.704   3.766   4.959  0.8114  0.3653  0.0527
 7768TIP3   OH244718   6.038   4.974  14.994  0.5613  0.6246  0.1678
 7768TIP3    H144719   5.991   5.043  14.947 -3.1399 -2.0976 -0.3507
 7768TIP3    H244720   5.992   4.966  15.078 -0.3810 -2.5223 -0.5769
 7769TIP3   OH244721   1.821   6.155   1.437 -0.3973 -0.1587  0.1713
 7769TIP3    H144722   1.900   6.136   1.488  1.0926  0.7107 -1.7020
 7769TIP3    H244723   1.793   6.241   1.468  0.4316  0.3102 -0.3413
 7770TIP3   OH244724   1.912   0.403  16.440  0.5587 -0.1407  0.7481
 7770TIP3    H144725   1.977   0.472  16.432  1.5100 -1.2490 -1.4495
 7770TIP3    H244726   1.844   0.425  16.377  0.8497 -1.1875  0.0601
 7771TIP3   OH244727   5.067   4.867   1.188 -0.2990  0.5550 -0.3811
 7771TIP3    H144728   5.130   4.795   1.191  0.0780  0.9087  0.1641
 7771TIP3    H244729   5.089   4.914   1.107 -1.3854 -0.6977 -1.4246
 7772TIP3   OH244730   1.778   4.350  11.417  0.1061  0.2698  0.5203
 7772TIP3    H144731   1.690   4.335  11.451 -0.7510  0.0031 -1.7936
 7772TIP3    H244732   1.826   4.270  11.441 -0.7197 -0.2851  0.3569
 7773TIP3   OH244733   0.176   2.318   1.191  0.3543 -0.5877 -0.3227
 7773TIP3    H144734   0.238   2.325   1.118 -0.0170 -1.7464 -0.7701
 7773TIP3    H244735   0.199   2.236   1.235  0.3772 -0.0522  0.6831
 7774TIP3   OH244736   5.708   6.731  10.523 -0.2464 -0.4428 -0.5078
 7774TIP3    H144737   5.802   6.744  10.507 -0.2414  0.0403 -0.0800
 7774TIP3    H244738   5.695   6.637  10.513  0.0292 -0.3419 -1.9734
 7775TIP3   OH244739   3.215   6.264  13.077  0.4325 -0.4388  0.1492
 7775TIP3    H144740   3.307   6.266  13.103 -0.0951 -0.8966  2.0686
 7775TIP3    H244741   3.204   6.343  13.023  0.8837  2.0677  3.5904
 7776TIP3   OH244742   2.396   2.901  16.741  0.2257 -0.0274 -0.1406
 7776TIP3    H144743   2.430   2.819  16.776  2.0113  0.1973 -1.2872
 7776TIP3    H244744   2.314   2.915  16.788  0.4389 -1.9100  0.8334
 7777TIP3   OH244745   4.840   6.664  15.187  0.3362 -0.3535 -0.2869
 7777TIP3    H144746   4.901   6.738  15.191 -0.2797  0.1199  0.7451
 7777TIP3    H244747   4.789   6.679  15.108  1.9634 -1.0904 -1.4995
 7778TIP3   OH244748   1.295   0.698  14.677 -0.5824 -0.2597 -0.2292
 7778TIP3    H144749   1.222   0.682  14.737  0.9014 -1.8490  1.2047
 7778TIP3    H244750   1.371   0.708  14.735  0.5753 -0.0462 -1.7752
 7779TIP3   OH244751   1.696   4.805   6.217 -0.0427  0.3489  0.1438
 7779TIP3    H144752   1.633   4.853   6.271 -2.2051 -1.6547 -0.4411
 7779TIP3    H244753   1.719   4.728   6.270  2.0365  1.1233  0.3922
 7780TIP3   OH244754   3.471   1.437  13.230  0.4121 -0.1878  0.4147
 7780TIP3    H144755   3.471   1.522  13.186 -1.4684 -0.2620  0.2318
 7780TIP3    H244756   3.559   1.402  13.215 -0.3047 -0.4597 -3.8292
 7781TIP3   OH244757   2.898   4.530   6.477  0.6072 -0.5582  0.4516
 7781TIP3    H144758   2.921   4.475   6.401 -1.2632 -1.0296  0.1985
 7781TIP3    H244759   2.981   4.565   6.507  1.6448 -2.2186 -0.4145
 7782TIP3   OH244760   2.368   6.440   2.024  0.4809  0.1696  0.4624
 7782TIP3    H144761   2.395   6.351   2.048  1.7732  0.2319 -0.6887
 7782TIP3    H244762   2.394   6.449   1.932 -0.5840  1.3869  0.2598
 7783TIP3   OH244763   0.630   0.749  16.623  0.3881 -0.1268 -0.5514
 7783TIP3    H144764   0.628   0.844  16.639  0.5017  0.0830 -1.7749
 7783TIP3    H244765   0.719   0.722  16.646  0.3346  0.0449 -0.1324
 7784TIP3   OH244766   1.579   4.898   0.707 -0.9771  0.1124 -0.0119
 7784TIP3    H144767   1.484   4.891   0.703 -0.9852 -0.5004  1.1525
 7784TIP3    H244768   1.596   4.969   0.769 -0.6728  0.1221 -0.1015
 7785TIP3   OH244769   1.628   3.963  13.431 -0.3841 -0.6905  0.3233
 7785TIP3    H144770   1.535   3.950  13.447 -0.4117 -0.9209 -0.0200
 7785TIP3    H244771   1.633   3.993  13.340 -0.1320 -0.6000  0.3673
 7786TIP3   OH244772   1.774   2.400   0.192 -0.1391 -0.5449  0.1209
 7786TIP3    H144773   1.756   2.481   0.143  1.0786  0.2715  0.9643
 7786TIP3    H244774   1.851   2.363   0.149  0.4790 -0.2192  0.9203
 7787TIP3   OH244775   6.506   4.009  14.824 -0.6971  0.2652 -0.0532
 7787TIP3    H144776   6.417   3.976  14.810 -0.8852  0.8184 -0.1925
 7787TIP3    H244777   6.493   4.098  14.855 -0.1928  0.2595  0.1704
 7788TIP3   OH244778   0.394   0.890  13.675 -0.0961  0.0355  0.4079
 7788TIP3    H144779   0.305   0.860  13.695  0.4724 -0.4817  2.3165
 7788TIP3    H244780   0.389   0.985  13.683 -0.1928 -0.0771  1.8014
 7789TIP3   OH244781   0.854   3.805   6.005 -0.1072  0.2162 -0.2276
 7789TIP3    H144782   0.940   3.792   6.045 -0.4751 -1.1024  0.1667
 7789TIP3    H244783   0.793   3.759   6.063 -0.8956 -0.0547 -1.2432
 7790TIP3   OH244784   5.919   2.324   3.360  0.7143 -0.5043 -0.5695
 7790TIP3    H144785   5.842   2.275   3.387  0.1956  1.3109  1.4186
 7790TIP3    H244786   5.903   2.347   3.268 -1.5153  0.5253  0.0396
 7791TIP3   OH244787   1.542   4.282  11.523 -0.5555 -0.0724  0.1305
 7791TIP3    H144788   1.446   4.273  11.529 -0.5206 -0.6643 -0.1904
 7791TIP3    H244789   1.575   4.197  11.553 -0.0780  0.6974  1.8440
 7792TIP3   OH244790   5.940   2.284   4.702 -0.1342  0.1073 -0.5455
 7792TIP3    H144791   5.998   2.340   4.755  0.4424 -0.7175 -0.3024
 7792TIP3    H244792   5.914   2.213   4.761  2.1550 -1.9544 -1.9272
 7793TIP3   OH244793   3.324   5.784  15.567  1.2711  0.2925 -0.3230
 7793TIP3    H144794   3.338   5.706  15.514  0.1322  0.0967 -0.3520
 7793TIP3    H244795   3.260   5.835  15.518  2.1404  1.3374 -0.3883
 7794TIP3   OH244796   3.468   4.803  11.910  0.2704 -0.2758 -0.4470
 7794TIP3    H144797   3.549   4.786  11.862 -0.4713 -2.0458 -1.1158
 7794TIP3    H244798   3.437   4.887  11.875  1.6109  0.2248 -0.4542
 7795TIP3   OH244799   4.693   2.889   3.015  0.3719  0.0289  0.2198
 7795TIP3    H144800   4.650   2.925   3.093  1.8579  0.5364  0.8223
 7795TIP3    H244801   4.721   2.966   2.965  1.2442 -0.2841  0.2187
 7796TIP3   OH244802   0.459   0.992   3.647 -0.4318  0.0624  0.5325
 7796TIP3    H144803   0.554   0.997   3.661 -0.5337 -0.3096  1.3415
 7796TIP3    H244804   0.431   1.083   3.640 -0.3101  0.2480  2.2612
 7797TIP3   OH244805   1.204   0.844  13.239 -0.1507  0.1584 -0.2993
 7797TIP3    H144806   1.194   0.834  13.144  1.3613 -2.1682 -0.2576
 7797TIP3    H244807   1.292   0.879  13.250  0.1070 -0.6689  0.2893
 7798TIP3   OH244808   2.047   1.496  14.541 -0.0996 -0.5963 -0.2938
 7798TIP3    H144809   2.042   1.482  14.635 -1.1399 -2.1444 -0.5538
 7798TIP3    H244810   1.971   1.552  14.521 -1.9482 -3.1550 -0.6723
 7799TIP3   OH244811   0.864   6.010  13.945  0.0066  0.7179  0.4255
 7799TIP3    H144812   0.903   5.923  13.952 -0.7565  0.4868  1.9478
 7799TIP3    H244813   0.770   5.994  13.936  0.0720  1.3216 -1.5787
 7800TIP3   OH244814   5.924   5.021   0.751  0.0412  0.1246  0.2660
 7800TIP3    H144815   5.998   4.962   0.762  0.1859  0.6001  2.0190
 7800TIP3    H244816   5.873   5.011   0.832 -0.1911  2.0033  0.3790
 7801TIP3   OH244817   3.289   3.868  11.725 -0.5089 -0.0558 -0.2059
 7801TIP3    H144818   3.203   3.828  11.736 -0.5541  0.3783  1.1163
 7801TIP3    H244819   3.341   3.801  11.679 -1.5774 -0.2672 -1.1132
 7802TIP3   OH244820   4.721   6.094  14.100 -0.3249 -0.2475 -0.0499
 7802TIP3    H144821   4.668   6.134  14.031 -0.6222 -0.0919  0.2681
 7802TIP3    H244822   4.752   6.012  14.062 -2.8036 -1.5233  0.6038
 7803TIP3   OH244823   5.914   1.448  13.575 -0.5547 -0.2814 -0.5615
 7803TIP3    H144824   5.978   1.481  13.512  1.2284 -1.6119  0.5053
 7803TIP3    H244825   5.851   1.400  13.521 -0.6489  1.0125 -1.6213
 7804TIP3   OH244826   1.228   5.879   0.434  0.3685 -0.1354 -0.4466
 7804TIP3    H144827   1.262   5.968   0.424 -0.8500  0.2299 -1.5139
 7804TIP3    H244828   1.135   5.890   0.450  0.5247 -1.1721  1.2921
 7805TIP3   OH244829   3.689   3.718   1.295 -0.3393 -0.3845  0.0656
 7805TIP3    H144830   3.617   3.767   1.257  0.0258 -0.0006 -0.1413
 7805TIP3    H244831   3.768   3.759   1.259 -0.0228 -0.9898  0.0556
 7806TIP3   OH244832   2.013   5.516  15.860 -0.3943  0.0033 -0.0055
 7806TIP3    H144833   1.974   5.530  15.773  1.1469  0.7658 -0.5928
 7806TIP3    H244834   1.945   5.544  15.921 -2.0427 -1.8718 -0.9064
 7807TIP3   OH244835   4.301   5.349   4.089 -0.3225 -0.5251 -0.0052
 7807TIP3    H144836   4.219   5.352   4.138 -0.4791 -2.8777 -0.0286
 7807TIP3    H244837   4.364   5.310   4.151  0.4162 -0.0555 -0.4542
 7808TIP3   OH244838   3.557   2.299   2.494 -0.4637  0.0645 -0.1043
 7808TIP3    H144839   3.582   2.292   2.402 -2.0294 -1.1822 -0.4734
 7808TIP3    H244840   3.628   2.348   2.535  0.7541 -0.2462 -1.7772
 7809TIP3   OH244841   3.692   6.771  16.274  0.1666  0.5748 -0.0720
 7809TIP3    H144842   3.701   6.773  16.370  1.9857 -0.1079 -0.2042
 7809TIP3    H244843   3.694   6.863  16.248 -0.2246  0.7583  0.5451
 7810TIP3   OH244844   0.123   3.405   0.775 -0.0995  0.1391  0.3060
 7810TIP3    H144845   0.126   3.382   0.682 -0.3732  1.2511  0.0137
 7810TIP3    H244846   0.214   3.426   0.797  0.3507 -2.2498  0.8585
 7811TIP3   OH244847   2.611   6.448  15.863 -0.3310 -0.0328 -0.0804
 7811TIP3    H144848   2.561   6.394  15.924 -0.0276 -0.0012  0.1972
 7811TIP3    H244849   2.582   6.537  15.881  0.2794  0.0507  0.5160
 7812TIP3   OH244850   2.257   3.862   2.434  0.2303  0.2189  0.3340
 7812TIP3    H144851   2.172   3.897   2.408  0.5392  0.5329 -0.2801
 7812TIP3    H244852   2.294   3.928   2.492  0.1408  0.1773  0.4377
 7813TIP3   OH244853   2.122   5.008  11.331  0.9030 -0.2510  0.7942
 7813TIP3    H144854   2.119   5.092  11.376 -0.1997 -0.1426  0.5475
 7813TIP3    H244855   2.033   4.973  11.340  0.2742  0.3735 -2.3937
 7814TIP3   OH244856   3.049   0.051   5.330  0.3120 -0.3265  0.1409
 7814TIP3    H144857   3.004  -0.029   5.357  1.0695 -0.3488  1.3726
 7814TIP3    H244858   2.987   0.121   5.353  0.4495 -0.4317  0.8681
 7815TIP3   OH244859   3.382   1.937   4.068  0.7611 -0.5153 -0.0892
 7815TIP3    H144860   3.457   1.902   4.020  0.2510 -0.9901 -0.5460
 7815TIP3    H244861   3.317   1.867   4.066  0.0202  0.1712 -0.3403
 7816TIP3   OH244862   2.890   2.389  15.001 -0.1869 -0.1938 -0.5348
 7816TIP3    H144863   2.977   2.416  14.973  0.3628  0.1797  1.4981
 7816TIP3    H244864   2.832   2.421  14.932  1.2850 -0.5932 -1.9915
 7817TIP3   OH244865   2.491   5.654   2.908 -0.1098  0.0047  0.4780
 7817TIP3    H144866   2.472   5.730   2.854  0.1162 -0.2206  0.0812
 7817TIP3    H244867   2.405   5.614   2.924 -0.0151 -0.8900 -1.1386
 7818TIP3   OH244868   4.545   1.835  15.085  0.2328 -0.3605  0.3090
 7818TIP3    H144869   4.559   1.927  15.104  2.2994 -0.5237 -0.3547
 7818TIP3    H244870   4.467   1.834  15.029  0.2693  0.9784  0.2154
 7819TIP3   OH244871   5.569   6.222   5.235 -0.3552  0.2248  0.0186
 7819TIP3    H144872   5.624   6.239   5.158 -1.2040  0.1073 -0.6162
 7819TIP3    H244873   5.613   6.270   5.306  0.5194  0.2087 -0.4958
 7820TIP3   OH244874   1.952   6.537   5.357  0.1854 -0.0855  0.0533
 7820TIP3    H144875   1.932   6.495   5.441 -1.2893  0.4725  0.0134
 7820TIP3    H244876   1.966   6.629   5.380  0.6907 -0.1034 -0.1944
 7821TIP3   OH244877   1.742   5.273  13.103  0.2049  0.2745 -0.4239
 7821TIP3    H144878   1.704   5.202  13.050 -0.2535 -0.4764  0.8844
 7821TIP3    H244879   1.765   5.231  13.186 -0.1134  1.6789  0.3816
 7822TIP3   OH244880   4.229   0.177  16.148 -0.8134 -0.2118 -0.0038
 7822TIP3    H144881   4.223   0.270  16.127 -1.6264 -0.2689 -0.0699
 7822TIP3    H244882   4.311   0.168  16.195 -0.5835  0.4888 -0.2604
 7823TIP3   OH244883   3.410   0.504   4.245  0.2798 -0.3146  0.1813
 7823TIP3    H144884   3.365   0.510   4.161  1.7733  1.1114 -0.5492
 7823TIP3    H244885   3.435   0.412   4.253 -1.4753 -0.8240 -0.0620
 7824TIP3   OH244886   3.552   1.914  11.945  0.0244 -0.0664 -0.4565
 7824TIP3    H144887   3.613   1.917  12.019 -0.4514 -0.9639 -0.0231
 7824TIP3    H244888   3.597   1.863  11.878  0.4764  0.7890 -0.8161
 7825TIP3   OH244889   2.643   4.366  12.931  0.5247 -0.0987  0.3968
 7825TIP3    H144890   2.672   4.455  12.907 -1.2878  0.1094 -1.1198
 7825TIP3    H244891   2.718   4.328  12.977  1.1746  2.3698  1.4665
 7826TIP3   OH244892   3.344   0.438  12.702  0.2806  0.3192 -0.0616
 7826TIP3    H144893   3.249   0.443  12.694  0.1788 -2.0313 -0.5184
 7826TIP3    H244894   3.361   0.455  12.795 -0.7821 -1.8015  0.5370
 7827TIP3   OH244895   6.142   0.903  14.956 -0.2069 -0.3295 -0.5195
 7827TIP3    H144896   6.147   0.827  14.898 -0.6639  0.0263 -1.0373
 7827TIP3    H244897   6.145   0.866  15.044  2.5386 -0.7435 -0.7360
 7828TIP3   OH244898   1.036   0.718   3.269  0.2511 -0.6574  0.2779
 7828TIP3    H144899   1.072   0.747   3.186  0.0964  0.0034  0.4412
 7828TIP3    H244900   1.051   0.623   3.270  2.7914 -0.2736  0.7476
 7829TIP3   OH244901   1.851   6.392  12.087 -0.2491 -0.1396  0.3418
 7829TIP3    H144902   1.907   6.469  12.087 -0.0376 -0.2710 -1.4069
 7829TIP3    H244903   1.798   6.401  12.008 -1.7760 -0.6760  1.2830
 7830TIP3   OH244904   2.389   0.789  16.867 -0.7378  0.6271  0.2327
 7830TIP3    H144905   2.305   0.789  16.821 -0.3479 -1.5448 -0.4982
 7830TIP3    H244906   2.368   0.759  16.955 -1.0179  1.9689  0.6341
 7831TIP3   OH244907   3.706   5.079   6.112 -0.3114 -0.2904 -0.0369
 7831TIP3    H144908   3.722   4.985   6.104  0.7926 -0.2803  1.6710
 7831TIP3    H244909   3.758   5.119   6.043 -1.9234 -1.0165 -1.6968
 7832TIP3   OH244910   2.149   2.273  13.794 -0.4229 -0.3922 -0.1592
 7832TIP3    H144911   2.054   2.262  13.788 -0.5415 -0.6989  1.9326
 7832TIP3    H244912   2.167   2.354  13.746 -1.4234 -1.5920 -2.6423
 7833TIP3   OH244913   5.010   1.538   5.618 -0.3253 -0.5921 -0.0498
 7833TIP3    H144914   5.019   1.465   5.681 -0.5370 -1.3438 -0.8840
 7833TIP3    H244915   4.936   1.589   5.652 -2.1270 -2.4385 -1.0859
 7834TIP3   OH244916   0.879   5.522  13.025 -0.1085 -0.1009  0.3408
 7834TIP3    H144917   0.808   5.457  13.014  0.5510 -0.6996 -0.4560
 7834TIP3    H244918   0.834   5.600  13.056 -0.9877 -0.8012  0.8830
 7835TIP3   OH244919   4.931   1.157   4.352  0.0668  0.0213 -1.0594
 7835TIP3    H144920   4.907   1.106   4.275 -2.0953  0.0241 -0.4252
 7835TIP3    H244921   5.001   1.214   4.322 -0.0606 -0.6748 -2.7533
 7836TIP3   OH244922   5.535   5.046  13.575  0.0106 -0.1742  0.3028
 7836TIP3    H144923   5.606   5.062  13.638 -0.9574  0.5784  1.2081
 7836TIP3    H244924   5.542   5.118  13.512 -1.3948  1.2058  1.7089
 7837TIP3   OH244925   1.510   0.966   3.017  0.8215  0.5009 -0.1449
 7837TIP3    H144926   1.419   0.943   3.037  0.4629  0.2954 -1.9970
 7837TIP3    H244927   1.559   0.937   3.094 -0.5811 -0.0478  0.5562
 7838TIP3   OH244928   0.377   5.414  15.259  0.1949  0.3729 -0.1964
 7838TIP3    H144929   0.324   5.482  15.301  0.0698 -0.6642  1.3585
 7838TIP3    H244930   0.459   5.413  15.309  0.1111 -0.7565 -0.0726
 7839TIP3   OH244931   4.356   2.411  12.585  0.4952 -0.1343  0.0198
 7839TIP3    H144932   4.329   2.464  12.660  0.8165 -0.3460  0.2861
 7839TIP3    H244933   4.328   2.461  12.509  1.6000  0.8521  0.2441
 7840TIP3   OH244934   5.056   3.532   1.707  0.1189  0.4083 -0.5942
 7840TIP3    H144935   5.031   3.443   1.683 -1.5714  0.1110  2.0126
 7840TIP3    H244936   5.128   3.521   1.768 -0.9443  0.7257  0.7457
 7841TIP3   OH244937   5.025   0.876   0.267  0.0725 -0.0470  0.2519
 7841TIP3    H144938   4.996   0.939   0.202  1.5100  0.7313  0.3624
 7841TIP3    H244939   5.119   0.892   0.277  0.2498 -1.4932  1.0453
 7842TIP3   OH244940   3.241   4.481  11.182  0.0099  0.6446  0.3862
 7842TIP3    H144941   3.198   4.490  11.267  1.4087 -0.9216  1.2914
 7842TIP3    H244942   3.270   4.570  11.161  0.3865  0.9239  1.9623
 7843TIP3   OH244943   0.964   6.341  12.470 -1.0830 -0.5264 -0.2052
 7843TIP3    H144944   0.889   6.357  12.414 -0.7292  1.2900 -0.1731
 7843TIP3    H244945   1.039   6.378  12.423 -0.5231 -0.4879  0.6957
 7844TIP3   OH244946   2.728   1.114   3.163  0.6543  0.3884 -0.2508
 7844TIP3    H144947   2.772   1.130   3.080 -2.4960 -2.1609 -2.4917
 7844TIP3    H244948   2.639   1.148   3.151 -0.4660 -1.8606  1.3479
 7845TIP3   OH244949   2.044   5.766  16.405  0.2180 -0.4205  0.2026
 7845TIP3    H144950   2.027   5.860  16.408 -0.4922 -0.5172 -0.4895
 7845TIP3    H244951   1.956   5.726  16.405  0.5037 -1.0537 -0.2664
 7846TIP3   OH244952   3.655   4.409   1.041 -0.4268 -0.0533  0.5515
 7846TIP3    H144953   3.645   4.488   1.095 -1.1709  0.7574 -0.7389
 7846TIP3    H244954   3.707   4.349   1.095 -0.4124  1.0706  1.8090
 7847TIP3   OH244955   3.506   4.058  17.106 -0.2301  0.3874  0.4732
 7847TIP3    H144956   3.484   3.997  17.177  1.2279  0.5979  1.1224
 7847TIP3    H244957   3.597   4.038  17.086 -0.8832 -0.2655 -1.9548
 7848TIP3   OH244958   4.448   2.414   4.840  0.5984 -0.2877 -0.0899
 7848TIP3    H144959   4.485   2.479   4.899 -1.7097  0.3912  0.6468
 7848TIP3    H244960   4.374   2.378   4.887  0.5855 -1.9682 -1.3520
 7849TIP3   OH244961   5.532   6.658   6.101 -0.3513 -0.6325  0.1653
 7849TIP3    H144962   5.453   6.653   6.156 -0.3250 -1.5790  0.1376
 7849TIP3    H244963   5.545   6.751   6.085 -0.0191 -0.3007  2.2584
 7850TIP3   OH244964   5.187   6.591  16.915  0.2334  0.4177  0.0122
 7850TIP3    H144965   5.175   6.497  16.902 -2.8012  0.7361  0.3374
 7850TIP3    H244966   5.253   6.596  16.985  1.4230 -1.4221 -0.9331
 7851TIP3   OH244967   5.259   6.176   1.917 -0.5184 -0.4297  0.8450
 7851TIP3    H144968   5.169   6.149   1.936 -0.4770  0.5208  2.5164
 7851TIP3    H244969   5.270   6.161   1.823 -2.6855  0.2014  0.4696
 7852TIP3   OH244970   1.522   2.728   0.162  0.1715 -0.2077  0.1859
 7852TIP3    H144971   1.555   2.703   0.248  2.3921  1.6669 -0.0636
 7852TIP3    H244972   1.570   2.809   0.141 -0.1926 -0.7307 -2.8711
 7853TIP3   OH244973   4.432   4.563   4.125  0.3000 -0.0516 -0.1258
 7853TIP3    H144974   4.416   4.480   4.169 -1.6854 -0.5105 -1.6498
 7853TIP3    H244975   4.360   4.620   4.153  0.2587  0.3584 -1.0302
 7854TIP3   OH244976   0.547   5.205   0.669 -0.9810 -0.2092  0.0983
 7854TIP3    H144977   0.569   5.135   0.608 -0.5612  0.3312 -0.3753
 7854TIP3    H244978   0.485   5.165   0.730 -0.3602 -1.1309  0.1287
 7855TIP3   OH244979   2.568   0.862   1.188  0.1100 -0.0532  0.2842
 7855TIP3    H144980   2.641   0.891   1.133 -0.6677  1.6607  0.1565
 7855TIP3    H244981   2.517   0.941   1.206 -2.7102 -1.4979 -1.0479
 7856TIP3   OH244982   2.426   0.349   0.852  0.2981 -0.5097 -0.2973
 7856TIP3    H144983   2.353   0.306   0.809 -0.1809  0.4243 -0.4361
 7856TIP3    H244984   2.483   0.377   0.781 -0.5655  1.1646 -0.3564
 7857TIP3   OH244985   1.742   4.355   1.654 -0.5588 -0.8703 -0.5155
 7857TIP3    H144986   1.710   4.442   1.633 -1.4837 -1.3496 -1.1320
 7857TIP3    H244987   1.819   4.343   1.599  0.1572 -0.0646  0.3025
 7858TIP3   OH244988   5.114   2.087  13.417  0.3440  0.1027  0.0808
 7858TIP3    H144989   5.064   2.006  13.428 -0.6893  0.5349 -1.2955
 7858TIP3    H244990   5.157   2.100  13.502  1.4591 -2.4686 -0.0444
 7859TIP3   OH244991   4.822   3.217  16.823  0.5108  0.0917 -0.0237
 7859TIP3    H144992   4.759   3.289  16.823 -0.6669 -0.9144 -0.4501
 7859TIP3    H244993   4.871   3.228  16.904  0.0665  1.1425  0.1108
 7860TIP3   OH244994   4.223   1.975  14.352 -0.1488  0.2541 -0.9902
 7860TIP3    H144995   4.308   1.949  14.388 -0.5482 -1.1023 -0.9942
 7860TIP3    H244996   4.228   2.071  14.346  1.0634  0.2539 -0.2204
 7861TIP3   OH244997   3.442   0.725   1.049  0.1058  0.2507  0.1284
 7861TIP3    H144998   3.390   0.700   0.972  1.3863 -1.7473 -0.1170
 7861TIP3    H244999   3.531   0.735   1.015  0.5081  0.2832  1.1756
 7862TIP3   OH245000   4.194   1.733   3.289 -0.1100 -1.1849  0.0243
 7862TIP3    H145001   4.240   1.654   3.317  0.4152 -0.6415  0.6939
 7862TIP3    H245002   4.110   1.729   3.335  0.8046 -0.2201  1.8148
 7863TIP3   OH245003   2.610   5.745  11.284 -0.5762 -0.2434 -0.4540
 7863TIP3    H145004   2.575   5.729  11.196 -1.7896  1.1081 -0.2376
 7863TIP3    H245005   2.548   5.806  11.323 -0.9355 -2.0826  1.9347
 7864TIP3   OH245006   6.164   3.926  11.425  0.1674  0.1763  0.1428
 7864TIP3    H145007   6.075   3.955  11.443  0.5419  0.4141  1.6469
 7864TIP3    H245008   6.194   3.886  11.507  1.6094  0.5215 -0.1939
 7865TIP3   OH245009   3.740   2.664  13.677  0.2400 -0.0618  0.2518
 7865TIP3    H145010   3.826   2.639  13.710 -0.1821 -1.1015  0.5979
 7865TIP3    H245011   3.757   2.734  13.614  1.3882 -0.7493 -0.2079
 7866TIP3   OH245012   2.998   1.445  12.444  0.5536 -0.2617  0.7373
 7866TIP3    H145013   2.917   1.430  12.493 -1.4640  1.6328 -1.8990
 7866TIP3    H245014   3.015   1.363  12.398 -0.3139 -0.4058  0.6733
 7867TIP3   OH245015   2.807   6.298  10.839 -0.1025 -0.7660  0.0240
 7867TIP3    H145016   2.816   6.286  10.933  1.1810 -0.7230 -0.0837
 7867TIP3    H245017   2.800   6.392  10.827  1.1878 -0.6739 -0.0349
 7868TIP3   OH245018   2.600   2.858  13.827  0.2499  0.1039 -0.6805
 7868TIP3    H145019   2.599   2.832  13.919  0.2510 -0.1864 -0.7637
 7868TIP3    H245020   2.693   2.862  13.804  0.3429  2.4204 -0.0334
 7869TIP3   OH245021   5.243   5.030   3.585 -0.2449  0.2656  0.1688
 7869TIP3    H145022   5.207   4.942   3.579 -3.2166  1.4856 -0.7941
 7869TIP3    H245023   5.171   5.084   3.617  2.0027  2.1106  2.4458
 7870TIP3   OH245024   0.240   6.602  15.703 -0.8030 -0.0501  0.2367
 7870TIP3    H145025   0.159   6.574  15.660  0.1242  0.0127 -1.6121
 7870TIP3    H245026   0.220   6.690  15.736 -1.2834  0.2591 -0.8380
 7871TIP3   OH245027   4.621   3.473   2.783 -0.1614  0.3911  0.0893
 7871TIP3    H145028   4.685   3.533   2.820  0.7954  0.5907 -1.8120
 7871TIP3    H245029   4.640   3.473   2.689 -0.6042 -2.3618 -0.0232
 7872TIP3   OH245030   1.592   4.365   0.558  0.0868  0.1378 -0.3597
 7872TIP3    H145031   1.525   4.330   0.616 -0.2294  0.6677 -0.4015
 7872TIP3    H245032   1.601   4.457   0.585  0.2827  0.2568 -0.8320
 7873TIP3   OH245033   2.205   6.571  13.288  0.2418 -0.6071  0.1997
 7873TIP3    H145034   2.179   6.593  13.199  0.9602 -1.6799 -0.2756
 7873TIP3    H245035   2.136   6.609  13.343  0.2149  0.7410 -0.7500
 7874TIP3   OH245036   2.724   5.201  16.522 -0.2341 -0.0496 -0.5420
 7874TIP3    H145037   2.767   5.119  16.547  1.5895  0.4710 -1.8701
 7874TIP3    H245038   2.631   5.183  16.533  0.2143 -1.8338  0.5676
 7875TIP3   OH245039   2.202   5.759   0.913 -0.1620 -0.6423  0.2872
 7875TIP3    H145040   2.183   5.791   0.825 -1.2980 -0.2391  0.6678
 7875TIP3    H245041   2.229   5.837   0.962  0.6610 -0.8989  0.2407
 7876TIP3   OH245042   1.423   3.494   1.335  0.4616  0.1873  0.2701
 7876TIP3    H145043   1.445   3.463   1.423  2.6935  1.1981  0.0986
 7876TIP3    H245044   1.475   3.574   1.324 -1.2625  1.1465 -1.2469
 7877TIP3   OH245045   1.604   0.208   2.714 -0.1176 -0.4863 -0.0868
 7877TIP3    H145046   1.693   0.232   2.689 -0.2041 -0.5997 -0.5090
 7877TIP3    H245047   1.602   0.113   2.705 -0.8023 -0.3302 -1.8208
 7878TIP3   OH245048   5.351   5.142   0.231 -0.5696  0.5138  0.0935
 7878TIP3    H145049   5.349   5.237   0.215  1.1456  0.3907 -0.9321
 7878TIP3    H245050   5.277   5.108   0.180 -1.2263  1.3084  0.5087
 7879TIP3   OH245051   4.766   1.476   0.394 -0.4682  0.0248  0.0035
 7879TIP3    H145052   4.774   1.411   0.463 -0.4976 -1.1093 -1.0499
 7879TIP3    H245053   4.803   1.556   0.431  0.3459 -0.8134  1.0046
 7880TIP3   OH245054   3.367   2.487   3.050  0.5831  0.1067  0.0836
 7880TIP3    H145055   3.391   2.396   3.065 -0.7414 -0.2341  0.1912
 7880TIP3    H245056   3.306   2.508   3.120  1.2330  1.2299  0.3300
 7881TIP3   OH245057   6.735   1.987   3.700 -0.4255 -0.5088 -0.4168
 7881TIP3    H145058   6.659   1.939   3.666 -1.7880  1.5285 -0.3061
 7881TIP3    H245059   6.727   2.075   3.664  0.8626  0.2665  1.1135
 7882TIP3   OH245060   5.510   4.058   0.153  0.1295 -0.2760 -0.1981
 7882TIP3    H145061   5.495   4.087   0.243 -1.5407 -0.1512 -0.5061
 7882TIP3    H245062   5.603   4.076   0.137 -0.1461  1.9867  0.6521
 7883TIP3   OH245063   6.369   5.632  11.797  0.4895  0.5336 -0.3565
 7883TIP3    H145064   6.451   5.665  11.761  1.1875 -1.6966 -0.8802
 7883TIP3    H245065   6.347   5.557  11.742 -0.3371 -0.6862  1.5829
 7884TIP3   OH245066   4.823   0.236   2.777  0.6922  0.2964 -0.2314
 7884TIP3    H145067   4.850   0.174   2.846 -0.4719  0.0139 -0.0269
 7884TIP3    H245068   4.809   0.319   2.823  0.1669  0.1725 -0.1655
 7885TIP3   OH245069   3.975   0.929   3.468  0.1227 -0.1927 -0.1987
 7885TIP3    H145070   3.976   0.861   3.401 -0.6997 -0.2499 -0.1535
 7885TIP3    H245071   4.061   0.971   3.460 -0.0526 -0.0453 -1.4417
 7886TIP3   OH245072   4.084   1.818  12.156 -0.0216  0.8265 -0.3666
 7886TIP3    H145073   4.054   1.909  12.160  0.1564  0.9053 -0.8964
 7886TIP3    H245074   4.143   1.815  12.081  0.0499  0.2957 -0.2902
 7887TIP3   OH245075   2.936   5.150  15.640 -0.1498 -0.0680 -0.0901
 7887TIP3    H145076   2.957   5.114  15.554 -0.1439 -1.6757  0.5676
 7887TIP3    H245077   2.854   5.198  15.627  0.8056  1.2585 -1.3810
 7888TIP3   OH245078   5.950   4.272  14.207 -0.3525 -0.1454  0.2344
 7888TIP3    H145079   5.983   4.191  14.168  0.0696  0.1743 -0.0746
 7888TIP3    H245080   5.979   4.341  14.147  0.1042  0.3275  0.9923
 7889TIP3   OH245081   3.470   5.706   1.546 -0.6906  0.4448  0.2086
 7889TIP3    H145082   3.441   5.752   1.624  0.5494  3.5426 -1.0846
 7889TIP3    H245083   3.399   5.719   1.483 -0.7280 -0.1983  0.1126
 7890TIP3   OH245084   3.481   0.286  15.758  0.4606 -0.3898 -0.2025
 7890TIP3    H145085   3.448   0.252  15.674 -0.7697  1.7138 -0.6170
 7890TIP3    H245086   3.422   0.250  15.823 -0.7169  0.7311 -0.6208
 7891TIP3   OH245087   3.317   6.392   0.130 -0.0068 -0.6822 -0.1117
 7891TIP3    H145088   3.392   6.339   0.155  0.4856 -0.4847 -1.1597
 7891TIP3    H245089   3.329   6.409   0.037  0.1740  1.8133  0.3336
 7892TIP3   OH245090   3.517   5.726  13.379 -0.0033 -0.4100  0.5003
 7892TIP3    H145091   3.517   5.671  13.301  1.7445 -0.2503  0.3605
 7892TIP3    H245092   3.581   5.795  13.359 -0.6642  0.4898  1.4711
 7893TIP3   OH245093   6.625   1.028  11.178  0.5396 -0.0064  0.3262
 7893TIP3    H145094   6.720   1.016  11.174  0.6515  0.9664 -0.0815
 7893TIP3    H245095   6.606   1.094  11.112 -0.3655  0.1767  0.7577
 7894TIP3   OH245096   2.161   3.440   0.750 -0.1047  0.2059  0.5506
 7894TIP3    H145097   2.162   3.535   0.736 -1.5352  0.1759  0.1414
 7894TIP3    H245098   2.252   3.418   0.771  0.3849  1.5621 -0.0514
 7895TIP3   OH245099   0.380   3.906   4.146 -0.2852  0.7417  0.3120
 7895TIP3    H145100   0.468   3.895   4.111  0.8892  2.2053  2.6556
 7895TIP3    H245101   0.326   3.844   4.096  2.0760 -0.2540 -1.0810
 7896TIP3   OH245102   2.220   2.553   2.865 -0.0159  0.2444  0.3796
 7896TIP3    H145103   2.190   2.464   2.885  0.2414  0.1463  0.3238
 7896TIP3    H245104   2.227   2.556   2.770  0.6699  0.1015  0.4257
 7897TIP3   OH245105   6.259   5.114   0.457  0.0465  0.3546  0.3852
 7897TIP3    H145106   6.269   5.037   0.400  0.2106  0.6482  0.0183
 7897TIP3    H245107   6.272   5.080   0.545 -0.9570 -0.2486  0.3116
 7898TIP3   OH245108   1.584   5.115   4.824 -0.1960  0.8395  0.2421
 7898TIP3    H145109   1.550   5.173   4.892 -2.0636 -0.6003  0.5784
 7898TIP3    H245110   1.506   5.082   4.779  0.8464 -1.0229 -0.2566
 7899TIP3   OH245111   2.239   3.123  13.731  0.1776  0.0999  0.6579
 7899TIP3    H145112   2.283   3.039  13.725  2.0472  1.0850  0.0885
 7899TIP3    H245113   2.210   3.142  13.641 -0.1482  0.1227  0.7637
 7900TIP3   OH245114   2.482   4.452   5.842  0.1744 -0.0829  0.0423
 7900TIP3    H145115   2.536   4.376   5.822  0.5808  0.4513 -0.9784
 7900TIP3    H245116   2.542   4.515   5.881  0.3632  0.5905 -1.2849
 7901TIP3   OH245117   2.773   0.361   5.622 -0.2294 -0.0859 -0.0717
 7901TIP3    H145118   2.736   0.400   5.701  0.3174 -0.9432  0.6229
 7901TIP3    H245119   2.843   0.421   5.596  0.3588 -0.3830  0.7752
 7902TIP3   OH245120   3.893   3.808   2.460  0.2577 -0.1062  0.3369
 7902TIP3    H145121   3.876   3.756   2.381  1.7902  1.6314 -1.2150
 7902TIP3    H245122   3.820   3.871   2.463 -1.6711 -2.3347  2.2913
 7903TIP3   OH245123   3.057   1.546  13.295  0.8997  0.1945  0.7229
 7903TIP3    H145124   2.985   1.488  13.269  0.6367  1.6665 -2.0041
 7903TIP3    H245125   3.136   1.493  13.286  0.4337 -0.4873  0.6299
 7904TIP3   OH245126   0.444   4.755  12.652 -0.6163  0.1190  0.0317
 7904TIP3    H145127   0.506   4.779  12.583  1.8856 -1.9167  1.5171
 7904TIP3    H245128   0.418   4.666  12.632 -0.1951 -0.3415  1.4757
 7905TIP3   OH245129   5.629   2.222  13.769 -0.1376 -0.0938 -0.1464
 7905TIP3    H145130   5.638   2.314  13.743  1.5834 -0.0905  0.4227
 7905TIP3    H245131   5.574   2.225  13.847 -1.8325  0.2561 -1.3319
 7906TIP3   OH245132   0.271   3.610   0.582  0.7328 -0.0821 -0.2738
 7906TIP3    H145133   0.339   3.608   0.650  0.9022  2.1890 -0.3257
 7906TIP3    H245134   0.261   3.519   0.555  1.8189 -0.8014  1.6559
 7907TIP3   OH245135   5.982   0.725   3.890 -0.2330 -0.2951  0.2498
 7907TIP3    H145136   5.998   0.810   3.850 -0.1751 -1.1374 -1.5455
 7907TIP3    H245137   5.894   0.701   3.862  0.0071 -1.1300  0.1906
 7908TIP3   OH245138   4.092   0.461  10.761 -0.3784  0.5849 -0.0962
 7908TIP3    H145139   4.090   0.416  10.845  2.2133  1.0339  0.2596
 7908TIP3    H245140   4.104   0.553  10.783  2.5331  0.4663 -0.9449
 7909TIP3   OH245141   4.687   6.253   5.315  0.1009 -0.1293 -0.4823
 7909TIP3    H145142   4.658   6.165   5.294 -1.5730  0.2725  0.1023
 7909TIP3    H245143   4.705   6.293   5.229  1.3972 -1.1933 -0.7205
 7910TIP3   OH245144   6.658   0.158   3.927 -0.3104  0.0609  0.0681
 7910TIP3    H145145   6.684   0.249   3.940 -0.0967  0.3815 -2.2943
 7910TIP3    H245146   6.585   0.162   3.866  0.4827 -1.3984 -1.0335
 7911TIP3   OH245147   0.859   4.385   2.237 -0.1688 -0.2670 -0.1276
 7911TIP3    H145148   0.860   4.478   2.257  1.0648 -0.6246  1.6115
 7911TIP3    H245149   0.952   4.361   2.233 -0.4865 -1.5887  0.2508
 7912TIP3   OH245150   1.452   0.627  11.033  0.2667 -0.1281  0.1716
 7912TIP3    H145151   1.403   0.592  10.959  1.4033  0.1831 -0.7546
 7912TIP3    H245152   1.525   0.565  11.044  1.7480  1.3592 -0.8645
 7913TIP3   OH245153   3.409   0.911   4.816 -0.1933 -0.0518 -0.2647
 7913TIP3    H145154   3.443   0.896   4.728 -2.0897 -0.6926 -0.9208
 7913TIP3    H245155   3.314   0.901   4.807 -0.3693 -0.7084  1.9589
 7914TIP3   OH245156   5.128   3.177   5.414 -0.4405 -0.4368 -0.5296
 7914TIP3    H145157   5.138   3.088   5.380  0.5676 -0.3889 -0.3686
 7914TIP3    H245158   5.196   3.184   5.482  0.3079  0.8794 -1.4091
 7915TIP3   OH245159   3.222   5.652  16.150 -0.3994 -0.2386 -0.5334
 7915TIP3    H145160   3.273   5.679  16.226 -0.3023 -1.5667 -0.1188
 7915TIP3    H245161   3.279   5.667  16.075  0.1440 -0.5590 -0.1831
 7916TIP3   OH245162   4.552   0.998   4.243  0.3154 -0.0919 -0.0065
 7916TIP3    H145163   4.553   0.949   4.325 -0.5728  1.4645  0.9620
 7916TIP3    H245164   4.644   1.008   4.220  0.6894  1.4950  2.0725
 7917TIP3   OH245165   6.634   5.760  16.923 -0.0854 -0.5466  0.3720
 7917TIP3    H145166   6.586   5.786  16.844 -0.2992 -0.5255  0.5094
 7917TIP3    H245167   6.695   5.692  16.892  1.4098  1.0360 -0.2501
 7918TIP3   OH245168   5.473   5.467   2.855 -0.2248 -0.3181 -0.9905
 7918TIP3    H145169   5.555   5.421   2.840 -1.1977 -3.6009  2.8103
 7918TIP3    H245170   5.483   5.507   2.941 -1.8000  1.1719 -1.4718
 7919TIP3   OH245171   4.512   1.140  14.623 -0.8317 -0.2537 -0.2237
 7919TIP3    H145172   4.457   1.083  14.569  0.4001 -0.4652 -1.2739
 7919TIP3    H245173   4.459   1.219  14.636 -2.0908 -1.1559  0.2924
 7920TIP3   OH245174   6.638   3.262   5.575 -0.2957 -0.1119 -0.1533
 7920TIP3    H145175   6.589   3.183   5.551 -0.9416  0.4618 -0.7423
 7920TIP3    H245176   6.728   3.242   5.550 -0.7345 -0.0505 -1.8285
 7921TIP3   OH245177   0.765   1.581   4.990 -0.6146 -0.5858 -0.8873
 7921TIP3    H145178   0.715   1.623   4.920 -0.0616  0.5150 -0.6301
 7921TIP3    H245179   0.771   1.489   4.963 -1.0931 -0.3341 -1.8846
 7922TIP3   OH245180   2.044   2.123   4.150 -0.1819 -0.0900  0.1134
 7922TIP3    H145181   1.969   2.065   4.157  0.2727 -0.9157 -1.5973
 7922TIP3    H245182   2.009   2.203   4.111 -0.3164 -0.1663  0.0788
 7923TIP3   OH245183   4.534   0.474   1.070 -0.7325  0.4061 -0.1178
 7923TIP3    H145184   4.472   0.516   1.129 -0.6157  0.4986 -0.0616
 7923TIP3    H245185   4.523   0.380   1.087  0.7265  0.5199  1.4847
 7924TIP3   OH245186   1.786   5.346   5.135  0.8497  0.2233 -0.5882
 7924TIP3    H145187   1.852   5.306   5.078  0.3075  0.0797 -1.1138
 7924TIP3    H245188   1.722   5.385   5.075  1.4470  2.0091 -0.0712
 7925TIP3   OH245189   6.106   6.099  15.382  0.1038 -0.3271 -0.3707
 7925TIP3    H145190   6.197   6.120  15.359 -0.7486  1.2165 -2.4572
 7925TIP3    H245191   6.055   6.130  15.307 -2.4179  1.2879  1.9639
 7926TIP3   OH245192   5.967   1.717  14.828  0.0466 -0.5996  0.1564
 7926TIP3    H145193   5.994   1.795  14.779  1.0647 -0.9145  0.2157
 7926TIP3    H245194   6.004   1.644  14.778  0.6476 -0.9479  1.1138
 7927TIP3   OH245195   6.111   2.731  16.712 -0.3859 -0.3693 -0.2572
 7927TIP3    H145196   6.029   2.765  16.748  0.6084  0.2838  1.4391
 7927TIP3    H245197   6.083   2.671  16.644 -2.3003 -0.2984  0.4174
 7928TIP3   OH245198   0.045   1.232  12.260  0.4439 -0.0318 -0.0166
 7928TIP3    H145199   0.108   1.228  12.332  1.3507 -1.2269 -0.8515
 7928TIP3    H245200   0.017   1.141  12.248 -1.0524  0.4171  0.0083
 7929TIP3   OH245201   2.915   1.667   0.603  0.3502 -0.6116  0.3676
 7929TIP3    H145202   2.837   1.614   0.619 -0.3493  1.0073  2.5637
 7929TIP3    H245203   2.987   1.604   0.601 -0.9282 -2.0809 -1.2681
 7930TIP3   OH245204   2.547   3.318   0.359 -0.2968  0.3826  0.1989
 7930TIP3    H145205   2.575   3.340   0.448 -0.5048 -0.5987  0.5165
 7930TIP3    H245206   2.596   3.377   0.302 -0.7234  1.5434  1.0133
 7931TIP3   OH245207   2.996   4.067  16.854 -0.2366 -0.0448  0.0343
 7931TIP3    H145208   2.946   4.147  16.867  0.2299  0.0644  1.2687
 7931TIP3    H245209   2.932   4.001  16.828 -0.8016  0.4350  0.2156
 7932TIP3   OH245210   6.035   5.118  12.243 -0.1523 -0.1854  0.5584
 7932TIP3    H145211   6.104   5.069  12.288  0.2055  1.1298  1.4631
 7932TIP3    H245212   6.061   5.116  12.151  0.8961 -0.0261  0.8442
 7933TIP3   OH245213   5.729   6.486  15.655 -0.2259  1.1536 -0.2921
 7933TIP3    H145214   5.655   6.426  15.642 -0.2195  0.9349  0.6682
 7933TIP3    H245215   5.703   6.540  15.730  1.3132 -0.0342  1.1047
 7934TIP3   OH245216   3.890   4.344   1.928 -0.4574  0.0606  0.3643
 7934TIP3    H145217   3.832   4.383   1.993 -1.2189 -0.5246  0.0541
 7934TIP3    H245218   3.832   4.289   1.875  0.3185 -0.2186 -0.2033
 7935TIP3   OH245219   0.752   4.269  11.432  0.1872 -0.2875 -0.0630
 7935TIP3    H145220   0.784   4.263  11.522 -1.0823  0.7605  0.4738
 7935TIP3    H245221   0.829   4.297  11.381  0.1767  2.2056  1.2062
 7936TIP3   OH245222   0.403   5.234  12.867 -0.4152 -0.5421 -0.2233
 7936TIP3    H145223   0.466   5.164  12.854 -0.8036 -0.8944 -0.2048
 7936TIP3    H245224   0.326   5.207  12.818 -1.1560 -0.9026  1.1081
 7937TIP3   OH245225   6.524   1.796  13.374 -0.6600 -0.2211 -0.1016
 7937TIP3    H145226   6.492   1.784  13.463 -1.8872  0.5943 -0.4315
 7937TIP3    H245227   6.619   1.802  13.384 -0.8339  0.5249  1.2258
 7938TIP3   OH245228   1.917   1.579  16.395  0.2665  0.5339  0.4590
 7938TIP3    H145229   1.922   1.652  16.457 -0.9502  0.1970  0.9731
 7938TIP3    H245230   1.893   1.503  16.448  1.4913 -0.2387 -0.0766
 7939TIP3   OH245231   1.000   0.828  14.558  0.3538  0.7000 -0.2635
 7939TIP3    H145232   1.022   0.900  14.617 -0.2988  0.3208  0.4478
 7939TIP3    H245233   0.951   0.869  14.487 -0.2891  0.9126  0.2991
 7940TIP3   OH245234   2.517   5.909  16.101  0.3533  0.5085 -0.3576
 7940TIP3    H145235   2.531   5.995  16.140  1.2079  0.4020 -0.4328
 7940TIP3    H245236   2.480   5.856  16.172  2.4318  0.1511  0.4899
 7941TIP3   OH245237   0.111   4.186  13.610  0.1791 -0.1513 -0.3186
 7941TIP3    H145238   0.097   4.248  13.682 -4.1371 -0.9473 -0.3435
 7941TIP3    H245239   0.086   4.101  13.646  1.1956 -1.1025 -1.8037
 7942TIP3   OH245240   4.876   2.356   5.108 -0.3500 -0.0287  0.2332
 7942TIP3    H145241   4.841   2.278   5.153  0.6719  0.3713  1.7456
 7942TIP3    H245242   4.868   2.335   5.015 -1.0056 -1.5375  0.6108
 7943TIP3   OH245243   5.074   5.205   4.786 -0.7155  0.5307  0.3488
 7943TIP3    H145244   5.007   5.137   4.794 -0.7940  0.6679  0.8835
 7943TIP3    H245245   5.082   5.219   4.692 -0.1595 -0.7552  0.1943
 7944TIP3   OH245246   0.770   3.983  15.857 -0.1746 -0.1160 -0.6434
 7944TIP3    H145247   0.780   3.888  15.855  0.4220 -0.0383 -2.3045
 7944TIP3    H245248   0.821   4.014  15.782 -0.0572  1.5422  0.1044
 7945TIP3   OH245249   5.675   4.181  11.193  0.4744  0.0528 -0.2069
 7945TIP3    H145250   5.709   4.096  11.221 -0.4633  0.1229  1.1896
 7945TIP3    H245251   5.602   4.198  11.252 -0.7085  0.8378 -1.8760
 7946TIP3   OH245252   5.187   0.619   1.877 -0.4659 -0.1481  0.5008
 7946TIP3    H145253   5.218   0.572   1.954  1.0984 -0.0485 -0.0623
 7946TIP3    H245254   5.264   0.630   1.822 -1.8421 -1.5521 -1.7893
 7947TIP3   OH245255   6.272   0.499   0.982 -0.3097 -0.0598 -0.0316
 7947TIP3    H145256   6.239   0.436   0.917 -0.2934 -0.7030  0.5828
 7947TIP3    H245257   6.237   0.468   1.065 -0.3507  0.7867  0.2662
 7948TIP3   OH245258   6.362   6.340   1.186  0.6318  0.0514 -0.7867
 7948TIP3    H145259   6.411   6.358   1.266  1.3757 -2.8607 -0.5062
 7948TIP3    H245260   6.427   6.346   1.116  0.6156 -0.2272 -0.8276
 7949TIP3   OH245261   4.646   2.200  16.633 -0.0006  0.2930 -0.0107
 7949TIP3    H145262   4.609   2.288  16.638  1.2925  0.9283 -1.4708
 7949TIP3    H245263   4.724   2.209  16.579  1.1099 -1.4369  1.2423
 7950TIP3   OH245264   6.291   0.825  11.597 -0.1234 -0.2577 -0.3830
 7950TIP3    H145265   6.234   0.754  11.626 -1.7269  1.1478 -0.0139
 7950TIP3    H245266   6.372   0.782  11.571 -0.9103 -2.1687  0.2716
 7951TIP3   OH245267   3.942   5.619   1.850  0.5963 -0.3683 -0.6158
 7951TIP3    H145268   3.912   5.663   1.929 -0.1079  0.2884 -1.2432
 7951TIP3    H245269   3.862   5.591   1.805  0.9313  0.4408 -1.7581
 7952TIP3   OH245270   4.649   2.425   3.997 -0.0034 -0.2812  0.1850
 7952TIP3    H145271   4.667   2.331   3.996 -0.5907 -0.3895 -1.6535
 7952TIP3    H245272   4.554   2.431   4.003 -0.0160  0.1825 -0.4739
 7953TIP3   OH245273   2.677   5.945  14.071 -0.2884 -0.1084 -0.4984
 7953TIP3    H145274   2.610   5.996  14.116  1.4886 -0.2986  2.5800
 7953TIP3    H245275   2.739   6.010  14.039  0.7017 -0.1195  1.2781
 7954TIP3   OH245276   2.671   3.119   5.019  0.2703  0.1555 -0.0185
 7954TIP3    H145277   2.579   3.095   5.025 -0.5894  2.7346 -1.9016
 7954TIP3    H245278   2.714   3.041   4.984 -1.5174 -0.4003 -1.0203
 7955TIP3   OH245279   0.950   3.351  11.354 -0.4726  0.1509  0.1962
 7955TIP3    H145280   0.876   3.371  11.295  0.2567  0.3207 -0.6701
 7955TIP3    H245281   1.028   3.370  11.301  0.1933  0.6840  1.3590
 7956TIP3   OH245282   4.839   6.519   4.867 -0.4127  0.0998 -0.2458
 7956TIP3    H145283   4.885   6.559   4.941 -0.8663 -1.4994  0.9381
 7956TIP3    H245284   4.901   6.522   4.795  0.9823 -0.6055  0.9104
 7957TIP3   OH245285   0.128   3.256  15.310 -0.2833  0.1295 -0.9307
 7957TIP3    H145286   0.068   3.223  15.377 -0.2341  1.0776 -0.4089
 7957TIP3    H245287   0.183   3.319  15.356  1.8608 -1.5247 -1.1564
 7958TIP3   OH245288   2.635   2.506   6.543 -0.2068  0.9540 -0.2947
 7958TIP3    H145289   2.670   2.594   6.548 -3.1417  2.1864 -0.3013
 7958TIP3    H245290   2.662   2.474   6.457  2.2606  1.1822  0.3562
 7959TIP3   OH245291   1.976   1.021   4.042 -0.4565 -0.1622 -0.3166
 7959TIP3    H145292   2.068   1.045   4.030  0.1180 -2.1982 -0.0837
 7959TIP3    H245293   1.952   0.976   3.960 -1.0304 -0.3135 -0.0701
 7960TIP3   OH245294   0.177   4.614  12.392 -0.0595 -0.3629 -0.1526
 7960TIP3    H145295   0.137   4.530  12.368  0.9520 -1.1073  0.7101
 7960TIP3    H245296   0.264   4.590  12.423  0.9293  1.2064 -1.6512
 7961TIP3   OH245297   1.692   2.610   3.120  0.5456  0.1038 -0.0581
 7961TIP3    H145298   1.723   2.681   3.176  1.5033  0.0175 -0.4548
 7961TIP3    H245299   1.610   2.581   3.159  1.9172 -0.9307  2.1196
 7962TIP3   OH245300   0.342   1.001  12.101 -0.7207 -0.0803 -0.6103
 7962TIP3    H145301   0.331   1.066  12.170  0.6528 -0.2612 -0.2048
 7962TIP3    H245302   0.254   0.967  12.086 -1.4146  1.7130 -0.6841
 7963TIP3   OH245303   5.890   0.363  15.051  0.0841 -0.0217  0.1447
 7963TIP3    H145304   5.944   0.357  15.130 -0.4504  1.5904  0.6628
 7963TIP3    H245305   5.896   0.455  15.026  0.6717 -0.6206 -2.0176
 7964TIP3   OH245306   1.362   2.327   1.082  0.5745  0.2753  0.0586
 7964TIP3    H145307   1.332   2.257   1.140  0.4003  0.9933  0.8517
 7964TIP3    H245308   1.449   2.349   1.114  0.2211  1.1108  0.4642
 7965TIP3   OH245309   0.087   3.126  13.019 -0.0560  0.3433 -0.0553
 7965TIP3    H145310   0.048   3.204  12.978  0.7687  0.3472 -0.8517
 7965TIP3    H245311   0.096   3.063  12.947  0.5436  0.0107  0.3071
 7966TIP3   OH245312   2.321   3.012   1.114 -0.1110  0.0412 -0.1886
 7966TIP3    H145313   2.339   2.927   1.154 -0.4202 -0.2117 -0.5766
 7966TIP3    H245314   2.283   2.991   1.029 -1.9976  0.5478  0.4962
 7967TIP3   OH245315   1.031   1.983   6.500 -0.5071  0.1358 -0.1557
 7967TIP3    H145316   1.052   1.893   6.476  1.3185  0.0269  1.7500
 7967TIP3    H245317   0.961   2.008   6.439 -0.8494 -2.4519 -0.8853
 7968TIP3   OH245318   3.560   1.421  16.240  0.0210  0.8724 -0.3008
 7968TIP3    H145319   3.593   1.505  16.272 -1.5004  1.1240  0.6297
 7968TIP3    H245320   3.504   1.388  16.310  0.7909 -1.0561 -0.5438
 7969TIP3   OH245321   5.436   2.312   3.483  0.2801  0.0396  0.5670
 7969TIP3    H145322   5.391   2.227   3.485  0.2032  0.0688  0.2450
 7969TIP3    H245323   5.512   2.297   3.426  1.4581 -0.3823  2.2299
 7970TIP3   OH245324   5.933   2.262   5.586 -0.0238  0.2497 -0.3851
 7970TIP3    H145325   5.900   2.264   5.675  1.8854  1.2776  0.3357
 7970TIP3    H245326   6.004   2.197   5.588  0.9977  1.3257 -0.7764
 7971TIP3   OH245327   6.263   0.865  15.669  0.5662 -0.2175  0.0800
 7971TIP3    H145328   6.259   0.907  15.583 -0.2783 -1.4269 -0.4828
 7971TIP3    H245329   6.288   0.774  15.651 -1.4942 -0.9863  0.9267
 7972TIP3   OH245330   5.445   6.625  10.551  0.1638 -0.3465 -0.7406
 7972TIP3    H145331   5.377   6.645  10.486 -0.3585 -0.6988 -0.3116
 7972TIP3    H245332   5.514   6.689  10.534  0.7871 -1.4967 -2.7220
 7973TIP3   OH245333   4.023   5.554   3.986 -0.2524  0.3541  0.5029
 7973TIP3    H145334   4.086   5.576   3.918  0.3671 -1.3639  0.5034
 7973TIP3    H245335   3.975   5.635   4.001 -0.1101  0.8590 -1.6647
 7974TIP3   OH245336   1.246   0.807  16.644  0.0419 -0.6105 -0.1981
 7974TIP3    H145337   1.235   0.734  16.705 -1.2981 -0.8927 -0.7554
 7974TIP3    H245338   1.213   0.773  16.561 -1.0550  0.8070 -0.3449
 7975TIP3   OH245339   1.665   3.534   5.357 -0.0064 -0.4681  0.4628
 7975TIP3    H145340   1.699   3.448   5.331  0.2816 -0.1890 -0.0656
 7975TIP3    H245341   1.696   3.545   5.447  2.5293  0.4180 -0.4701
 7976TIP3   OH245342   4.568   3.976  13.336  0.7410  0.2905 -0.3417
 7976TIP3    H145343   4.557   4.041  13.266 -0.1145 -1.4019 -1.7999
 7976TIP3    H245344   4.657   3.943  13.324  0.1761 -0.8943 -1.4503
 7977TIP3   OH245345   6.007   0.066  15.811 -0.5034  0.1043  0.3222
 7977TIP3    H145346   5.988  -0.027  15.826 -1.8174  0.2428 -0.4002
 7977TIP3    H245347   6.000   0.077  15.716 -0.8105  1.0303  0.4424
 7978TIP3   OH245348   4.394   6.264   1.305 -0.1986 -0.0466 -0.4439
 7978TIP3    H145349   4.330   6.262   1.233  0.1813 -1.3521 -0.7593
 7978TIP3    H245350   4.399   6.174   1.335 -1.0945  0.6450  1.9149
 7979TIP3   OH245351   3.093   5.381   2.627 -0.2274  0.0212 -0.0232
 7979TIP3    H145352   3.027   5.362   2.560  2.1182  1.5513 -2.9313
 7979TIP3    H245353   3.118   5.295   2.661 -2.4535 -0.6861 -0.1074
 7980TIP3   OH245354   0.241   3.664   4.981  0.1636 -0.4094 -0.4351
 7980TIP3    H145355   0.157   3.667   4.935 -0.3251 -0.6041  0.4428
 7980TIP3    H245356   0.220   3.634   5.069  1.0724  0.1291 -0.0218
 7981TIP3   OH245357   2.302   0.261   3.322 -0.0117  0.3417 -0.0718
 7981TIP3    H145358   2.369   0.270   3.255  0.1880 -3.8814 -0.5918
 7981TIP3    H245359   2.347   0.281   3.405  0.9619  0.9775 -0.7471
 7982TIP3   OH245360   0.221   2.649  14.580  0.6385  0.2267  0.4210
 7982TIP3    H145361   0.276   2.725  14.560 -0.0394  0.1259 -2.0470
 7982TIP3    H245362   0.259   2.578  14.528 -0.6694 -0.3086  0.1840
 7983TIP3   OH245363   3.008   3.457   1.508 -0.2780  0.5823 -0.3376
 7983TIP3    H145364   2.932   3.410   1.475 -0.5246  0.2406  0.6815
 7983TIP3    H245365   2.987   3.474   1.600  0.9563  0.3139 -0.0007
 7984TIP3   OH245366   2.078   2.880   5.974 -0.1842  0.0061  0.0863
 7984TIP3    H145367   2.142   2.926   6.029  1.0956 -0.4518 -1.0021
 7984TIP3    H245368   2.123   2.799   5.948 -1.5622 -0.7765  0.0823
 7985TIP3   OH245369   3.405   5.019  11.756 -0.2343  0.1101 -0.2038
 7985TIP3    H145370   3.408   5.028  11.661  0.0973 -3.1197 -0.5735
 7985TIP3    H245371   3.311   5.013  11.777 -0.2566 -0.8906 -0.5549
 7986TIP3   OH245372   6.736   6.368  15.944 -0.3892 -0.3062  0.7087
 7986TIP3    H145373   6.664   6.316  15.979  1.1538 -3.1841 -0.2432
 7986TIP3    H245374   6.792   6.385  16.019 -1.1304  0.4235  1.1101
 7987TIP3   OH245375   1.155   4.164   2.941  0.0131 -0.3418 -0.4884
 7987TIP3    H145376   1.236   4.118   2.960 -0.3803 -0.8172  0.0532
 7987TIP3    H245377   1.147   4.229   3.010  1.5111  1.8161 -2.2750
 7988TIP3   OH245378   0.127   1.500  11.607 -0.1975  0.8412  0.3660
 7988TIP3    H145379   0.197   1.453  11.562 -0.3459  1.0666 -0.1020
 7988TIP3    H245380   0.047   1.471  11.564 -0.2410  2.0333 -0.3861
 7989TIP3   OH245381   2.531   4.866  13.494 -0.7164 -0.2311 -0.2907
 7989TIP3    H145382   2.529   4.916  13.576 -2.0710  1.7938 -1.4925
 7989TIP3    H245383   2.561   4.779  13.520  0.0489  0.6910  2.1616
 7990TIP3   OH245384   6.022   6.376   2.808 -0.5788  0.3056  0.0434
 7990TIP3    H145385   6.007   6.470   2.809  0.8354  0.5406 -0.3205
 7990TIP3    H245386   5.941   6.340   2.770 -0.6412  1.4649 -0.9813
 7991TIP3   OH245387   0.213   1.939  15.016 -0.6041  0.9563  0.5235
 7991TIP3    H145388   0.252   1.889  15.088 -0.6727 -1.2972 -0.9731
 7991TIP3    H245389   0.134   1.892  14.993  0.0344  0.9791 -1.8207
 7992TIP3   OH245390   5.425   2.628  13.595 -0.1522 -0.3785 -0.1271
 7992TIP3    H145391   5.395   2.707  13.640 -0.1020 -0.8162  0.6979
 7992TIP3    H245392   5.457   2.658  13.510 -0.0932  0.4870  0.2033
 7993TIP3   OH245393   4.292   3.392   1.914  0.1856 -0.7595  0.0902
 7993TIP3    H145394   4.276   3.419   1.824 -0.2497  0.3888  0.4990
 7993TIP3    H245395   4.302   3.297   1.910  0.1857 -0.7072 -1.1650
 7994TIP3   OH245396   0.443   4.180   1.850 -0.6347  0.4814 -0.6387
 7994TIP3    H145397   0.499   4.103   1.850 -0.0457  0.8934  0.8885
 7994TIP3    H245398   0.389   4.171   1.772 -1.3433 -2.0533  0.1144
 7995TIP3   OH245399   5.596   4.360   5.228 -0.1207  0.2912  0.3513
 7995TIP3    H145400   5.682   4.320   5.227 -0.0395  0.3309  2.3942
 7995TIP3    H245401   5.608   4.444   5.184  0.7928  0.1176  0.2600
 7996TIP3   OH245402   4.915   2.112  11.928  0.5241  0.1292 -0.0988
 7996TIP3    H145403   4.893   2.206  11.932  0.3531  0.0880 -0.0159
 7996TIP3    H245404   4.875   2.082  11.847 -1.1458 -0.2931  0.8563
 7997TIP3   OH245405   1.106   5.639  16.839 -0.1580  0.2061 -0.1775
 7997TIP3    H145406   1.183   5.614  16.890 -0.4112  0.5630  0.3825
 7997TIP3    H245407   1.121   5.600  16.753  1.0101  0.9211 -0.3129
 7998TIP3   OH245408   3.889   1.073  14.388 -0.1307  0.3904 -0.1812
 7998TIP3    H145409   3.982   1.063  14.368 -0.6103 -1.1226 -1.8000
 7998TIP3    H245410   3.851   0.988  14.366 -2.0784  1.3436 -0.5833
 7999TIP3   OH245411   2.654   0.317  16.740 -0.1639 -0.0265  0.6197
 7999TIP3    H145412   2.675   0.227  16.766  0.6769  0.3844  1.3924
 7999TIP3    H245413   2.568   0.310  16.697 -0.4692 -1.0758  1.3767
 8000TIP3   OH245414   6.023   5.008  17.113  0.4302  0.3595 -0.4946
 8000TIP3    H145415   6.044   4.987  17.204 -0.1149  0.4438 -0.3488
 8000TIP3    H245416   5.962   5.082  17.119 -1.4641 -1.1287 -0.8364
 8001TIP3   OH245417   2.517   4.518  11.228  0.1682  0.1660  0.4825
 8001TIP3    H145418   2.540   4.466  11.151 -0.6540  0.4503  0.0342
 8001TIP3    H245419   2.537   4.608  11.203 -1.1590  0.3942  0.1668
 8002TIP3   OH245420   1.834   0.552   5.366  0.3393  0.0718 -0.1147
 8002TIP3    H145421   1.867   0.610   5.435  0.0811 -0.2508  0.2848
 8002TIP3    H245422   1.823   0.608   5.290  2.1109  0.1364 -0.3653
 8003TIP3   OH245423   3.068   2.693  16.674 -0.3091 -0.7832  1.0060
 8003TIP3    H145424   3.023   2.777  16.661 -2.3747 -1.8429  1.2596
 8003TIP3    H245425   3.051   2.671  16.765  0.7027 -1.2260  1.0920
 8004TIP3   OH245426   1.873   1.905   4.200 -0.4419  0.8056  0.2391
 8004TIP3    H145427   1.787   1.876   4.231 -1.7191  1.2920 -2.7179
 8004TIP3    H245428   1.876   1.878   4.108  2.6733  0.5892  0.3452
 8005TIP3   OH245429   2.533   4.184   3.453 -0.2135  0.0200 -0.2238
 8005TIP3    H145430   2.476   4.162   3.527 -0.1337 -0.3491 -0.2728
 8005TIP3    H245431   2.475   4.185   3.377 -0.2685  0.2571 -0.1784
 8006TIP3   OH245432   5.140   5.372  16.188 -0.1772 -0.2458  0.0876
 8006TIP3    H145433   5.080   5.325  16.131  0.2141 -0.0910 -0.4695
 8006TIP3    H245434   5.204   5.411  16.127 -0.7760  1.4080  0.4747
 8007TIP3   OH245435   0.536   1.245  13.739 -0.2453 -0.4904  0.1897
 8007TIP3    H145436   0.563   1.327  13.696 -1.0088  0.0718  0.7729
 8007TIP3    H245437   0.457   1.218  13.693  0.1820 -1.0717 -0.2072
 8008TIP3   OH245438   4.658   0.849   0.368  0.0933  0.3335 -0.4658
 8008TIP3    H145439   4.654   0.756   0.344  1.5735  0.2716 -0.5147
 8008TIP3    H245440   4.666   0.894   0.284  1.4826  0.3602 -0.3309
 8009TIP3   OH245441   6.498   3.732   6.278 -0.4690  0.0972 -0.2524
 8009TIP3    H145442   6.446   3.801   6.319  0.6096  0.9172 -0.2412
 8009TIP3    H245443   6.589   3.756   6.297 -0.0038 -0.2575 -1.9349
 8010TIP3   OH245444   0.398   6.459   5.040 -0.4860 -0.2468 -0.0280
 8010TIP3    H145445   0.359   6.431   5.122  0.8188 -0.2680  0.6021
 8010TIP3    H245446   0.375   6.390   4.978 -2.0893  0.1338  0.1352
 8011TIP3   OH245447   2.242   3.752   3.461 -0.1764 -0.2320  0.0477
 8011TIP3    H145448   2.169   3.814   3.455  1.2111  1.4543 -0.0986
 8011TIP3    H245449   2.229   3.709   3.545 -2.2306 -1.1449 -0.7068
 8012TIP3   OH245450   4.977   3.370   2.830 -0.1743 -0.0372 -0.2860
 8012TIP3    H145451   4.922   3.318   2.889  1.1485 -0.4708  0.5784
 8012TIP3    H245452   4.934   3.362   2.745 -0.9186 -1.1724  0.1738
 8013TIP3   OH245453   0.080   4.111   5.277 -0.0674 -0.5978  0.0427
 8013TIP3    H145454   0.149   4.127   5.213 -0.0985  1.2408  0.4673
 8013TIP3    H245455   0.001   4.145   5.235 -0.2611 -0.3165  0.6335
 8014TIP3   OH245456   1.618   5.001   2.638 -0.3054 -0.0039  0.2337
 8014TIP3    H145457   1.691   5.012   2.577 -1.2517  1.0205 -0.7315
 8014TIP3    H245458   1.614   5.085   2.685 -1.4117  0.2493 -0.3192
 8015TIP3   OH245459   3.381   4.464   4.878  0.1909  0.1043 -0.4196
 8015TIP3    H145460   3.475   4.465   4.860  0.5894 -0.9143  1.5016
 8015TIP3    H245461   3.374   4.488   4.970 -1.3432 -1.1389 -0.1952
 8016TIP3   OH245462   2.674   5.229  12.276 -0.2265 -0.4042  0.2558
 8016TIP3    H145463   2.711   5.288  12.342  1.3714  0.4722 -1.3764
 8016TIP3    H245464   2.582   5.255  12.269  0.2994  1.5227  0.0134
 8017TIP3   OH245465   0.966   1.927   5.943  0.0437 -0.1937  0.3389
 8017TIP3    H145466   1.011   1.860   5.892  0.4509  0.1282  0.2708
 8017TIP3    H245467   0.974   1.898   6.034 -0.8517 -0.8690  0.2123
 8018TIP3   OH245468   2.014   1.689  16.741 -0.1317  0.2038 -0.1413
 8018TIP3    H145469   2.037   1.781  16.726  0.6981  0.4985  2.6261
 8018TIP3    H245470   1.929   1.678  16.697  0.8670  1.6075 -2.5438
 8019TIP3   OH245471   0.933   0.148   2.545 -0.3965 -0.2112 -0.4458
 8019TIP3    H145472   0.897   0.227   2.584 -0.9672 -0.5099 -0.3531
 8019TIP3    H245473   0.914   0.079   2.609 -1.3960 -0.7116 -1.2609
 8020TIP3   OH245474   5.546   3.040  10.976  1.0465 -0.0388 -0.6103
 8020TIP3    H145475   5.627   2.992  10.992  0.6142 -0.5844 -0.0155
 8020TIP3    H245476   5.500   2.988  10.910  0.6615 -0.3427 -0.1031
 8021TIP3   OH245477   5.718   1.131  13.948 -0.6172 -0.2871 -0.0428
 8021TIP3    H145478   5.739   1.056  13.892  0.1272  0.2375 -0.4756
 8021TIP3    H245479   5.678   1.195  13.888  0.6099  0.4630 -0.0704
 8022TIP3   OH245480   2.630   2.207  14.657 -0.5102 -0.2593 -0.0434
 8022TIP3    H145481   2.540   2.237  14.649 -0.6765 -0.4544  1.1314
 8022TIP3    H245482   2.639   2.179  14.748  1.1894  1.2995  0.3185
 8023TIP3   OH245483   6.462   0.474   3.162  0.7123  0.0632  0.6163
 8023TIP3    H145484   6.438   0.566   3.152  0.9205  0.1880  1.2858
 8023TIP3    H245485   6.518   0.455   3.087  0.8248  0.5328  0.5848
 8024TIP3   OH245486   0.582   4.920  15.294  0.2757 -0.2811  0.3912
 8024TIP3    H145487   0.617   4.859  15.229 -0.4633 -0.6536  0.3440
 8024TIP3    H245488   0.566   5.001  15.244 -0.3829 -0.5972  0.0885
 8025TIP3   OH245489   4.682   3.389  14.426 -0.2060  0.3314  0.0271
 8025TIP3    H145490   4.648   3.367  14.340 -0.9342 -0.9281  0.6329
 8025TIP3    H245491   4.614   3.443  14.466  0.4302  1.5045 -0.4345
 8026TIP3   OH245492   4.793   3.606  13.325 -0.3998 -0.1925 -0.5873
 8026TIP3    H145493   4.729   3.536  13.320 -0.1570 -0.3733 -1.3316
 8026TIP3    H245494   4.878   3.562  13.316 -0.3036  0.3125 -2.3021
 8027TIP3   OH245495   3.812   4.675  16.250  1.2401  0.0841  0.3671
 8027TIP3    H145496   3.819   4.770  16.256 -0.6418  0.3090 -0.7778
 8027TIP3    H245497   3.893   4.647  16.207  0.8128  1.3652 -1.2802
 8028TIP3   OH245498   1.539   3.876  12.636 -0.1570 -0.2935  0.6712
 8028TIP3    H145499   1.605   3.838  12.695 -0.6163  1.5632  2.4259
 8028TIP3    H245500   1.468   3.904  12.694 -0.9406  0.9087 -0.8508
 8029TIP3   OH245501   6.679   2.954   5.025 -0.4643  0.4341 -0.1564
 8029TIP3    H145502   6.628   2.950   4.944  1.4524 -0.5812 -1.3502
 8029TIP3    H245503   6.769   2.972   4.996  0.3194 -0.2934  1.7140
 8030TIP3   OH245504   1.160   0.852  12.262  0.2083 -0.3230 -0.2653
 8030TIP3    H145505   1.255   0.864  12.257  0.4052 -0.4558  2.3327
 8030TIP3    H245506   1.130   0.925  12.317 -1.1228 -0.5777 -0.6460
 8031TIP3   OH245507   4.045   6.355  15.992 -0.2072 -0.0079 -0.0094
 8031TIP3    H145508   4.119   6.335  16.050 -0.6512  1.3924  1.0666
 8031TIP3    H245509   4.082   6.412  15.925  0.2655 -1.4843 -1.0506
 8032TIP3   OH245510   6.582   4.169   4.648 -0.1104 -0.0479  0.6874
 8032TIP3    H145511   6.570   4.104   4.716  0.1595  0.6159  1.3715
 8032TIP3    H245512   6.501   4.221   4.649 -0.1533 -0.1043  0.4198
 8033TIP3   OH245513   3.341   4.468   2.318  0.0698 -0.2180  0.3418
 8033TIP3    H145514   3.390   4.410   2.376  2.5837  1.3312 -0.1324
 8033TIP3    H245515   3.390   4.466   2.235 -1.5580  0.1859 -0.6548
 8034TIP3   OH245516   2.827   5.173  15.393  0.1808  0.5169  0.5675
 8034TIP3    H145517   2.894   5.126  15.343 -1.1991 -0.9667  0.0907
 8034TIP3    H245518   2.862   5.262  15.400  1.8200 -0.0171 -0.3963
 8035TIP3   OH245519   5.197   2.564  11.277  0.3097  0.4569  0.2889
 8035TIP3    H145520   5.217   2.472  11.292 -1.3064 -0.0144 -0.2750
 8035TIP3    H245521   5.102   2.565  11.261  0.4490  2.1023 -0.5427
 8036TIP3   OH245522   1.736   0.892   4.733  0.4002  0.1373 -0.0472
 8036TIP3    H145523   1.816   0.938   4.757  1.7498 -1.1051 -1.9731
 8036TIP3    H245524   1.757   0.850   4.649 -1.4250 -2.2891  0.6511
 8037TIP3   OH245525   0.599   4.724  15.087  0.3937 -0.3648 -0.3623
 8037TIP3    H145526   0.513   4.686  15.104  0.7359 -1.1489 -0.3275
 8037TIP3    H245527   0.660   4.654  15.110  1.0738  0.5133  0.5251
 8038TIP3   OH245528   2.308   2.872  13.514  0.3639  0.0481 -0.0131
 8038TIP3    H145529   2.389   2.868  13.463 -1.0645 -1.3770 -2.2436
 8038TIP3    H245530   2.326   2.820  13.593  1.9672  0.7163  0.0850
 8039TIP3   OH245531   5.088   5.151   5.233  0.3694  0.3531  0.0213
 8039TIP3    H145532   5.004   5.170   5.274 -0.5588 -1.7724 -0.8355
 8039TIP3    H245533   5.145   5.129   5.307 -0.1183  0.6929  0.5088
 8040TIP3   OH245534   0.448   0.030  13.590 -0.3465 -0.7028 -0.0488
 8040TIP3    H145535   0.361   0.040  13.553 -0.7374 -0.9584  0.7864
 8040TIP3    H245536   0.495   0.110  13.565 -1.1038 -0.1574  0.2738
 8041TIP3   OH245537   0.647   2.444  11.194 -0.6520 -0.1302  0.3694
 8041TIP3    H145538   0.726   2.424  11.245 -1.0729 -2.0497  0.2911
 8041TIP3    H245539   0.672   2.520  11.141  1.1689 -0.7403  0.2967
 8042TIP3   OH245540   0.825   3.792   4.306  0.1514  0.4445 -0.0371
 8042TIP3    H145541   0.854   3.877   4.271  0.5380 -0.0387 -0.9271
 8042TIP3    H245542   0.812   3.738   4.228  0.9388 -0.6392  0.5686
 8043TIP3   OH245543   5.713   5.175   4.185  0.5025  0.0871  0.1586
 8043TIP3    H145544   5.736   5.133   4.102  0.1734  0.0273  0.0965
 8043TIP3    H245545   5.621   5.201   4.174  0.5448  0.3413  0.3965
 8044TIP3   OH245546   3.735   5.637   5.176  0.2777  0.1127  0.7264
 8044TIP3    H145547   3.713   5.710   5.117 -3.4214  1.7814  3.9098
 8044TIP3    H245548   3.687   5.563   5.140  0.2899  0.3979  0.0973
 8045TIP3   OH245549   5.471   4.491   6.322 -0.1775  0.1827 -0.0343
 8045TIP3    H145550   5.382   4.481   6.354 -0.4287 -0.2057 -0.8567
 8045TIP3    H245551   5.526   4.454   6.391 -0.7044 -0.3928  0.0793
 8046TIP3   OH245552   5.697   1.868  13.402 -0.1558  0.0982 -0.7697
 8046TIP3    H145553   5.726   1.789  13.447  0.1797 -0.3871 -1.8323
 8046TIP3    H245554   5.761   1.880  13.332 -0.3369  1.1807 -0.7575
 8047TIP3   OH245555   5.648   3.958  15.124 -0.1228 -0.4466  0.3797
 8047TIP3    H145556   5.629   4.051  15.136 -0.8409 -0.5532  0.1136
 8047TIP3    H245557   5.568   3.922  15.087  0.4911 -0.9896 -0.4463
 8048TIP3   OH245558   3.287   6.587  11.286 -0.1450 -0.2352 -0.2631
 8048TIP3    H145559   3.200   6.570  11.323 -0.0738  0.2115  0.1159
 8048TIP3    H245560   3.313   6.672  11.323 -0.1144  0.2739 -1.4172
 8049TIP3   OH245561   3.008   4.651  12.792 -0.3815  0.1392  0.0112
 8049TIP3    H145562   3.083   4.645  12.733 -0.6619 -0.2680 -0.3123
 8049TIP3    H245563   2.994   4.745  12.804 -0.0794  0.2189 -0.2625
 8050TIP3   OH245564   3.309   5.507   4.563 -0.8660 -0.6218  0.0956
 8050TIP3    H145565   3.220   5.525   4.533  0.3099  0.1340 -3.0962
 8050TIP3    H245566   3.355   5.590   4.555  0.7334 -1.5351 -0.5700
 8051TIP3   OH245567   2.413   1.604   4.001  0.1918  0.6774  0.3758
 8051TIP3    H145568   2.342   1.665   4.019  0.4475  1.7739 -2.1319
 8051TIP3    H245569   2.370   1.525   3.971 -0.0460  0.4604  1.2703
 8052TIP3   OH245570   6.449   1.286   5.170 -0.4595  0.1208 -0.3313
 8052TIP3    H145571   6.475   1.367   5.127 -0.8852  0.6004  0.3081
 8052TIP3    H245572   6.526   1.260   5.220 -1.0036  1.2305  1.0994
 8053TIP3   OH245573   4.107   6.288  13.512  0.1190 -0.5765  0.1844
 8053TIP3    H145574   4.073   6.331  13.590 -0.0224  0.3086 -0.3601
 8053TIP3    H245575   4.053   6.209  13.502  0.0492 -0.6162  0.8966
 8054TIP3   OH245576   1.480   5.814  16.691  0.3450 -0.4458 -0.4416
 8054TIP3    H145577   1.481   5.810  16.787  0.9368 -1.8240 -0.4986
 8054TIP3    H245578   1.525   5.896  16.670  2.8946 -1.5918  0.3969
 8055TIP3   OH245579   2.728   3.480  13.071  0.4147  0.4059 -0.2761
 8055TIP3    H145580   2.708   3.478  13.164 -0.6227 -0.5982 -0.5128
 8055TIP3    H245581   2.652   3.523  13.031  0.1900 -0.5078 -0.8277
 8056TIP3   OH245582   2.671   2.224   3.931  0.2450 -0.5166 -0.8424
 8056TIP3    H145583   2.713   2.307   3.908  1.4019 -1.3493 -1.8193
 8056TIP3    H245584   2.655   2.182   3.847  0.2571 -1.5588 -0.3256
 8057TIP3   OH245585   4.618   2.689   3.729 -0.0269 -0.1380 -0.4776
 8057TIP3    H145586   4.634   2.638   3.650  0.2389 -0.0612 -0.4733
 8057TIP3    H245587   4.647   2.777   3.707 -0.2993 -0.0332 -0.4186
 8058TIP3   OH245588   6.522   5.592   0.843 -0.4718 -0.1576  0.2343
 8058TIP3    H145589   6.448   5.648   0.821  0.3867  1.0905  0.4703
 8058TIP3    H245590   6.531   5.600   0.938 -0.0102 -0.2778  0.2008
 8059TIP3   OH245591   5.089   2.635  16.840  0.2788 -0.1662  0.2965
 8059TIP3    H145592   5.126   2.621  16.753 -0.3136 -0.4993  0.0947
 8059TIP3    H245593   5.093   2.549  16.883  0.9068  0.0774  0.7315
 8060TIP3   OH245594   0.366   0.145  11.362  0.2947  0.4225  0.3016
 8060TIP3    H145595   0.432   0.211  11.340 -0.4447  1.1552  0.2665
 8060TIP3    H245596   0.414   0.063  11.360  1.1254  0.9026 -0.1307
 8061TIP3   OH245597   5.352   5.441   0.516  0.0021 -0.0131  0.4163
 8061TIP3    H145598   5.374   5.445   0.423  0.1323 -0.0664  0.4441
 8061TIP3    H245599   5.423   5.389   0.555 -0.3024 -0.3995  0.4682
 8062TIP3   OH245600   6.514   2.541   5.040 -0.0308  0.3917 -0.4491
 8062TIP3    H145601   6.512   2.461   5.093 -0.1765  1.1177  0.6631
 8062TIP3    H245602   6.605   2.550   5.013 -0.1908 -0.6509 -1.3672
 8063TIP3   OH245603   1.178   2.783   1.988  0.5255 -0.5818  0.1852
 8063TIP3    H145604   1.086   2.811   1.986  0.2899 -1.2301  1.3021
 8063TIP3    H245605   1.208   2.792   1.897 -0.4014  0.4053 -0.0388
 8064TIP3   OH245606   4.420   4.692   5.007  0.0185 -0.3301  0.5255
 8064TIP3    H145607   4.421   4.788   5.014 -0.0550 -0.2160 -0.9359
 8064TIP3    H245608   4.503   4.664   5.045  0.2123  0.3476  0.6089
 8065TIP3   OH245609   2.577   2.969  16.470  0.5345 -0.0286  0.0486
 8065TIP3    H145610   2.627   3.040  16.430 -1.2799  1.1974 -0.0708
 8065TIP3    H245611   2.502   3.011  16.510  0.2780 -1.7063  1.3932
 8066TIP3   OH245612   3.524   5.566  12.703 -0.1396 -0.3995  0.3313
 8066TIP3    H145613   3.583   5.495  12.727 -1.9620 -1.6104  1.3502
 8066TIP3    H245614   3.535   5.631  12.774  0.0614 -0.5655  0.4523
 8067TIP3   OH245615   0.400   4.682   3.317  0.1053 -0.5096  0.4005
 8067TIP3    H145616   0.338   4.709   3.384  0.6640  1.9061 -0.0213
 8067TIP3    H245617   0.367   4.598   3.286 -2.3476  0.2416  0.9261
 8068TIP3   OH245618   6.452   3.580  17.143 -0.3013  0.3139  0.2483
 8068TIP3    H145619   6.434   3.632  17.064  1.1908 -0.6489 -0.7700
 8068TIP3    H245620   6.415   3.494  17.123  0.1263  0.0547  0.5655
 8069TIP3   OH245621   4.038   4.745  11.966  0.2364 -0.3722  0.0047
 8069TIP3    H145622   4.126   4.763  11.935 -0.1600  1.6223 -0.0178
 8069TIP3    H245623   3.981   4.799  11.911 -0.8589 -0.3834  1.0896
 8070TIP3   OH245624   1.479   5.901  14.261 -0.0264  0.0806  0.5645
 8070TIP3    H145625   1.498   5.856  14.343  1.1130 -0.4471  0.0298
 8070TIP3    H245626   1.498   5.836  14.193 -0.2454  0.7483 -0.1407
 8071TIP3   OH245627   4.512   3.808  15.743 -0.1538  0.2563  0.2956
 8071TIP3    H145628   4.493   3.893  15.703 -0.6185  1.3085  2.7207
 8071TIP3    H245629   4.563   3.828  15.821  1.0134 -1.8102  0.0968
 8072TIP3   OH245630   5.144   4.912  11.047  0.2915 -0.1957 -0.1363
 8072TIP3    H145631   5.122   4.999  11.080 -1.7849 -1.3397  1.6943
 8072TIP3    H245632   5.063   4.880  11.007  0.8888 -1.4495 -0.3794
 8073TIP3   OH245633   5.494   3.530   0.701 -0.3082 -0.3828 -0.1790
 8073TIP3    H145634   5.453   3.574   0.775  2.9320  2.1522  0.2264
 8073TIP3    H245635   5.563   3.476   0.740  1.3030  0.8323 -1.2331
 8074TIP3   OH245636   3.221   3.008  17.066  0.1754 -0.0094  0.6817
 8074TIP3    H145637   3.208   3.036  17.157 -0.1573 -0.6176  0.8248
 8074TIP3    H245638   3.132   3.000  17.031  0.3076  0.3235  0.2720
 8075TIP3   OH245639   5.913   6.253   2.015 -0.0872  0.6291 -0.7053
 8075TIP3    H145640   5.912   6.266   1.920 -2.5576  0.3771 -0.7637
 8075TIP3    H245641   5.829   6.290   2.044  1.5246  2.5544  1.6457
 8076TIP3   OH245642   4.227   2.462   5.318  0.0625  0.2121 -0.1417
 8076TIP3    H145643   4.293   2.428   5.379 -1.6329 -0.6717  1.2332
 8076TIP3    H245644   4.242   2.557   5.316 -0.4537  0.3630  2.3853
 8077TIP3   OH245645   1.695   6.710   3.188  0.2732 -0.4726 -0.1128
 8077TIP3    H145646   1.632   6.778   3.213 -0.1999 -0.4326 -1.3747
 8077TIP3    H245647   1.685   6.702   3.093  1.8818 -0.7600 -0.2745
 8078TIP3   OH245648   0.283   1.214  12.394 -0.0516 -0.1353 -0.0157
 8078TIP3    H145649   0.359   1.267  12.417 -0.9398  0.3194  1.9544
 8078TIP3    H245650   0.309   1.125  12.416  0.8950 -0.3659 -1.9380
 8079TIP3   OH245651   4.850   4.105   6.403 -0.6385 -0.4064 -0.1616
 8079TIP3    H145652   4.934   4.097   6.448 -1.2312  0.4920  1.1294
 8079TIP3    H245653   4.811   4.185   6.438 -0.5767  1.0450 -3.1914
 8080TIP3   OH245654   3.792   0.174   4.058  0.0650 -0.4961  0.3148
 8080TIP3    H145655   3.883   0.177   4.086  0.0498  0.7001  0.2509
 8080TIP3    H245656   3.777   0.258   4.015 -0.7457 -1.1339 -0.6932
 8081TIP3   OH245657   2.913   2.450   0.223  0.5714 -0.9455 -0.2313
 8081TIP3    H145658   3.001   2.471   0.255  0.3076 -1.1427  0.6283
 8081TIP3    H245659   2.879   2.533   0.190  1.8207 -1.2428 -2.4008
 8082TIP3   OH245660   3.009   5.690  15.395  0.3764  0.4141 -0.6156
 8082TIP3    H145661   3.102   5.678  15.375  0.3617 -1.1683  0.2031
 8082TIP3    H245662   3.007   5.757  15.464  0.9938 -0.4154  0.2156
 8083TIP3   OH245663   2.949   2.400  14.669  0.2790  0.3544  0.3848
 8083TIP3    H145664   3.026   2.432  14.621 -0.3261  0.8897 -0.2372
 8083TIP3    H245665   2.958   2.305  14.667  0.4189  0.3759 -0.5513
 8084TIP3   OH245666   2.321   2.954  13.979  0.1822 -0.0891 -0.2564
 8084TIP3    H145667   2.341   3.038  14.021 -1.8600  0.1617  0.2592
 8084TIP3    H245668   2.315   2.892  14.052  0.3399 -0.4153 -0.5198
 8085TIP3   OH245669   5.653   1.019  15.344 -0.1184  0.3190 -0.1016
 8085TIP3    H145670   5.680   1.043  15.255 -0.9902  1.1432 -0.1537
 8085TIP3    H245671   5.683   1.092  15.398  0.0266  0.0220  0.2158
 8086TIP3   OH245672   2.589   6.372  16.313  0.0543  0.1197  0.1085
 8086TIP3    H145673   2.659   6.435  16.297 -0.6264  0.6558 -0.8538
 8086TIP3    H245674   2.536   6.412  16.382 -0.3851  0.6324 -0.5096
 8087TIP3   OH245675   5.519   5.699   0.775 -0.4500 -0.4843 -0.4382
 8087TIP3    H145676   5.537   5.789   0.748  1.1339 -0.9491 -0.9804
 8087TIP3    H245677   5.602   5.653   0.762 -1.2780 -2.0499 -0.2805
 8088TIP3   OH245678   1.202   4.884   0.770  0.7558  0.6236 -0.2251
 8088TIP3    H145679   1.115   4.919   0.750  0.8188  0.4253 -0.8398
 8088TIP3    H245680   1.257   4.962   0.783  0.7683  0.7556 -1.0442
 8089TIP3   OH245681   4.357   2.513  11.497 -0.0247 -0.5683 -0.1819
 8089TIP3    H145682   4.408   2.592  11.482 -0.0128 -0.1419  1.9443
 8089TIP3    H245683   4.330   2.484  11.410  0.7227  1.2706 -1.0351
 8090TIP3   OH245684   0.678   1.833  11.968 -0.2794 -0.2710 -0.3394
 8090TIP3    H145685   0.769   1.810  11.948  0.3722  1.2935  0.6755
 8090TIP3    H245686   0.639   1.853  11.883  0.1551 -1.5203 -0.8426
 8091TIP3   OH245687   2.776   2.121   2.976  0.3868 -0.0755 -0.0707
 8091TIP3    H145688   2.775   2.138   2.881 -1.2177 -2.8736 -0.6448
 8091TIP3    H245689   2.864   2.088   2.993  0.7303  0.5691 -0.5804
 8092TIP3   OH245690   4.472   2.579   3.402 -0.0906  0.1737 -0.3247
 8092TIP3    H145691   4.403   2.626   3.354  0.3922  0.2222 -0.9813
 8092TIP3    H245692   4.432   2.494   3.423 -0.4848  0.3466 -0.3649
 8093TIP3   OH245693   4.769   4.311   4.306 -0.2954 -0.0862 -0.3436
 8093TIP3    H145694   4.796   4.359   4.228 -1.2126 -1.6477 -1.6558
 8093TIP3    H245695   4.706   4.246   4.274 -1.5967  0.0409  1.8752
 8094TIP3   OH245696   1.962   2.063   1.201 -0.1291 -0.8716  0.1422
 8094TIP3    H145697   1.872   2.031   1.192 -1.0462  0.9523  2.5693
 8094TIP3    H245698   1.959   2.153   1.169  0.7921 -0.7641  0.3527
 8095TIP3   OH245699   3.916   4.126   3.219 -0.8922  0.6070  0.3420
 8095TIP3    H145700   3.912   4.179   3.298  0.8133 -0.7932  1.3945
 8095TIP3    H245701   4.009   4.124   3.196 -1.1086 -0.7371 -0.4769
 8096TIP3   OH245702   1.666   5.927  12.624 -0.5599 -0.5452  0.4841
 8096TIP3    H145703   1.634   5.893  12.541 -1.8636 -1.7348  1.4459
 8096TIP3    H245704   1.702   5.850  12.669 -0.4650 -0.0358  1.2935
 8097TIP3   OH245705   3.875   5.195   5.938  0.5132  0.3583  0.0007
 8097TIP3    H145706   3.949   5.157   5.892 -0.4407 -0.2143 -1.0837
 8097TIP3    H245707   3.914   5.251   6.005  1.9279  1.2188 -1.5043
 8098TIP3   OH245708   2.962   4.972  12.350  0.6291  0.0581  0.1759
 8098TIP3    H145709   3.054   4.946  12.360  0.6102 -0.5768 -1.1750
 8098TIP3    H245710   2.956   5.056  12.395  1.8927  0.1219  0.2490
 8099TIP3   OH245711   0.345   5.533  13.660 -0.0695  0.1610  0.8788
 8099TIP3    H145712   0.394   5.613  13.680  0.2765 -0.2088  1.5260
 8099TIP3    H245713   0.254   5.559  13.662 -0.0127  0.2634  2.3695
 8100TIP3   OH245714   3.047   0.617   5.036  0.4806  0.1245  0.2258
 8100TIP3    H145715   2.976   0.589   5.094  1.0081  1.9160  1.8268
 8100TIP3    H245716   3.018   0.703   5.004  0.3613 -0.7014 -1.9188
 8101TIP3   OH245717   5.155   5.383  12.483 -0.1830 -0.4756 -0.1048
 8101TIP3    H145718   5.210   5.312  12.516 -1.3112 -1.8368 -1.1244
 8101TIP3    H245719   5.079   5.384  12.542  0.1148  0.3107  0.2813
 8102TIP3   OH245720   5.126   1.518   3.216  0.3002 -0.1027  0.4479
 8102TIP3    H145721   5.140   1.442   3.272  0.2406  1.3325  2.4610
 8102TIP3    H245722   5.074   1.578   3.270  1.7072  2.0331 -0.5027
 8103TIP3   OH245723   2.311   0.478  14.369 -0.1157  0.0903  0.1052
 8103TIP3    H145724   2.374   0.406  14.366 -0.2256  0.0138 -0.4390
 8103TIP3    H245725   2.362   0.554  14.396  0.2261  0.0389 -0.3836
 8104TIP3   OH245726   5.245   1.665  11.775 -0.1723  0.0145  0.0808
 8104TIP3    H145727   5.189   1.731  11.734  0.3938 -0.0510 -0.8144
 8104TIP3    H245728   5.199   1.639  11.854 -0.6818  1.0621  0.1244
 8105TIP3   OH245729   5.533   1.395  14.477 -0.2082  0.7199  0.0454
 8105TIP3    H145730   5.534   1.326  14.411 -4.0950  1.5479 -1.0283
 8105TIP3    H245731   5.481   1.360  14.549  1.6324  0.8873  1.5116
 8106TIP3   OH245732   4.173   0.894  12.958 -0.7201  0.0997 -0.0572
 8106TIP3    H145733   4.248   0.943  12.924 -0.9609  0.0389 -0.6859
 8106TIP3    H245734   4.109   0.961  12.981 -1.5377  0.0460 -2.0797
 8107TIP3   OH245735   6.062   4.315  15.707 -0.0942 -0.5534  0.0151
 8107TIP3    H145736   5.969   4.292  15.711 -0.0588 -1.0945 -1.8541
 8107TIP3    H245737   6.079   4.330  15.614  1.1276  1.9405  0.5986
 8108TIP3   OH245738   2.683   4.314   5.572  0.0123  0.0173  0.0392
 8108TIP3    H145739   2.605   4.307   5.517  0.8259 -1.3574 -0.9806
 8108TIP3    H245740   2.738   4.378   5.526 -1.3505  2.6065  1.8534
 8109TIP3   OH245741   1.047   1.531   5.505 -0.1120  0.1449  0.2074
 8109TIP3    H145742   1.075   1.442   5.526 -0.5728 -0.0221  0.1094
 8109TIP3    H245743   1.015   1.567   5.588 -0.4306  0.0374  0.1284
 8110TIP3   OH245744   3.630   6.539  12.460  0.4169  0.4116 -0.2342
 8110TIP3    H145745   3.635   6.619  12.512 -0.0145  0.4587 -0.2597
 8110TIP3    H245746   3.579   6.478  12.515  1.5692 -0.1704  0.1956
 8111TIP3   OH245747   4.370   5.288  11.853  0.1841  0.3128 -0.0293
 8111TIP3    H145748   4.458   5.318  11.877  0.0609  0.3888  0.3351
 8111TIP3    H245749   4.382   5.196  11.829  0.3289  0.2633  0.2273
 8112TIP3   OH245750   0.455   4.117  13.832 -0.3803 -0.5772  0.0808
 8112TIP3    H145751   0.458   4.205  13.794 -0.7248 -1.0246 -1.0032
 8112TIP3    H245752   0.458   4.132  13.927 -1.5773  0.6643 -0.0605
 8113TIP3   OH245753   1.106   5.883   2.744  0.0804  0.2422 -0.1933
 8113TIP3    H145754   1.174   5.818   2.764 -0.5294 -0.6616 -1.0011
 8113TIP3    H245755   1.127   5.958   2.800  1.2838 -0.3303  0.1343
 8114TIP3   OH245756   4.341   6.665  11.568  0.0815 -0.0756 -0.0738
 8114TIP3    H145757   4.389   6.747  11.557  1.5219 -0.5559  2.3347
 8114TIP3    H245758   4.370   6.611  11.494  0.3648  0.9875 -0.7465
 8115TIP3   OH245759   5.887   2.318   0.670 -0.5397 -0.7855  0.3342
 8115TIP3    H145760   5.811   2.265   0.648 -0.6270 -1.2590  1.7422
 8115TIP3    H245761   5.869   2.350   0.758  0.6182 -0.4048  0.4388
 8116TIP3   OH245762   0.594   3.229  16.133  0.5567  0.2388 -0.3457
 8116TIP3    H145763   0.687   3.252  16.128  0.2173  1.4130 -1.4303
 8116TIP3    H245764   0.559   3.251  16.047 -0.5123 -1.2213 -0.3143
 8117TIP3   OH245765   1.589   0.447   5.891  0.5151 -0.2224 -0.5233
 8117TIP3    H145766   1.599   0.460   5.985 -0.1733  2.0120 -0.7342
 8117TIP3    H245767   1.496   0.431   5.878  0.8536 -2.2950 -0.6653
 8118TIP3   OH245768   4.933   1.569  11.058 -0.3098 -0.1563 -0.0800
 8118TIP3    H145769   5.001   1.518  11.103  0.2418 -0.3464 -1.1128
 8118TIP3    H245770   4.956   1.563  10.965 -1.7964 -0.3059 -0.4511
 8119TIP3   OH245771   5.962   0.217   1.343 -0.1333 -0.5440 -0.0234
 8119TIP3    H145772   5.885   0.193   1.393 -1.0546  1.5717 -0.4081
 8119TIP3    H245773   5.953   0.168   1.261  0.1780 -2.1461  0.8694
 8120TIP3   OH245774   5.635   5.002  15.810  0.7090 -0.4350 -0.4285
 8120TIP3    H145775   5.547   4.965  15.804 -0.3646  1.5063  2.1320
 8120TIP3    H245776   5.690   4.927  15.832  0.0378 -1.9883 -3.7514
 8121TIP3   OH245777   5.682   6.263  14.265  0.7640 -0.1064  0.5054
 8121TIP3    H145778   5.652   6.333  14.207  1.2305  0.5242  1.0126
 8121TIP3    H245779   5.746   6.214  14.214  1.2596  0.5174  0.5226
 8122TIP3   OH245780   3.809   2.817   6.360 -0.1831 -0.4143 -0.0999
 8122TIP3    H145781   3.760   2.789   6.437 -1.4170  1.2202 -0.2476
 8122TIP3    H245782   3.786   2.910   6.350  1.9903  0.0565 -0.9166
 8123TIP3   OH245783   1.651   1.183   2.377  0.0804  0.6137 -0.0080
 8123TIP3    H145784   1.601   1.137   2.310  0.8135 -1.9246  1.1230
 8123TIP3    H245785   1.585   1.214   2.439 -0.4300  1.1916 -0.8309
 8124TIP3   OH245786   5.203   6.225  10.508 -0.4419  0.1463 -0.2710
 8124TIP3    H145787   5.186   6.131  10.508 -0.3666  0.1325 -0.0862
 8124TIP3    H245788   5.178   6.254  10.596 -1.7493  0.5302 -0.7460
 8125TIP3   OH245789   5.923   4.143  10.947 -0.1062 -0.2504 -0.4899
 8125TIP3    H145790   5.992   4.086  10.911  0.3491  0.5645 -0.9216
 8125TIP3    H245791   5.863   4.157  10.873  1.6096  2.6305 -1.3952
 8126TIP3   OH245792   5.027   0.437   5.140  0.4332 -0.1376 -0.0448
 8126TIP3    H145793   4.966   0.402   5.205  0.1692  0.0461 -0.1903
 8126TIP3    H245794   5.060   0.360   5.093 -0.5717 -0.1491 -0.7402
 8127TIP3   OH245795   6.722   4.904  13.962 -0.4439 -0.0384 -0.1644
 8127TIP3    H145796   6.684   4.954  13.889 -0.8056 -0.4938 -0.2925
 8127TIP3    H245797   6.658   4.913  14.032 -2.0441 -2.9059 -1.1842
 8128TIP3   OH245798   2.974   0.741   0.304  0.0183 -0.0961  0.7600
 8128TIP3    H145799   2.911   0.809   0.279  2.5070  2.2041  0.5482
 8128TIP3    H245800   2.961   0.731   0.399  0.3513  1.4760  0.9883
 8129TIP3   OH245801   6.229   4.243   5.919  0.0728 -0.6486  0.4026
 8129TIP3    H145802   6.147   4.197   5.935 -0.0341 -0.8923 -0.7919
 8129TIP3    H245803   6.226   4.267   5.826  0.0871  1.8342  0.9905
 8130TIP3   OH245804   5.715   2.598   6.543  0.7199  0.4342  0.3728
 8130TIP3    H145805   5.776   2.534   6.581  0.5341  0.0514  0.0198
 8130TIP3    H245806   5.655   2.546   6.490  0.2047  0.8392  0.5609
 8131TIP3   OH245807   1.456   4.138   5.430 -0.2121  0.4321 -0.2661
 8131TIP3    H145808   1.385   4.087   5.390  0.8197 -0.2083 -1.3074
 8131TIP3    H245809   1.474   4.092   5.512  1.2358 -1.3953 -1.5519
 8132TIP3   OH245810   6.680   0.466   0.019 -0.5877  0.3181  0.0547
 8132TIP3    H145811   6.595   0.480  -0.024 -0.2382 -0.2049 -0.8163
 8132TIP3    H245812   6.705   0.552   0.051 -1.7821  0.3537  0.9518
 8133TIP3   OH245813   5.455   5.392  15.051  0.8802  0.4601  0.0710
 8133TIP3    H145814   5.535   5.403  15.103  1.0728  0.6368 -0.2667
 8133TIP3    H245815   5.486   5.366  14.964  0.4807 -1.9557  0.6080
 8134TIP3   OH245816   4.292   1.749   5.236  0.3305  0.6734  0.4595
 8134TIP3    H145817   4.309   1.691   5.311  0.4260  1.4352  1.0295
 8134TIP3    H245818   4.233   1.816   5.269 -1.0846 -0.0037 -0.6326
 8135TIP3   OH245819   5.681   5.471   2.188 -0.3622  0.2320 -0.4339
 8135TIP3    H145820   5.691   5.541   2.123  2.0877 -0.8825 -1.3026
 8135TIP3    H245821   5.673   5.517   2.271  1.1350  1.5821 -0.9980
 8136TIP3   OH245822   5.150   5.716  13.657  0.6830  0.2173 -0.1012
 8136TIP3    H145823   5.091   5.658  13.609  0.0758 -0.1903  1.1421
 8136TIP3    H245824   5.190   5.770  13.588  1.4228 -1.7894 -1.2815
 8137TIP3   OH245825   4.031   3.187  16.725  0.0183  0.3894  0.2806
 8137TIP3    H145826   3.970   3.254  16.756  1.6236  2.5880 -1.1453
 8137TIP3    H245827   4.117   3.226  16.738  1.0023 -1.6116 -0.1382
 8138TIP3   OH245828   1.995   5.552   2.026  0.6128 -0.4642  1.1275
 8138TIP3    H145829   2.068   5.495   2.050 -1.6953 -3.2712  1.8129
 8138TIP3    H245830   1.930   5.538   2.095 -2.0090 -0.8463 -1.3060
 8139TIP3   OH245831   3.939   4.584   0.019  0.0811  0.3113  0.3630
 8139TIP3    H145832   3.892   4.503   0.001  0.6060 -0.6463  2.9572
 8139TIP3    H245833   3.910   4.645  -0.048 -2.1053 -1.3265 -0.2313
 8140TIP3   OH245834   1.239   0.308  12.122 -0.6515 -0.2755  0.2964
 8140TIP3    H145835   1.147   0.328  12.106 -1.1930 -2.4917  0.3681
 8140TIP3    H245836   1.249   0.218  12.089  1.2485 -0.3720  1.0999
 8141TIP3   OH245837   1.730   4.979  16.196  0.5542 -0.2427 -0.1298
 8141TIP3    H145838   1.655   5.011  16.146 -0.1137  0.9257  1.6003
 8141TIP3    H245839   1.803   4.984  16.134 -0.6530 -0.8266 -1.6483
 8142TIP3   OH245840   6.513   4.842  12.405 -0.0204 -0.1657 -0.0320
 8142TIP3    H145841   6.571   4.810  12.474  1.1406  1.4965 -0.2048
 8142TIP3    H245842   6.464   4.913  12.447 -0.3114 -0.0681 -0.5340
 8143TIP3   OH245843   4.314   4.254  16.140 -0.1578 -0.1232  0.1453
 8143TIP3    H145844   4.350   4.306  16.068  2.1122 -0.7171  0.8092
 8143TIP3    H245845   4.297   4.168  16.100 -1.3191  0.3043 -0.2918
 8144TIP3   OH245846   6.451   5.228  14.076  0.2167 -0.0277  0.0678
 8144TIP3    H145847   6.381   5.289  14.054  1.5405  0.7556 -2.0284
 8144TIP3    H245848   6.417   5.142  14.051 -0.9142  0.0294  1.3101
 8145TIP3   OH245849   3.429   4.866  16.421 -0.6545 -0.0950  0.0440
 8145TIP3    H145850   3.391   4.799  16.364  0.5514  0.1792 -1.0893
 8145TIP3    H245851   3.474   4.926  16.362 -1.4475  1.5556  1.0705
 8146TIP3   OH245852   6.510   2.510   2.143  0.4709  1.0658  0.5671
 8146TIP3    H145853   6.575   2.479   2.207  0.9602 -0.1026 -0.4790
 8146TIP3    H245854   6.551   2.495   2.058 -0.8005  1.1919 -0.0765
 8147TIP3   OH245855   3.411   4.275   5.352  0.2529 -0.4515  0.1597
 8147TIP3    H145856   3.394   4.184   5.378  1.8295 -1.0862 -0.9926
 8147TIP3    H245857   3.504   4.277   5.331  0.4851  1.7227  1.2576
 8148TIP3   OH245858   5.725   2.828   5.529 -0.2547  0.0482  0.0213
 8148TIP3    H145859   5.746   2.785   5.612  1.1831  1.6284  0.5026
 8148TIP3    H245860   5.779   2.783   5.464 -1.4864 -1.2867 -0.1241
 8149TIP3   OH245861   0.895   3.794   3.668 -0.2375  0.2478 -0.1356
 8149TIP3    H145862   0.898   3.701   3.644 -0.1343 -0.0110  0.8340
 8149TIP3    H245863   0.806   3.821   3.646  0.0933  0.2260 -1.5153
 8150TIP3   OH245864   3.618   6.303   3.223 -0.1965  0.1307  0.1071
 8150TIP3    H145865   3.675   6.379   3.234 -1.2200  0.9824 -0.4035
 8150TIP3    H245866   3.538   6.325   3.271 -1.6479  0.6354 -2.4296
 8151TIP3   OH245867   0.636   4.206  12.689 -0.4618  0.5323  0.4461
 8151TIP3    H145868   0.702   4.252  12.637  0.1674 -0.5921  0.2294
 8151TIP3    H245869   0.585   4.276  12.730 -0.2101  1.4273 -0.7320
 8152TIP3   OH245870   6.207   1.580  16.108  0.1145  0.2852 -0.3809
 8152TIP3    H145871   6.248   1.569  16.022  1.4721  1.4786  0.0943
 8152TIP3    H245872   6.203   1.492  16.144  3.1165  0.2361 -0.0746
 8153TIP3   OH245873   6.363   2.516  10.709 -0.0149  0.5837  0.2238
 8153TIP3    H145874   6.297   2.498  10.776 -1.5726  1.4478 -1.0655
 8153TIP3    H245875   6.348   2.450  10.642  0.6644  0.5710  0.0809
 8154TIP3   OH245876   4.229   1.978   4.926 -0.0760 -0.5859  0.0750
 8154TIP3    H145877   4.227   1.962   4.832  0.5623  1.7716 -0.3843
 8154TIP3    H245878   4.281   1.907   4.962  3.5479  0.9112 -1.9445
 8155TIP3   OH245879   6.600   3.252  13.692 -0.5758 -0.2557 -0.0035
 8155TIP3    H145880   6.604   3.164  13.655 -2.3975 -0.5149  0.3497
 8155TIP3    H245881   6.645   3.245  13.776  0.9437 -0.3738 -0.7973
 8156TIP3   OH245882   6.374   6.069  15.480 -0.5178  0.2353 -0.5739
 8156TIP3    H145883   6.453   6.028  15.517  0.0118  0.5146 -1.3753
 8156TIP3    H245884   6.344   6.130  15.547 -2.0315 -2.3352  1.1771
 8157TIP3   OH245885   6.108   1.886  11.349  0.0632  0.3356 -0.0042
 8157TIP3    H145886   6.154   1.864  11.268  1.4375  1.3394  0.4726
 8157TIP3    H245887   6.019   1.853  11.337  0.2846  0.3944 -1.8805
 8158TIP3   OH245888   2.128   5.598  12.830 -0.2428 -0.6927  0.3874
 8158TIP3    H145889   2.100   5.515  12.790 -3.8864  1.2713 -1.4825
 8158TIP3    H245890   2.090   5.596  12.918 -1.4461 -0.4809 -0.1189
 8159TIP3   OH245891   6.110   6.509  12.668  0.1262 -0.8561 -0.0368
 8159TIP3    H145892   6.049   6.467  12.608 -0.1932  0.0250 -0.3335
 8159TIP3    H245893   6.072   6.495  12.755  0.4455 -1.8861 -0.0589
 8160TIP3   OH245894   5.981   4.165   2.301  0.6785 -0.2713 -0.1365
 8160TIP3    H145895   6.057   4.202   2.256  0.7543  0.4223  0.5432
 8160TIP3    H245896   5.919   4.237   2.308 -0.6827 -1.2231 -2.0278
 8161TIP3   OH245897   0.268   0.092   5.481  0.7836 -0.5645 -0.1675
 8161TIP3    H145898   0.235   0.181   5.466  3.1865  0.2474 -0.9898
 8161TIP3    H245899   0.248   0.045   5.400  0.4784 -0.4546 -0.1567
 8162TIP3   OH245900   4.092   5.630  11.066  0.6392  0.3509 -0.1362
 8162TIP3    H145901   4.028   5.687  11.022 -0.0462  0.1579  0.5923
 8162TIP3    H245902   4.088   5.656  11.158 -0.3973 -1.5222  0.3749
 8163TIP3   OH245903   0.135   0.506  12.753 -0.4147  0.6998 -0.1048
 8163TIP3    H145904   0.220   0.468  12.775 -0.0361  0.4309 -1.9276
 8163TIP3    H245905   0.074   0.433  12.760 -0.3477  0.6762  0.2696
 8164TIP3   OH245906   3.469   2.754   0.161  0.3535  0.6252  0.4884
 8164TIP3    H145907   3.427   2.721   0.082  0.7516 -0.7224  0.8283
 8164TIP3    H245908   3.436   2.697   0.231  1.1123  0.9050  1.0817
 8165TIP3   OH245909   0.862   4.024   4.174  0.1909 -0.1429 -0.3099
 8165TIP3    H145910   0.946   4.033   4.128  0.8763 -0.0714  0.9189
 8165TIP3    H245911   0.797   4.055   4.112  1.2429  1.3116 -0.7202
 8166TIP3   OH245912   2.483   4.179  10.703 -0.2314 -0.6682 -0.1273
 8166TIP3    H145913   2.404   4.232  10.694  0.3402  0.2583  0.2874
 8166TIP3    H245914   2.453   4.099  10.746 -0.6399  0.4298  1.6808
 8167TIP3   OH245915   3.927   1.074  11.199  0.3147 -0.4196  0.1950
 8167TIP3    H145916   4.005   1.084  11.144  0.3308  0.5372  0.3886
 8167TIP3    H245917   3.920   0.979  11.213  1.9575 -0.4449  0.9246
 8168TIP3   OH245918   6.649   6.465  14.176 -0.0206  0.2691  0.3758
 8168TIP3    H145919   6.641   6.519  14.255  1.7649 -0.9562  1.4058
 8168TIP3    H245920   6.737   6.429  14.179  0.3173  0.6779 -2.5138
 8169TIP3   OH245921   1.606   1.016   0.123 -0.4519 -0.4206 -0.2371
 8169TIP3    H145922   1.602   1.041   0.031  0.5516 -1.0706 -0.4608
 8169TIP3    H245923   1.576   0.924   0.124 -0.3037 -0.4646  0.0679
 8170TIP3   OH245924   4.944   5.506   2.779 -0.6316 -0.1489  0.2170
 8170TIP3    H145925   5.005   5.508   2.852  0.0151  0.5251 -0.3339
 8170TIP3    H245926   4.890   5.429   2.795 -0.7075  0.1694  1.5697
 8171TIP3   OH245927   3.408   3.969  11.962  0.0437 -0.3033  0.2639
 8171TIP3    H145928   3.370   3.939  11.880  0.3208  0.2148 -0.0546
 8171TIP3    H245929   3.348   4.036  11.994  0.5235  0.2997 -0.0872
 8172TIP3   OH245930   4.314   6.477   1.518  0.2363  0.2483  0.4712
 8172TIP3    H145931   4.348   6.415   1.454 -1.5106 -0.4178  0.1633
 8172TIP3    H245932   4.391   6.528   1.546  1.7510 -2.2215  0.9382
 8173TIP3   OH245933   4.410   4.060   5.467 -0.2747 -0.0253  0.2408
 8173TIP3    H145934   4.484   4.117   5.445 -0.0923  0.1890  1.3776
 8173TIP3    H245935   4.442   3.972   5.449  0.4388  0.0280  1.1958
 8174TIP3   OH245936   2.612   2.764   4.990 -0.5774  0.4768 -0.4680
 8174TIP3    H145937   2.686   2.797   4.939 -0.1148  0.6614  0.3193
 8174TIP3    H245938   2.649   2.695   5.045 -1.1204  0.1245 -0.5405
 8175TIP3   OH245939   5.299   0.589   5.861  0.4296 -0.7665 -0.0485
 8175TIP3    H145940   5.209   0.557   5.852  0.1339 -0.2012  0.7602
 8175TIP3    H245941   5.290   0.666   5.918  1.0387  1.0463 -2.3324
 8176TIP3   OH245942   6.680   5.987  13.487 -0.1315 -0.2741 -0.1889
 8176TIP3    H145943   6.726   5.904  13.477 -0.0542 -0.3180  0.4890
 8176TIP3    H245944   6.726   6.047  13.429  0.3112 -0.5051 -0.0783
 8177TIP3   OH245945   2.691   4.643  13.252 -0.0050  0.1089 -0.9867
 8177TIP3    H145946   2.731   4.598  13.177 -1.7058 -2.5196 -0.3714
 8177TIP3    H245947   2.653   4.722  13.215  1.4434  0.1638 -2.4350
 8178TIP3   OH245948   0.957   1.556   4.302  0.5785  0.0100 -0.4252
 8178TIP3    H145949   0.952   1.589   4.212 -2.2831  1.3880  0.1776
 8178TIP3    H245950   0.939   1.632   4.357 -3.3289 -1.8475  1.0951
 8179TIP3   OH245951   0.335   4.373  16.924  0.4965 -0.1079  0.6692
 8179TIP3    H145952   0.240   4.365  16.933  0.3871  1.5416  1.2623
 8179TIP3    H245953   0.367   4.381  17.014  1.0532  0.6417  0.4197
 8180TIP3   OH245954   3.077   0.485  11.157 -0.2660 -0.0885  0.6142
 8180TIP3    H145955   3.166   0.498  11.124  0.1232 -0.3822  1.5349
 8180TIP3    H245956   3.089   0.444  11.243 -1.1930  2.4861  2.0100
 8181TIP3   OH245957   1.238   6.435  11.000 -0.1966 -0.3426 -0.5721
 8181TIP3    H145958   1.219   6.450  10.907 -1.5326  1.6099 -0.0251
 8181TIP3    H245959   1.259   6.342  11.005 -0.6150 -0.5973 -2.7537
 8182TIP3   OH245960   1.686   2.155   4.515  0.2162  0.0321  0.1737
 8182TIP3    H145961   1.601   2.177   4.553 -0.1261 -0.2792 -0.3962
 8182TIP3    H245962   1.750   2.201   4.569 -0.4031  1.2812 -0.1341
 8183TIP3   OH245963   4.588   0.392  16.337  0.0724 -0.3012  0.1470
 8183TIP3    H145964   4.648   0.333  16.292 -0.3518 -1.3594  0.9675
 8183TIP3    H245965   4.524   0.335  16.379 -1.0388  0.7826 -0.0354
 8184TIP3   OH245966   4.072   2.656   2.924  0.1847 -0.3454  0.1928
 8184TIP3    H145967   4.008   2.690   2.861  0.9231 -0.9444 -0.9037
 8184TIP3    H245968   4.022   2.597   2.980  0.1407 -2.5265 -2.0254
 8185TIP3   OH245969   5.830   3.324  12.584  0.1400  0.4165 -0.0501
 8185TIP3    H145970   5.820   3.230  12.597  1.0172  0.3467  0.1473
 8185TIP3    H245971   5.835   3.361  12.672 -0.8373  0.7249 -0.1158
 8186TIP3   OH245972   4.466   5.993   4.166 -0.3097  0.2897 -0.2217
 8186TIP3    H145973   4.406   6.010   4.094  0.6909 -0.4832 -1.2558
 8186TIP3    H245974   4.410   5.970   4.239 -1.3621  1.6102 -0.5923
 8187TIP3   OH245975   2.028   3.851  14.771  0.1488 -0.0575 -0.3323
 8187TIP3    H145976   1.990   3.822  14.688 -0.3439  1.9113 -0.8329
 8187TIP3    H245977   1.986   3.935  14.788  0.1166 -0.5169  2.0191
 8188TIP3   OH245978   3.914   2.695   2.713  0.3024  0.0134 -0.6498
 8188TIP3    H145979   3.888   2.631   2.647  0.0269  1.0984 -1.6213
 8188TIP3    H245980   3.836   2.749   2.727  0.0622 -0.7794  1.2815
 8189TIP3   OH245981   5.897   6.760  15.316  0.5359 -0.2691 -0.0446
 8189TIP3    H145982   5.850   6.815  15.253 -0.1150  0.3505  0.9726
 8189TIP3    H245983   5.908   6.676  15.271  0.2876  0.2419 -1.0710
 8190TIP3   OH245984   5.964   4.475   0.460 -0.1241  0.0481 -0.3457
 8190TIP3    H145985   6.054   4.446   0.477 -0.4239 -0.1130  1.0672
 8190TIP3    H245986   5.940   4.524   0.539 -1.7707 -1.1409 -0.0898
 8191TIP3   OH245987   3.150   0.806  13.813 -0.0424 -0.2207 -0.0537
 8191TIP3    H145988   3.152   0.867  13.739 -1.0114 -0.4224 -0.2536
 8191TIP3    H245989   3.064   0.819  13.852 -0.2064 -1.3600 -0.0161
 8192TIP3   OH245990   2.215   5.749   2.867 -0.4291 -0.2496  0.3007
 8192TIP3    H145991   2.223   5.655   2.885 -1.2751 -0.3407  0.2250
 8192TIP3    H245992   2.126   5.771   2.895 -0.6912  0.2464 -0.9011
 8193TIP3   OH245993   4.396   2.605   5.781 -0.5124  0.3182  0.1932
 8193TIP3    H145994   4.349   2.679   5.820 -0.1586  0.8008 -0.2857
 8193TIP3    H245995   4.330   2.536   5.773 -1.2944  1.1755 -1.0006
 8194TIP3   OH245996   0.533   6.369  13.443 -0.0106 -0.0393  0.0979
 8194TIP3    H145997   0.488   6.369  13.528  1.6739 -1.3093  1.0084
 8194TIP3    H245998   0.462   6.372  13.379 -1.3673 -0.8831  1.5288
 8195TIP3   OH245999   5.310   0.488  16.728 -0.2340  0.3173 -0.2837
 8195TIP3    H146000   5.405   0.493  16.715 -0.1409  0.1418  0.3447
 8195TIP3    H246001   5.275   0.473  16.640  0.4113 -0.8150 -0.3600
 8196TIP3   OH246002   3.143   3.595  15.509  0.0016  0.2306 -0.0334
 8196TIP3    H146003   3.208   3.653  15.470  0.7192 -0.0530  0.7056
 8196TIP3    H246004   3.069   3.596  15.448  0.2660  1.3999 -0.3462
 8197TIP3   OH246005   3.983   5.072  14.880 -0.1054 -0.6573  0.0086
 8197TIP3    H146006   4.040   5.133  14.926 -0.9400  0.1705 -0.0453
 8197TIP3    H246007   4.038   5.034  14.812  0.6450 -0.5903  0.5737
 8198TIP3   OH246008   1.825   1.056   5.689  0.0942 -0.0289  0.5897
 8198TIP3    H146009   1.822   1.134   5.743  0.1715  1.2960 -1.2666
 8198TIP3    H246010   1.749   1.064   5.631  1.0845 -0.4586 -0.7869
 8199TIP3   OH246011   1.963   3.037   2.287  0.1271 -0.2371  0.6131
 8199TIP3    H146012   1.925   2.977   2.351 -0.7642  0.6749  0.9371
 8199TIP3    H246013   2.052   3.004   2.274 -0.6306 -2.1555  0.1210
 8200TIP3   OH246014   5.740   6.044  12.831 -0.2065  0.1743  0.1219
 8200TIP3    H146015   5.743   6.140  12.824  1.0203  0.2088  1.0664
 8200TIP3    H246016   5.782   6.024  12.914 -1.1136 -1.1627  0.2865
 8201TIP3   OH246017   4.826   2.375   2.141  0.3083  0.2698 -0.1778
 8201TIP3    H146018   4.805   2.289   2.105 -0.1953  0.4019 -0.2062
 8201TIP3    H246019   4.773   2.436   2.089  0.6688  0.5949 -0.1608
 8202TIP3   OH246020   3.933   4.282   5.584  0.5898 -0.0124  0.6560
 8202TIP3    H146021   3.963   4.343   5.651  1.0341 -1.2131  1.5708
 8202TIP3    H246022   3.955   4.195   5.619 -1.5801 -0.7930  0.1545
 8203TIP3   OH246023   3.991   2.198  11.234  0.0006  0.1801 -0.1450
 8203TIP3    H146024   4.069   2.207  11.180  0.2613  0.2449  0.2400
 8203TIP3    H246025   3.949   2.118  11.201 -0.4641  0.8592 -1.2209
 8204TIP3   OH246026   4.601   2.996   0.174  0.3182 -0.0749  0.1237
 8204TIP3    H146027   4.587   3.026   0.084 -3.2153 -1.9311 -0.0137
 8204TIP3    H246028   4.582   3.073   0.228 -0.0415  0.3379 -0.5868
 8205TIP3   OH246029   4.361   3.101  12.170 -0.9767  0.0736 -0.0778
 8205TIP3    H146030   4.370   3.195  12.155  1.5794 -0.0025  0.5945
 8205TIP3    H246031   4.293   3.073  12.109 -0.3886  2.0296 -1.6968
 8206TIP3   OH246032   4.658   4.247  13.927  0.5011 -0.1740  0.0913
 8206TIP3    H146033   4.568   4.280  13.932  0.8858  0.9024  0.1504
 8206TIP3    H246034   4.708   4.307  13.983  1.1610 -1.0937  0.4888
 8207TIP3   OH246035   5.171   4.053   1.759  0.6716 -0.0186  0.8044
 8207TIP3    H146036   5.108   4.125   1.753  0.2110 -0.4912 -0.0526
 8207TIP3    H246037   5.237   4.085   1.822  2.0253  2.3412 -1.7116
 8208TIP3   OH246038   4.926   4.524  13.263 -0.0647 -0.5295  0.3919
 8208TIP3    H146039   4.939   4.618  13.279 -2.2291 -0.2149  0.5231
 8208TIP3    H246040   4.970   4.481  13.336  0.9976  0.3825  0.2951
 8209TIP3   OH246041   2.982   3.456   2.016  0.2045  0.8591  0.5260
 8209TIP3    H146042   2.951   3.546   2.028  1.2448  1.1604  1.0256
 8209TIP3    H246043   2.993   3.447   1.922 -0.6138  1.0200  0.4157
 8210TIP3   OH246044   4.296   2.348  14.576 -0.3522 -0.3358 -0.4981
 8210TIP3    H146045   4.370   2.402  14.550  0.2678 -2.2284 -2.8024
 8210TIP3    H246046   4.226   2.411  14.596  1.1213  1.3766 -0.6238
 8211TIP3   OH246047   3.804   4.176  16.740 -0.5364 -0.4419 -0.2610
 8211TIP3    H146048   3.869   4.156  16.673  0.2496  0.7348  0.1297
 8211TIP3    H246049   3.824   4.115  16.811  1.0452  0.8027  0.4142
 8212TIP3   OH246050   3.346   3.539   5.183  0.4619 -0.2810 -0.0737
 8212TIP3    H146051   3.279   3.476   5.209 -0.7724 -0.6080 -3.7076
 8212TIP3    H246052   3.407   3.488   5.129  1.5064  0.8330  0.0399
 8213TIP3   OH246053   6.252   5.617   1.181  0.4323 -0.1878  0.1349
 8213TIP3    H146054   6.268   5.567   1.101  2.8015 -0.7986  0.9418
 8213TIP3    H246055   6.161   5.645   1.174  0.6569  0.0016 -2.8964
 8214TIP3   OH246056   2.769   6.436  12.857 -0.3434 -0.0425  0.1846
 8214TIP3    H146057   2.795   6.454  12.767  0.7512 -0.1651  0.4689
 8214TIP3    H246058   2.741   6.344  12.857 -0.6729  0.0573 -0.0952
 8215TIP3   OH246059   0.503   0.190   0.976  0.0158 -0.0975 -0.6694
 8215TIP3    H146060   0.538   0.130   1.042 -1.1437  0.8191  0.8184
 8215TIP3    H246061   0.578   0.211   0.921  0.7824 -1.6790 -0.2715
 8216TIP3   OH246062   6.645   6.064   5.485 -0.0166 -0.1499 -0.3510
 8216TIP3    H146063   6.656   6.005   5.411  1.0243 -0.7632  0.2800
 8216TIP3    H246064   6.552   6.059   5.507 -0.5093  0.6713 -2.1260
 8217TIP3   OH246065   0.258   4.451   5.806  0.0095 -0.2876  0.0635
 8217TIP3    H146066   0.266   4.503   5.885  2.1363  0.8216 -0.8226
 8217TIP3    H246067   0.251   4.515   5.735 -0.6438 -1.2398 -0.7529
 8218TIP3   OH246068   1.691   2.209  12.642 -0.4349 -0.0635 -0.4541
 8218TIP3    H146069   1.668   2.123  12.679 -0.9338  0.6290  0.8979
 8218TIP3    H246070   1.780   2.225  12.674 -0.2032 -0.2370 -1.0100
 8219TIP3   OH246071   0.022   4.976  13.157  0.1475 -0.0618 -0.4256
 8219TIP3    H146072   0.090   4.957  13.092  0.4298 -0.8007  0.0860
 8219TIP3    H246073  -0.014   5.060  13.129 -0.1847 -0.6894 -1.9225
 8220TIP3   OH246074   3.882   1.037   2.583 -0.0840 -0.0492 -0.1438
 8220TIP3    H146075   3.882   1.021   2.677  0.0543  0.7411 -0.0044
 8220TIP3    H246076   3.931   1.118   2.573  0.2573 -0.3495 -0.9357
 8221TIP3   OH246077   5.897   2.630   4.489  0.4152  0.6431  0.0601
 8221TIP3    H146078   5.855   2.544   4.482  0.8002  0.3640  1.0893
 8221TIP3    H246079   5.919   2.638   4.582  1.3745  1.3912 -0.2329
 8222TIP3   OH246080   4.744   1.752  11.958  0.0821  0.3162 -0.3053
 8222TIP3    H146081   4.690   1.830  11.967 -0.9751 -0.4201 -0.2103
 8222TIP3    H246082   4.711   1.692  12.025 -0.4828 -0.9925 -1.7161
 8223TIP3   OH246083   2.035   6.084  16.922 -0.5623  0.5793  0.1852
 8223TIP3    H146084   2.082   6.094  16.839 -2.1661 -0.4150 -0.8592
 8223TIP3    H246085   2.055   6.164  16.970  3.1111 -0.2742  0.2570
 8224TIP3   OH246086   4.487   5.646   5.983 -0.1120 -0.1292  0.1496
 8224TIP3    H146087   4.469   5.728   6.029 -2.6504 -0.2658 -0.4918
 8224TIP3    H246088   4.483   5.579   6.051 -2.4032 -0.1637  0.0481
 8225TIP3   OH246089   5.515   2.612   4.774  0.0970  0.2338  0.1684
 8225TIP3    H146090   5.568   2.630   4.852  1.9114 -1.6545 -0.5822
 8225TIP3    H246091   5.535   2.684   4.715 -0.2145  0.9347  0.9021
 8226TIP3   OH246092   4.225   1.987   4.363 -0.4716 -0.6027 -0.9684
 8226TIP3    H146093   4.176   2.030   4.432  0.1840 -2.2727  0.5805
 8226TIP3    H246094   4.270   2.058   4.317 -0.9321  0.5304  0.3137
 8227TIP3   OH246095   5.920   5.980   0.647  0.0220 -0.5788 -0.6218
 8227TIP3    H146096   5.993   6.015   0.698 -1.8084  1.0683  0.9342
 8227TIP3    H246097   5.908   5.891   0.680  0.7153 -0.5425 -0.2528
 8228TIP3   OH246098   1.514   4.556  16.755 -0.0466  0.1057 -0.8905
 8228TIP3    H146099   1.597   4.531  16.797  0.0078  0.1047 -0.9981
 8228TIP3    H246100   1.447   4.539  16.822  0.0029 -0.2092 -0.9193
 8229TIP3   OH246101   4.475   6.233   5.032  0.1897 -0.2879 -0.3255
 8229TIP3    H146102   4.427   6.312   5.054  0.8989 -0.5002  2.1547
 8229TIP3    H246103   4.567   6.258   5.041  0.4351 -1.1588 -0.3658
 8230TIP3   OH246104   5.229   1.435  12.495 -0.8892  1.0732 -0.2192
 8230TIP3    H146105   5.192   1.444  12.583  0.8489  1.4551  0.4880
 8230TIP3    H246106   5.188   1.356  12.460  0.2839 -0.5276  1.8889
 8231TIP3   OH246107   0.479   1.013  16.389  0.6337 -0.1866  0.0815
 8231TIP3    H146108   0.557   0.962  16.412  0.0037 -1.1920  0.0179
 8231TIP3    H246109   0.413   0.986  16.452 -0.4487 -1.3015 -1.5053
 8232TIP3   OH246110   4.240   1.534   5.040 -0.3035 -0.0211 -0.3202
 8232TIP3    H146111   4.266   1.613   5.089 -1.7630  0.3427 -0.1226
 8232TIP3    H246112   4.146   1.525   5.056 -0.8503  0.1978 -3.1784
 8233TIP3   OH246113   2.238   2.467   2.058 -0.8598  0.7504 -0.4334
 8233TIP3    H146114   2.143   2.462   2.068 -0.9975 -0.2048 -2.0038
 8233TIP3    H246115   2.273   2.441   2.143 -1.9962  1.1718  0.1685
 8234TIP3   OH246116   4.991   2.120   6.047  0.2378 -0.3344  0.0935
 8234TIP3    H146117   4.929   2.118   6.120  0.9894  0.8848  0.7767
 8234TIP3    H246118   4.935   2.124   5.969 -0.5407  1.9064  0.7454
 8235TIP3   OH246119   6.727   3.714  17.142 -0.3322  0.0197 -0.2510
 8235TIP3    H146120   6.719   3.703  17.236  0.1563 -0.8851 -0.3150
 8235TIP3    H246121   6.665   3.651  17.104  0.0744 -0.2041 -0.5494
 8236TIP3   OH246122   0.212   2.479   1.485  0.0648  0.4441  0.4745
 8236TIP3    H146123   0.257   2.429   1.417 -1.5028 -1.2385  0.6237
 8236TIP3    H246124   0.154   2.538   1.436 -1.2184 -0.9150  0.3418
 8237TIP3   OH246125   3.607   6.680   1.422  0.1593 -0.6417 -0.1940
 8237TIP3    H146126   3.624   6.731   1.501 -1.7705  0.3440 -0.3769
 8237TIP3    H246127   3.543   6.614   1.449 -1.2046  0.2792 -1.1169
 8238TIP3   OH246128   4.713   6.741   2.569 -0.3455  0.0617 -0.2301
 8238TIP3    H146129   4.743   6.820   2.614  1.9088 -1.3483  0.8463
 8238TIP3    H246130   4.768   6.735   2.491 -0.2605 -0.6456 -0.1209
 8239TIP3   OH246131   5.743   3.454   6.640  0.2832 -0.2942  0.3774
 8239TIP3    H146132   5.732   3.378   6.582  1.1234  1.1791 -1.7972
 8239TIP3    H246133   5.811   3.507   6.598 -0.1833  1.5945  1.9056
 8240TIP3   OH246134   2.329   5.211  16.954  0.0414 -0.0793 -0.1540
 8240TIP3    H146135   2.294   5.123  16.971  2.8357 -0.9755  1.2323
 8240TIP3    H246136   2.410   5.196  16.906  1.7983  1.5926  2.2082
 8241TIP3   OH246137   1.987   4.648  13.249 -0.7256 -0.4029 -0.2035
 8241TIP3    H146138   2.047   4.586  13.209  0.4460 -0.8616  2.1724
 8241TIP3    H246139   1.900   4.611  13.234 -0.2004 -1.3231 -0.9861
 8242TIP3   OH246140   2.817   4.129  12.649  0.4383  0.0468 -0.3644
 8242TIP3    H146141   2.870   4.153  12.725  1.0052 -2.1269 -0.0482
 8242TIP3    H246142   2.879   4.087  12.589 -0.3895  0.0027 -1.2128
 8243TIP3   OH246143   0.058   1.041  17.061 -0.5127  0.3182 -0.2823
 8243TIP3    H146144   0.071   1.114  17.000  0.6694 -0.4532 -0.9721
 8243TIP3    H246145   0.097   1.071  17.143  0.2348  0.3490 -0.6486
 8244TIP3   OH246146   4.143   0.960  16.319 -0.5215  0.2613  0.1008
 8244TIP3    H146147   4.147   0.878  16.367 -0.6771 -1.2365 -2.3751
 8244TIP3    H246148   4.198   1.020  16.369 -1.1418 -1.0747  2.4255
 8245TIP3   OH246149   1.800   1.358   0.577 -0.2078  0.5910 -0.4004
 8245TIP3    H146150   1.847   1.440   0.593 -0.6563  0.5371  1.2527
 8245TIP3    H246151   1.715   1.370   0.618 -0.8066 -0.1914 -1.3703
 8246TIP3   OH246152   5.009   6.779   1.624 -0.1340  0.4046  0.0956
 8246TIP3    H146153   4.933   6.729   1.593  0.1679  0.6077 -1.0030
 8246TIP3    H246154   5.000   6.864   1.581 -0.2528  1.0614  1.3872
 8247TIP3   OH246155   6.335   6.038  11.980  0.2103  0.4318 -0.8963
 8247TIP3    H146156   6.418   6.085  11.974  1.0264 -0.6865  1.0967
 8247TIP3    H246157   6.317   6.033  12.074 -0.8715 -1.5024 -1.1766
 8248TIP3   OH246158   2.602   1.498   5.382 -0.1538 -0.1008  0.4221
 8248TIP3    H146159   2.512   1.483   5.353 -0.1764 -1.1914  1.0363
 8248TIP3    H246160   2.622   1.587   5.353 -1.4750  0.1959  0.3943
 8249TIP3   OH246161   3.711   1.301   5.634  0.1691 -0.7319 -0.7591
 8249TIP3    H146162   3.634   1.294   5.691 -0.1429 -0.6324 -1.1722
 8249TIP3    H246163   3.768   1.230   5.663  0.2700 -0.3202  0.0738
 8250TIP3   OH246164   4.335   2.351  12.914 -0.1072 -0.4138  0.4048
 8250TIP3    H146165   4.348   2.442  12.941 -0.9626 -1.2109  3.7553
 8250TIP3    H246166   4.275   2.316  12.979 -1.2736 -2.8923 -1.9208
 8251TIP3   OH246167   3.655   3.544   5.293  0.4116  0.0314  0.1220
 8251TIP3    H146168   3.631   3.539   5.385 -3.5218  1.9782 -0.7215
 8251TIP3    H246169   3.706   3.624   5.285  0.2227  0.1847  0.4655
 8252TIP3   OH246170   0.209   5.928   0.068  0.1830 -0.2397  0.1595
 8252TIP3    H146171   0.260   5.847   0.069  0.5384 -0.0125  1.0424
 8252TIP3    H246172   0.211   5.957  -0.023  1.3736 -0.3948  0.1379
 8253TIP3   OH246173   2.576   2.786   3.175 -0.2087  0.0510  0.6497
 8253TIP3    H146174   2.502   2.739   3.136 -0.5091  0.6893  0.4521
 8253TIP3    H246175   2.654   2.740   3.143 -0.5390 -1.2739  1.6820
 8254TIP3   OH246176   1.595   0.568  14.435 -0.0800  0.3939  0.5638
 8254TIP3    H146177   1.573   0.505  14.503 -0.5516 -0.9194 -0.7713
 8254TIP3    H246178   1.528   0.635  14.442  0.4560  0.7925  2.0322
 8255TIP3   OH246179   1.651   3.383  12.378  0.2868  0.1534  0.0046
 8255TIP3    H146180   1.608   3.307  12.338 -0.3461  0.8678 -0.6962
 8255TIP3    H246181   1.741   3.355  12.393 -0.3330 -1.2515  1.1912
 8256TIP3   OH246182   1.507   2.172  14.143 -0.0619  0.0323  0.1589
 8256TIP3    H146183   1.447   2.097  14.143  2.2359 -1.8985 -0.0198
 8256TIP3    H246184   1.471   2.232  14.078 -1.2150 -1.5415 -0.6925
 8257TIP3   OH246185   0.653   5.425   0.256  0.4947 -0.5371  0.0115
 8257TIP3    H146186   0.657   5.332   0.276  0.0745 -0.4526  0.5009
 8257TIP3    H246187   0.571   5.436   0.208  0.6661 -0.4601 -0.2650
 8258TIP3   OH246188   3.333   0.015  13.933 -0.0121 -0.5936 -0.8554
 8258TIP3    H146189   3.380   0.082  13.983 -2.4873  0.9559 -0.5559
 8258TIP3    H246190   3.284  -0.035  13.999 -0.4238 -0.8665 -1.3631
 8259TIP3   OH246191   5.613   5.238   4.555 -0.3473 -0.0624  0.5235
 8259TIP3    H146192   5.553   5.277   4.618  0.5201  0.7457  0.8623
 8259TIP3    H246193   5.654   5.313   4.511 -1.7886 -0.6025 -1.8234
 8260TIP3   OH246194   6.232   2.642  16.358 -0.3551  0.2098 -0.8448
 8260TIP3    H146195   6.198   2.686  16.280 -0.0857  0.2553 -0.9385
 8260TIP3    H246196   6.193   2.555  16.356 -0.8721  0.4393 -0.6728
 8261TIP3   OH246197   1.540   4.891  10.438  0.1691 -0.0583  0.4492
 8261TIP3    H146198   1.454   4.858  10.463  0.3261 -0.3122  0.6491
 8261TIP3    H246199   1.596   4.813  10.433  0.3712  0.0955  0.2498
 8262TIP3   OH246200   2.089   1.225   4.568  0.2709 -0.2529 -0.3404
 8262TIP3    H146201   2.178   1.210   4.536 -0.7251 -0.3943 -3.1284
 8262TIP3    H246202   2.078   1.320   4.568 -0.0684 -0.2896 -1.3971
 8263TIP3   OH246203   2.761   6.566  12.491  0.3193  0.4098  0.3929
 8263TIP3    H146204   2.690   6.602  12.544  0.2045  1.1966 -0.2883
 8263TIP3    H246205   2.741   6.473  12.484 -2.9496  1.2749 -3.2831
 8264TIP3   OH246206   3.517   1.418   4.635 -0.1730  0.0635  0.0240
 8264TIP3    H146207   3.531   1.430   4.729 -0.3016  0.5469 -0.0170
 8264TIP3    H246208   3.423   1.432   4.622  0.2376  2.6454 -0.5503
 8265TIP3   OH246209   4.346   0.102  12.430 -0.2226 -0.0522 -0.0663
 8265TIP3    H146210   4.411   0.160  12.391  0.0561 -0.9197 -0.9061
 8265TIP3    H246211   4.386   0.015  12.426 -0.3859 -0.2199  1.7344
 8266TIP3   OH246212   6.000   2.083   1.974  0.0271 -0.7317 -0.4695
 8266TIP3    H146213   5.995   2.168   1.930  0.3344 -2.0225 -3.1116
 8266TIP3    H246214   6.091   2.076   2.003 -0.2313  0.2290  0.5862
 8267TIP3   OH246215   2.630   5.191   4.197 -0.1623  0.1671 -0.3658
 8267TIP3    H146216   2.539   5.166   4.211  0.5331 -1.4144  1.5091
 8267TIP3    H246217   2.678   5.108   4.191  1.2865  0.9823 -0.3718
 8268TIP3   OH246218   6.217   4.097   1.198  0.7080 -0.1817 -0.6500
 8268TIP3    H146219   6.254   4.028   1.253  0.0501  0.5801  0.7921
 8268TIP3    H246220   6.273   4.100   1.121  1.3688 -1.5981 -0.2312
 8269TIP3   OH246221   3.086   6.765   4.457  0.7673 -0.0569  0.4283
 8269TIP3    H146222   3.024   6.725   4.396 -0.4900  1.1517  0.8853
 8269TIP3    H246223   3.040   6.769   4.540  2.3274 -1.3109  1.3776
 8270TIP3   OH246224   0.943   2.840  11.005 -0.2495  0.1457 -0.0611
 8270TIP3    H146225   1.004   2.768  10.987 -1.4151 -1.0652  0.7784
 8270TIP3    H246226   0.899   2.814  11.085 -1.3937  1.3402 -0.2952
 8271TIP3   OH246227   1.534   1.989  13.213 -0.0651  0.0906 -0.0850
 8271TIP3    H146228   1.536   1.915  13.151 -0.0350  0.1013 -0.0959
 8271TIP3    H246229   1.482   2.056  13.168  2.4721  1.2509 -1.3651
 8272TIP3   OH246230   0.083   1.524  17.148  0.3724 -0.8429 -0.2228
 8272TIP3    H146231   0.032   1.463  17.200  0.1947  0.1985  0.8375
 8272TIP3    H246232   0.172   1.487  17.148  0.0907 -1.5248 -0.2849
 8273TIP3   OH246233   4.269   5.832   0.281  0.1209 -0.0272  0.0401
 8273TIP3    H146234   4.345   5.777   0.302  0.3949 -0.2948 -1.5553
 8273TIP3    H246235   4.301   5.922   0.293  1.8256  0.0251 -3.8565
 8274TIP3   OH246236   4.784   3.353  14.071 -0.2457 -0.6503  0.5176
 8274TIP3    H146237   4.842   3.314  14.137 -2.0121  0.6757  2.9622
 8274TIP3    H246238   4.814   3.444  14.063 -0.7175 -0.5124  0.3033
 8275TIP3   OH246239   3.917   3.805  16.484 -0.0804 -0.3990  0.3563
 8275TIP3    H146240   3.963   3.731  16.523 -0.0223 -0.9093 -0.6517
 8275TIP3    H246241   3.829   3.801  16.521  0.6030  0.4234  2.0893
 8276TIP3   OH246242   4.113   3.812  13.773  0.6752 -0.5555 -0.1781
 8276TIP3    H146243   4.117   3.798  13.678 -0.6579 -1.6374 -0.0914
 8276TIP3    H246244   4.060   3.740  13.806 -1.8277  1.7200  0.9746
 8277TIP3   OH246245   0.378   5.906  16.260 -0.3529 -0.3776 -0.5003
 8277TIP3    H146246   0.346   5.937  16.345 -0.5206 -2.2516  0.1476
 8277TIP3    H246247   0.470   5.884  16.276  0.1882  1.1922 -1.3382
 8278TIP3   OH246248   1.533   0.861   2.382  0.0503  0.1056 -0.2766
 8278TIP3    H146249   1.523   0.777   2.338  0.5743 -0.2289  0.2247
 8278TIP3    H246250   1.578   0.917   2.318  0.9749 -0.4332 -0.1114
 8279TIP3   OH246251   5.799   6.439   4.561 -0.1641 -0.3364 -1.3207
 8279TIP3    H146252   5.734   6.410   4.497 -2.1612  0.2587  0.3822
 8279TIP3    H246253   5.757   6.512   4.606  1.3465 -0.5155  0.4473
 8280TIP3   OH246254   5.879   3.246  13.323  0.3304  0.1622 -0.1946
 8280TIP3    H146255   5.820   3.173  13.303  0.4769 -0.2291  0.7322
 8280TIP3    H246256   5.920   3.221  13.406  0.9340  0.9668 -0.2418
 8281TIP3   OH246257   0.085   6.155   1.443  0.6100  0.1817 -0.5919
 8281TIP3    H146258   0.131   6.165   1.526 -0.4114  1.5843 -0.1895
 8281TIP3    H246259   0.113   6.230   1.390 -0.4604  0.5078 -0.7020
 8282TIP3   OH246260   1.719   3.872   2.742 -0.2275 -0.7056 -0.2393
 8282TIP3    H146261   1.744   3.914   2.824 -0.8444 -0.5866 -0.1098
 8282TIP3    H246262   1.789   3.809   2.724 -0.6161 -1.4772  0.9176
 8283TIP3   OH246263   2.434   5.228  15.729  0.1077  0.0081  0.5370
 8283TIP3    H146264   2.358   5.286  15.736 -1.1957 -1.7928  2.1006
 8283TIP3    H246265   2.444   5.192  15.817  0.7492 -2.2419 -0.4184
 8284TIP3   OH246266   3.593   2.809   5.072 -0.3363 -0.5490 -0.2374
 8284TIP3    H146267   3.658   2.801   5.003  1.7434  1.0985  1.4795
 8284TIP3    H246268   3.605   2.730   5.125  1.0833  0.2804  0.7175
 8285TIP3   OH246269   2.325   3.717   4.333  0.0553  0.0457  0.1250
 8285TIP3    H146270   2.289   3.804   4.347 -1.2656 -0.5661  0.6674
 8285TIP3    H246271   2.289   3.664   4.405  1.6233 -0.7177  0.3648
 8286TIP3   OH246272   2.872   6.433  14.754  1.1784  0.0647  0.4953
 8286TIP3    H146273   2.846   6.435  14.846 -0.3983 -0.0801  0.0730
 8286TIP3    H246274   2.869   6.341  14.730 -0.3989  0.2689 -0.2081
 8287TIP3   OH246275   0.134   4.607   1.724 -0.3284 -0.8086 -0.5879
 8287TIP3    H146276   0.046   4.591   1.759  0.1734 -0.5646  0.7753
 8287TIP3    H246277   0.191   4.607   1.800  0.6486  0.6236 -1.3083
 8288TIP3   OH246278   1.523   1.820  15.305 -0.1477  0.2163 -0.1218
 8288TIP3    H146279   1.441   1.782  15.337 -0.1943  0.2117 -0.2462
 8288TIP3    H246280   1.504   1.845  15.215 -0.5167  1.7186  0.3535
 8289TIP3   OH246281   2.702   0.884   6.149  0.2724 -0.1755  0.5284
 8289TIP3    H146282   2.732   0.798   6.178  1.3370 -1.0222 -2.8647
 8289TIP3    H246283   2.611   0.870   6.122  0.3014 -0.1334  0.4068
 8290TIP3   OH246284   0.031   1.098  15.625  0.1654  0.4617 -0.2016
 8290TIP3    H146285   0.006   1.159  15.556 -2.1046 -0.5625 -0.3368
 8290TIP3    H246286   0.126   1.110  15.635 -0.1884  3.8098 -0.3501
 8291TIP3   OH246287   3.280   3.705  11.408  0.0708  0.6866 -0.4134
 8291TIP3    H146288   3.346   3.685  11.474 -0.6491 -2.8651 -0.6605
 8291TIP3    H246289   3.325   3.765  11.348  2.0475  0.7774  1.0822
 8292TIP3   OH246290   6.099   4.259  17.009  0.0635  0.0033  0.2633
 8292TIP3    H146291   6.136   4.347  17.006  0.2560 -0.0888 -0.0885
 8292TIP3    H246292   6.165   4.204  16.967  0.9327 -0.6605  2.4242
 8293TIP3   OH246293   2.092   0.131  13.629  0.3347 -0.0778  0.1582
 8293TIP3    H146294   2.010   0.131  13.679  0.5113  1.1653  0.4712
 8293TIP3    H246295   2.159   0.155  13.692  0.6723  0.7461 -0.4973
 8294TIP3   OH246296   6.043   2.389   4.344  0.8288  0.0796 -0.3675
 8294TIP3    H146297   5.982   2.341   4.288  0.7515  0.5271 -0.6688
 8294TIP3    H246298   5.990   2.414   4.420  0.5619  0.6736 -0.7365
 8295TIP3   OH246299   4.227   1.069   1.565  0.2493 -0.0976  0.7422
 8295TIP3    H146300   4.223   0.976   1.544  1.2647  0.0279 -0.0112
 8295TIP3    H246301   4.222   1.073   1.661 -1.6773 -0.8197  0.6904
 8296TIP3   OH246302   0.760   1.572  13.215 -0.5233  0.2415  0.0987
 8296TIP3    H146303   0.796   1.603  13.298  0.0308  0.3570 -0.1763
 8296TIP3    H246304   0.777   1.478  13.215 -0.1328  0.3090 -0.0671
 8297TIP3   OH246305   5.361   6.610  17.145  0.2579 -0.3762 -0.0595
 8297TIP3    H146306   5.385   6.689  17.194 -0.8063 -0.2095  0.1995
 8297TIP3    H246307   5.422   6.543  17.176  0.9390  0.2577 -0.0271
 8298TIP3   OH246308   1.262   5.905   0.823 -0.1566  0.5078 -0.0536
 8298TIP3    H146309   1.353   5.883   0.803 -0.7415 -3.4885  1.2129
 8298TIP3    H246310   1.266   5.940   0.912  0.0792 -0.1132  0.1823
 8299TIP3   OH246311   1.020   1.349  15.634  0.1357 -0.5098  0.7269
 8299TIP3    H146312   1.026   1.346  15.539  0.1286  0.8463  0.6661
 8299TIP3    H246313   0.927   1.337  15.653 -0.0190  0.2883  0.5004
 8300TIP3   OH246314   3.991   6.753   1.655 -0.1598  0.2577  0.3879
 8300TIP3    H146315   4.085   6.744   1.670  0.1825 -0.4990 -2.0212
 8300TIP3    H246316   3.984   6.780   1.564 -2.3387 -1.1082  0.1220
 8301TIP3   OH246317   2.656   0.355  16.373  0.0169  0.0509 -0.0275
 8301TIP3    H146318   2.707   0.383  16.449 -0.4005  1.1827 -0.1558
 8301TIP3    H246319   2.570   0.333  16.409 -0.2369  0.7603 -0.1883
 8302TIP3   OH246320   5.868   6.661   6.062 -0.5568  0.2675 -0.2213
 8302TIP3    H146321   5.816   6.582   6.043 -1.4035  0.8956 -0.5409
 8302TIP3    H246322   5.958   6.630   6.066 -0.9454 -0.8233  0.2156
 8303TIP3   OH246323   2.328   5.217  14.985  0.0517  0.3007 -0.4223
 8303TIP3    H146324   2.274   5.266  14.924 -2.0435 -0.7372  0.5233
 8303TIP3    H246325   2.383   5.283  15.027 -1.4497  1.6187 -0.4542
 8304TIP3   OH246326   1.660   4.230   5.696  0.2405 -0.8767 -0.5860
 8304TIP3    H146327   1.736   4.197   5.648  0.6242 -1.5696  0.4782
 8304TIP3    H246328   1.647   4.167   5.767  0.7920  1.0345  1.2887
 8305TIP3   OH246329   5.341   4.571  12.749 -0.1231  0.3838 -0.1139
 8305TIP3    H146330   5.269   4.626  12.778  0.7493  0.9563  0.9991
 8305TIP3    H246331   5.325   4.486  12.791 -1.2370 -0.1207 -1.4948
 8306TIP3   OH246332   0.720   5.161   3.447 -0.0679 -1.1349  0.7385
 8306TIP3    H146333   0.654   5.099   3.479 -0.4265 -1.3430 -0.3645
 8306TIP3    H246334   0.804   5.119   3.468 -0.2709 -0.6249  2.6150
 8307TIP3   OH246335   2.109   4.985  15.821 -0.1778  0.4352 -0.0587
 8307TIP3    H146336   2.096   5.052  15.888  0.2106  0.8506 -0.3904
 8307TIP3    H246337   2.049   5.009  15.750 -1.9863 -1.0864  0.9167
 8308TIP3   OH246338   1.291   3.322  15.263 -0.5080 -0.5117 -0.3156
 8308TIP3    H146339   1.351   3.395  15.280 -2.0411  1.0521 -1.4357
 8308TIP3    H246340   1.229   3.357  15.199 -2.8522 -1.9635  1.1029
 8309TIP3   OH246341   5.972   6.363   3.225 -0.0939 -0.1300  0.0763
 8309TIP3    H146342   5.998   6.453   3.209 -1.4541  0.1459 -0.6033
 8309TIP3    H246343   6.031   6.311   3.169  0.5558  0.3372  0.3226
 8310TIP3   OH246344   1.050   3.690   6.236 -0.2989  0.0543  0.2704
 8310TIP3    H146345   1.139   3.723   6.251 -0.7313  0.2323  2.6579
 8310TIP3    H246346   1.063   3.605   6.193  1.1236 -1.0561  2.7754
 8311TIP3   OH246347   5.073   1.276  11.159  0.2392 -0.5541  0.1521
 8311TIP3    H146348   5.110   1.357  11.195 -0.1491 -1.0521  1.7175
 8311TIP3    H246349   4.979   1.285  11.171  0.1843 -1.1774  0.2069
 8312TIP3   OH246350   0.648   3.358  11.928 -0.5113  0.2000  0.3047
 8312TIP3    H146351   0.592   3.436  11.933  0.5096  0.9000  1.0659
 8312TIP3    H246352   0.721   3.378  11.987  0.7426 -0.5431 -0.9825
 8313TIP3   OH246353   1.735   0.014   5.687 -0.3815 -0.1587  0.1373
 8313TIP3    H146354   1.756   0.098   5.727 -0.7962 -0.6088  1.3235
 8313TIP3    H246355   1.790  -0.049   5.735  1.0967 -0.3847 -1.7818
 8314TIP3   OH246356   0.956   5.002   2.243 -0.1852 -0.6025 -0.6338
 8314TIP3    H146357   0.936   4.966   2.329 -0.0663 -0.1687 -0.4278
 8314TIP3    H246358   1.030   4.949   2.212  2.2125  1.6100  1.0938
 8315TIP3   OH246359   4.821   5.140   3.177 -0.3514 -0.5437 -0.1484
 8315TIP3    H146360   4.859   5.101   3.099 -0.2976  0.5657 -0.6937
 8315TIP3    H246361   4.727   5.140   3.161 -0.2725  0.6606 -0.6993
 8316TIP3   OH246362   1.683   6.153   3.719 -0.2492 -0.4081  0.6243
 8316TIP3    H146363   1.677   6.085   3.786 -0.9502 -0.7936  0.1789
 8316TIP3    H246364   1.740   6.220   3.757  0.8430 -1.4650  0.8750
 8317TIP3   OH246365   6.663   0.826  13.000  0.5460  0.6325  0.1258
 8317TIP3    H146366   6.668   0.793  12.911 -1.5697 -1.6693  0.7795
 8317TIP3    H246367   6.585   0.881  13.002  0.7136  0.8652  0.5008
 8318TIP3   OH246368   5.331   3.598   2.659 -0.3292 -0.4169  0.1764
 8318TIP3    H146369   5.332   3.539   2.734  0.2814 -0.2638  0.2947
 8318TIP3    H246370   5.423   3.623   2.647 -0.5585  0.4137  0.0568
 8319TIP3   OH246371   2.751   5.765   5.885 -0.6126  0.0909 -0.3616
 8319TIP3    H146372   2.749   5.846   5.835  1.0263 -0.8671 -2.0291
 8319TIP3    H246373   2.785   5.791   5.971  0.1593  1.1324 -0.9644
 8320TIP3   OH246374   5.175   0.705   1.499 -0.8025 -0.5045  0.3494
 8320TIP3    H146375   5.186   0.625   1.449  1.1028 -0.6536  0.9671
 8320TIP3    H246376   5.219   0.687   1.583  0.5836  1.5359  0.0921
 8321TIP3   OH246377   0.639   3.184   1.103 -0.4708  0.0981  0.2505
 8321TIP3    H146378   0.716   3.186   1.160 -0.2735  0.0473 -0.0163
 8321TIP3    H246379   0.629   3.092   1.078  1.1303  0.5279 -2.0991
 8322TIP3   OH246380   4.702   5.512  12.277  0.7030  0.0609 -0.7518
 8322TIP3    H146381   4.635   5.478  12.218 -0.5494  1.2138 -0.0264
 8322TIP3    H246382   4.765   5.555  12.218  0.4291 -0.4018 -1.3900
 8323TIP3   OH246383   4.660   4.368  15.433  0.0952 -0.6200 -0.4424
 8323TIP3    H146384   4.669   4.412  15.517 -0.2911  0.3643 -0.9099
 8323TIP3    H246385   4.742   4.386  15.387  0.1776 -0.8921 -0.4040
 8324TIP3   OH246386   4.936   4.470   5.086 -0.3509 -0.9447  0.0020
 8324TIP3    H146387   4.948   4.447   4.994  1.3805 -0.0818 -0.0049
 8324TIP3    H246388   4.989   4.549   5.099 -1.3380 -0.4865  1.5116
 8325TIP3   OH246389   5.780   2.030  16.276 -0.8294 -0.2105 -0.2632
 8325TIP3    H146390   5.780   2.058  16.184 -0.9137 -1.1937 -0.5709
 8325TIP3    H246391   5.864   2.060  16.310 -0.9011  0.3794 -0.5969
 8326TIP3   OH246392   5.537   5.560   3.104 -0.8354 -0.1406 -0.1559
 8326TIP3    H146393   5.559   5.486   3.161 -0.6494  0.9239  1.1790
 8326TIP3    H246394   5.604   5.626   3.123 -1.7428  0.8601 -0.3838
 8327TIP3   OH246395   2.274   0.141  12.789 -0.2910  0.3863 -0.0698
 8327TIP3    H146396   2.250   0.103  12.874 -0.3255  1.6317  0.4906
 8327TIP3    H246397   2.247   0.075  12.725 -0.5875 -0.4191  0.8638
 8328TIP3   OH246398   4.614   6.406   0.482  0.1489  0.0896 -0.2798
 8328TIP3    H146399   4.561   6.478   0.516 -1.1295 -0.9589  0.0090
 8328TIP3    H246400   4.581   6.392   0.393 -1.2101 -1.6209  0.4533
 8329TIP3   OH246401   1.753   4.880  12.627 -0.2333  0.3643 -0.2369
 8329TIP3    H146402   1.740   4.896  12.533  0.2667 -1.3519 -0.6209
 8329TIP3    H246403   1.664   4.871  12.661 -0.4872  2.8957 -0.1765
 8330TIP3   OH246404   3.694   2.443   3.640 -0.2287  0.4253 -0.1572
 8330TIP3    H146405   3.665   2.486   3.720  0.0455  0.6691 -0.1896
 8330TIP3    H246406   3.698   2.350   3.663  1.0175  0.6297  0.4646
 8331TIP3   OH246407   0.053   0.209  10.755 -0.4005 -0.1990 -0.4034
 8331TIP3    H146408   0.117   0.183  10.821 -0.1488  0.4152 -0.4067
 8331TIP3    H246409   0.063   0.145  10.685  0.3630  0.0267 -0.5021
 8332TIP3   OH246410   0.885   5.238   4.742 -0.1969 -1.0850  0.1600
 8332TIP3    H146411   0.892   5.253   4.647 -1.6749 -0.1300  0.1911
 8332TIP3    H246412   0.864   5.145   4.750 -3.1670 -0.5189 -0.6103
 8333TIP3   OH246413   4.359   5.664  13.270  0.4856  0.3301 -0.1483
 8333TIP3    H146414   4.427   5.640  13.332  1.2051  0.2333 -0.9615
 8333TIP3    H246415   4.291   5.598  13.283  1.5475 -0.9421 -0.9171
 8334TIP3   OH246416   1.896   0.286  14.152 -0.0718 -0.0375  0.0085
 8334TIP3    H146417   1.823   0.276  14.213  0.4208  0.3124  0.6602
 8334TIP3    H246418   1.899   0.380  14.134  0.3075 -0.0340  0.0936
 8335TIP3   OH246419   6.707   1.004   5.909 -0.0535 -0.2845  0.3587
 8335TIP3    H146420   6.692   1.009   6.004 -0.5946 -0.4728  0.2862
 8335TIP3    H246421   6.647   0.936   5.879  0.7319 -0.8259 -0.0024
 8336TIP3   OH246422   2.754   5.917  17.054 -0.6006 -0.3907 -0.3865
 8336TIP3    H146423   2.704   5.913  17.136 -0.7055  1.4612 -0.3317
 8336TIP3    H246424   2.705   5.979  17.000  0.2969 -0.4568 -1.2824
 8337TIP3   OH246425   1.528   0.556  15.841  0.5722 -0.1885  0.3653
 8337TIP3    H146426   1.572   0.472  15.833 -0.7453 -0.9109  0.6047
 8337TIP3    H246427   1.564   0.609  15.770  1.6278 -0.8526  0.4068
 8338TIP3   OH246428   2.606   5.296   3.021  0.2469  0.3419  0.0552
 8338TIP3    H146429   2.515   5.268   3.013  0.4981 -0.2352 -0.8979
 8338TIP3    H246430   2.604   5.390   3.007  0.2338 -0.1544 -3.8177
 8339TIP3   OH246431   5.563   2.983  15.608  0.7514  0.2543  0.4255
 8339TIP3    H146432   5.485   2.964  15.555  0.4530  0.3564  0.8216
 8339TIP3    H246433   5.564   3.079  15.614 -0.3716  0.1787  2.2991
 8340TIP3   OH246434   1.599   0.321   2.097 -0.6027 -0.5101 -0.3103
 8340TIP3    H146435   1.639   0.334   2.184  0.1176 -1.0496 -0.5523
 8340TIP3    H246436   1.537   0.394   2.088  0.3467  0.3729  0.0707
 8341TIP3   OH246437   6.095   2.834   5.919  0.2816 -0.0377 -0.4130
 8341TIP3    H146438   6.095   2.894   5.844  1.2883 -1.8183 -1.8548
 8341TIP3    H246439   6.008   2.793   5.917  1.1944 -1.9195 -2.1064
 8342TIP3   OH246440   1.474   1.854   0.751  0.2764  0.2870 -0.2607
 8342TIP3    H146441   1.485   1.929   0.693  2.3665  1.9599  2.2063
 8342TIP3    H246442   1.448   1.891   0.835  1.7913 -1.6568  1.1358
 8343TIP3   OH246443   0.079   5.545   4.750 -0.7981 -0.1881  0.2679
 8343TIP3    H146444   0.004   5.514   4.699  0.5935  0.7039 -2.4287
 8343TIP3    H246445   0.118   5.465   4.785 -0.6685 -1.0133 -1.7029
 8344TIP3   OH246446   1.994   2.112  13.263  0.2625 -0.5466 -0.3877
 8344TIP3    H146447   1.899   2.116  13.255  0.0332 -1.4201  1.5627
 8344TIP3    H246448   2.011   2.131  13.355  2.0703  0.8087 -0.9672
 8345TIP3   OH246449   0.807   1.302  14.915  0.0485 -0.1819  0.5546
 8345TIP3    H146450   0.819   1.257  14.999  0.2448  1.9591  1.7031
 8345TIP3    H246451   0.714   1.322  14.911  0.3526  1.4020  1.1582
 8346TIP3   OH246452   4.872   4.782   4.001 -0.5122  0.2723 -0.2502
 8346TIP3    H146453   4.862   4.773   3.906 -1.6589 -2.1412  0.0585
 8346TIP3    H246454   4.797   4.735   4.037  0.7330 -0.1025  1.8878
 8347TIP3   OH246455   2.290   3.092  13.048  1.2138 -0.5450 -0.2999
 8347TIP3    H146456   2.327   3.054  12.968 -2.3415 -3.7748 -0.5302
 8347TIP3    H246457   2.348   3.062  13.118  1.3434 -2.1607 -1.0797
 8348TIP3   OH246458   0.153   3.986   6.612  0.1089 -0.6614 -0.3615
 8348TIP3    H146459   0.176   4.006   6.703  1.9223 -3.4638 -0.1365
 8348TIP3    H246460   0.087   3.917   6.619 -1.4477  0.7253 -1.1657
 8349TIP3   OH246461   4.654   6.101  16.901 -0.6680 -0.6854 -0.6365
 8349TIP3    H146462   4.567   6.081  16.866 -1.5128  3.1703 -0.9722
 8349TIP3    H246463   4.695   6.155  16.834 -0.7896  3.4654  2.4617
 8350TIP3   OH246464   2.750   6.489   2.962 -0.1690 -0.0654 -0.3455
 8350TIP3    H146465   2.836   6.518   2.993 -0.5066  2.5314 -1.6153
 8350TIP3    H246466   2.769   6.437   2.884  0.3703 -1.5213  0.7541
 8351TIP3   OH246467   1.960   3.694   6.587 -0.1970 -0.2886 -0.4766
 8351TIP3    H146468   1.868   3.704   6.612  0.1065 -0.0224  0.5610
 8351TIP3    H246469   1.973   3.599   6.581 -0.2671 -0.3673  0.4601
 8352TIP3   OH246470   1.460   0.707  13.720 -0.1694  0.0204  0.3546
 8352TIP3    H146471   1.433   0.795  13.743  0.5653  0.3410  0.0177
 8352TIP3    H246472   1.555   0.707  13.730 -0.2378 -0.9659  1.1391
 8353TIP3   OH246473   6.362   0.370  14.596  0.6157 -0.1518  0.3333
 8353TIP3    H146474   6.355   0.339  14.506 -0.4462 -0.5911  0.5647
 8353TIP3    H246475   6.321   0.457  14.594  1.0011  0.0302  0.2976
 8354TIP3   OH246476   0.187   6.742   5.885 -0.2568  0.0602 -0.2406
 8354TIP3    H146477   0.245   6.667   5.870  0.1014  0.2661  0.1117
 8354TIP3    H246478   0.106   6.718   5.841  0.1299 -0.1851 -0.8399
 8355TIP3   OH246479   2.243   5.284  13.105 -0.0646 -0.0457  0.1953
 8355TIP3    H146480   2.305   5.337  13.054  0.0788 -1.0801 -0.7260
 8355TIP3    H246481   2.205   5.224  13.041  0.1313 -1.3875  1.3111
 8356TIP3   OH246482   1.668   2.582  15.636 -0.0808 -0.0924  0.2752
 8356TIP3    H146483   1.636   2.543  15.555  1.6245 -0.5253 -0.2083
 8356TIP3    H246484   1.725   2.514  15.674  0.6773  0.8499  0.8440
 8357TIP3   OH246485   5.824   3.017   2.361  0.4753  0.6453 -0.1443
 8357TIP3    H146486   5.912   3.054   2.367  1.0841 -0.8132  0.0443
 8357TIP3    H246487   5.774   3.062   2.429  2.1991 -1.6154  2.6993
 8358TIP3   OH246488   6.402   6.108   2.940  0.5766 -0.0645  0.6574
 8358TIP3    H146489   6.487   6.135   2.974 -0.1098  2.0776  0.7625
 8358TIP3    H246490   6.350   6.088   3.018  0.7007 -0.5375  0.6232
 8359TIP3   OH246491   4.087   2.890   3.105 -0.1755  0.5554 -0.3403
 8359TIP3    H146492   4.082   2.826   3.034  2.3971  1.1150 -1.0783
 8359TIP3    H246493   4.033   2.963   3.076 -1.0500 -0.2049 -0.6418
 8360TIP3   OH246494   5.280   3.051  16.531  0.0084  0.3727 -0.4267
 8360TIP3    H146495   5.255   3.132  16.575  0.1705  1.2344 -1.8838
 8360TIP3    H246496   5.220   3.045  16.456  0.7775 -0.2240 -1.0095
 8361TIP3   OH246497   1.049   5.670   1.386 -0.2833 -0.3092 -0.1402
 8361TIP3    H146498   1.048   5.764   1.403  1.4840 -0.0083 -1.6048
 8361TIP3    H246499   0.986   5.634   1.449 -1.0764  1.8493  0.3532
 8362TIP3   OH246500   4.804   4.251   3.580  0.0276 -0.4909 -0.0850
 8362TIP3    H146501   4.890   4.228   3.616  0.2009 -1.2698 -0.9530
 8362TIP3    H246502   4.807   4.219   3.490 -1.4473 -1.2032  0.0942
 8363TIP3   OH246503   0.202   3.864   5.375  0.5982  0.1271 -0.6577
 8363TIP3    H146504   0.154   3.943   5.351  0.1847 -0.0418 -0.3989
 8363TIP3    H246505   0.134   3.800   5.394  0.9422 -0.3986 -1.2247
 8364TIP3   OH246506   5.700   2.569  16.024  0.2658 -0.0582 -0.4144
 8364TIP3    H146507   5.716   2.614  15.941  1.5126 -0.3488 -0.3358
 8364TIP3    H246508   5.719   2.477  16.005  2.6423  0.1591  0.7386
 8365TIP3   OH246509   3.696   0.152   6.255  0.4614 -0.4030  0.5044
 8365TIP3    H146510   3.748   0.113   6.325  1.9663  0.1014 -0.3005
 8365TIP3    H246511   3.746   0.229   6.228 -0.6974  0.0695 -0.3147
 8366TIP3   OH246512   4.666   1.942   4.787 -0.6065  0.0705  0.5055
 8366TIP3    H146513   4.622   1.920   4.869 -2.2237  3.2475  0.5675
 8366TIP3    H246514   4.596   1.969   4.728  0.8662  1.4943 -0.6736
 8367TIP3   OH246515   1.750   6.575   1.710  0.4803  0.3413  0.7092
 8367TIP3    H146516   1.789   6.662   1.706 -0.1370  0.6596  1.4703
 8367TIP3    H246517   1.697   6.576   1.790 -3.0179  0.7087 -1.5468
 8368TIP3   OH246518   0.835   1.923   2.327 -0.0953 -0.1950 -0.2588
 8368TIP3    H146519   0.820   1.873   2.247  1.3178 -1.8679  0.4587
 8368TIP3    H246520   0.928   1.909   2.346 -0.7109 -1.0179  2.4055
 8369TIP3   OH246521   4.705   1.341   2.616 -0.4368 -0.5103  0.0407
 8369TIP3    H146522   4.670   1.427   2.590  0.3851  0.4995  2.1831
 8369TIP3    H246523   4.644   1.278   2.577 -1.0091  1.0361 -1.6234
 8370TIP3   OH246524   4.813   3.043   4.766 -0.3080  0.5360 -0.2289
 8370TIP3    H146525   4.809   3.123   4.818  1.5130 -0.1947  1.0869
 8370TIP3    H246526   4.798   2.973   4.829 -1.9435 -0.1826 -1.3856
 8371TIP3   OH246527   2.536   3.255   4.435  0.4164 -0.3230 -1.3419
 8371TIP3    H146528   2.461   3.208   4.399  1.0311 -1.1470 -1.5772
 8371TIP3    H246529   2.571   3.196   4.502  0.1918  0.5377 -0.4516
 8372TIP3   OH246530   2.509   4.812  15.318 -0.2377  0.5022  0.2427
 8372TIP3    H146531   2.491   4.906  15.322 -0.2458  0.5737 -1.3820
 8372TIP3    H246532   2.564   4.801  15.241 -0.1956 -0.8239  0.4502
 8373TIP3   OH246533   6.699   4.182  16.489  0.1606 -0.6643  0.2618
 8373TIP3    H146534   6.638   4.254  16.503  0.6414  0.2870 -2.2838
 8373TIP3    H246535   6.655   4.124  16.427  2.0131  0.3474 -2.0928
 8374TIP3   OH246536   4.228   0.979  15.598  0.1162  0.9468 -0.4898
 8374TIP3    H146537   4.219   1.041  15.526  0.0031  1.1719 -0.2828
 8374TIP3    H246538   4.190   1.024  15.673  0.1701  0.6846 -0.3057
 8375TIP3   OH246539   1.481   0.118   3.249 -0.4406 -0.0253 -0.4158
 8375TIP3    H146540   1.495   0.211   3.229 -1.0563  0.8192  2.7362
 8375TIP3    H246541   1.387   0.106   3.237 -0.6899  0.3012  1.0358
 8376TIP3   OH246542   1.034   0.221  16.843 -0.3222  0.0283  0.8062
 8376TIP3    H146543   1.105   0.258  16.790 -1.1639 -0.3701 -0.6337
 8376TIP3    H246544   1.073   0.143  16.883  0.9723  1.5136  2.5642
 8377TIP3   OH246545   2.726   1.330  13.997  0.5067  0.4479 -0.4839
 8377TIP3    H146546   2.750   1.360  13.910 -0.0722  1.0250 -0.4538
 8377TIP3    H246547   2.806   1.293  14.033  1.3989  2.4768 -0.3256
 8378TIP3   OH246548   6.340   4.670   2.920  0.2397 -0.2127 -0.0398
 8378TIP3    H146549   6.362   4.739   2.982  0.8159 -1.7387  1.4949
 8378TIP3    H246550   6.344   4.589   2.971 -3.3151 -1.1365 -1.1095
 8379TIP3   OH246551   5.309   1.363  14.657  0.4242 -0.0482 -0.2865
 8379TIP3    H146552   5.270   1.446  14.630  1.8095  0.5172 -0.5618
 8379TIP3    H246553   5.284   1.353  14.749 -0.7336  0.0840 -0.5710
 8380TIP3   OH246554   0.998   2.082  16.980 -0.0953 -0.0090 -0.7144
 8380TIP3    H146555   1.058   2.008  16.976 -0.4699 -0.3907  0.5929
 8380TIP3    H246556   1.053   2.159  16.967  0.6416 -0.3712  0.2051
 8381TIP3   OH246557   3.256   6.092  11.993  0.2167 -0.3084  0.6742
 8381TIP3    H146558   3.228   6.170  11.946  1.6330 -0.9885 -1.3972
 8381TIP3    H246559   3.305   6.125  12.068  2.6878  0.8862 -1.3397
 8382TIP3   OH246560   0.896   2.094   4.151  0.2505  0.0470  0.0418
 8382TIP3    H146561   0.976   2.054   4.116  0.1393 -1.7935  1.7391
 8382TIP3    H246562   0.881   2.170   4.096  1.9447 -0.8224 -1.7075
 8383TIP3   OH246563   5.414   4.520  13.222  0.2231 -0.0219 -0.0840
 8383TIP3    H146564   5.379   4.557  13.303  0.0200  0.0424 -0.1999
 8383TIP3    H246565   5.336   4.497  13.170  0.2986 -2.1734  0.6808
 8384TIP3   OH246566   6.112   4.682   6.259 -0.1916  0.0146  0.2112
 8384TIP3    H146567   6.151   4.644   6.181 -0.1504  0.0996  0.1903
 8384TIP3    H246568   6.173   4.751   6.285 -0.9762  1.0204 -0.5703
 8385TIP3   OH246569   5.578   3.955  15.796 -0.2771  0.3654  0.5192
 8385TIP3    H146570   5.498   3.907  15.817 -0.3149 -0.0315 -0.5242
 8385TIP3    H246571   5.601   3.999  15.878 -2.0757  1.2313  0.6049
 8386TIP3   OH246572   6.529   3.308   1.155 -0.0029  0.3217  0.1644
 8386TIP3    H146573   6.456   3.370   1.148 -0.7999 -0.4789  1.2540
 8386TIP3    H246574   6.520   3.252   1.078 -0.3607  0.4080  0.1412
 8387TIP3   OH246575   4.094   1.555  15.212  0.0308  0.2312 -0.3655
 8387TIP3    H146576   4.039   1.476  15.207  1.5358 -0.9045  0.5095
 8387TIP3    H246577   4.090   1.581  15.304  3.4392 -1.7342  0.4268
 8388TIP3   OH246578   2.001   4.562   2.982 -0.6684  0.0554 -0.3966
 8388TIP3    H146579   1.950   4.492   2.941  1.0062 -1.7793  0.5475
 8388TIP3    H246580   2.068   4.584   2.917 -0.7848  0.2991 -0.4319
 8389TIP3   OH246581   2.085   3.111  16.292  0.4354 -0.1320  0.3320
 8389TIP3    H146582   2.102   3.083  16.382  0.0818 -0.5745  0.2631
 8389TIP3    H246583   2.008   3.061  16.265  0.7896 -0.3194 -0.3644
 8390TIP3   OH246584   1.223   0.739   5.275 -0.4568  0.4641 -0.0596
 8390TIP3    H146585   1.163   0.665   5.272  1.1706 -1.0729  2.8060
 8390TIP3    H246586   1.295   0.713   5.217  0.3570 -0.4458  1.3455
 8391TIP3   OH246587   2.454   1.565  14.653 -0.4035 -0.1592  0.8079
 8391TIP3    H146588   2.383   1.559  14.589 -0.2801  0.9998  0.5504
 8391TIP3    H246589   2.523   1.615  14.608  1.9833 -4.1085 -0.1895
 8392TIP3   OH246590   6.365   2.476  11.963  0.2196 -0.1686  0.2564
 8392TIP3    H146591   6.309   2.539  11.917  1.2271 -0.5626 -1.5425
 8392TIP3    H246592   6.364   2.506  12.054 -0.8386  1.3441 -0.2292
 8393TIP3   OH246593   2.633   0.921  14.495 -0.3561 -0.4315  0.1953
 8393TIP3    H146594   2.716   0.911  14.448 -0.0366 -3.3228  1.2633
 8393TIP3    H246595   2.658   0.924  14.588 -1.3135  0.7496  0.4271
 8394TIP3   OH246596   4.055   3.712  14.469  0.2706 -0.4905  0.1585
 8394TIP3    H146597   4.006   3.695  14.549 -0.6241  0.6633 -0.1266
 8394TIP3    H246598   4.102   3.631  14.452  0.2256 -0.8500  1.6799
 8395TIP3   OH246599   5.393   3.742   0.513 -0.0247  0.6081  0.7944
 8395TIP3    H146600   5.467   3.688   0.541  1.9034  1.4412 -2.3701
 8395TIP3    H246601   5.327   3.680   0.484  0.4476 -0.1063  1.2371
 8396TIP3   OH246602   0.671   5.615   3.040 -0.8249  0.2525  0.5771
 8396TIP3    H146603   0.579   5.590   3.035 -0.5944 -0.3374 -1.2552
 8396TIP3    H246604   0.719   5.532   3.042 -0.2033  0.5126 -2.0411
 8397TIP3   OH246605   5.315   0.486   0.262  0.7616 -0.1859 -0.0836
 8397TIP3    H146606   5.397   0.452   0.224  0.4100  1.5354 -2.5202
 8397TIP3    H246607   5.246   0.444   0.209  0.0565 -1.2185  1.6155
 8398TIP3   OH246608   0.472   2.964  16.135 -0.5648  0.0481 -0.6330
 8398TIP3    H146609   0.538   2.904  16.170 -0.8650  0.6439  0.9848
 8398TIP3    H246610   0.523   3.036  16.097 -0.2619 -0.0122 -0.3429
 8399TIP3   OH246611   4.385   2.286   1.811  0.1743  0.0109 -0.4049
 8399TIP3    H146612   4.464   2.338   1.820  0.4189 -0.6394  1.3034
 8399TIP3    H246613   4.413   2.208   1.763  0.7399 -0.5565  0.8276
 8400TIP3   OH246614   0.639   0.474   5.251  0.0477  0.0150  0.4355
 8400TIP3    H146615   0.642   0.530   5.328 -2.2917  2.6334 -1.2515
 8400TIP3    H246616   0.719   0.493   5.203  0.6441 -0.2632  1.3255
 8401TIP3   OH246617   1.738   0.696  12.121 -0.3880  0.2661  0.1107
 8401TIP3    H146618   1.804   0.728  12.182  0.4216 -1.9747  0.4668
 8401TIP3    H246619   1.701   0.775  12.081  1.5693  1.6026  0.8809
 8402TIP3   OH246620   5.195   0.470  11.723  0.1960 -0.3501  0.1420
 8402TIP3    H146621   5.202   0.400  11.658  1.0857 -0.1565  0.0190
 8402TIP3    H246622   5.124   0.526  11.690 -0.1779 -0.9176 -0.0185
 8403TIP3   OH246623   5.581   4.482  12.606  0.2555  0.1458 -0.5902
 8403TIP3    H146624   5.501   4.525  12.635 -0.1981 -0.1272 -1.4240
 8403TIP3    H246625   5.588   4.502  12.513  0.2944 -1.1518 -0.8854
 8404TIP3   OH246626   0.021   0.752   5.766  0.1172  0.5631 -0.2408
 8404TIP3    H146627  -0.042   0.800   5.819 -1.0351  0.4891 -1.5116
 8404TIP3    H246628  -0.012   0.760   5.676  0.9399 -1.0059 -0.7042
 8405TIP3   OH246629   3.061   6.321   0.215 -0.0516  0.2474  0.0956
 8405TIP3    H146630   3.146   6.352   0.184 -0.2816  2.3109  1.4986
 8405TIP3    H246631   3.027   6.392   0.268 -1.6422 -1.4911  1.4561
 8406TIP3   OH246632   6.676   5.989  12.420 -0.4493 -0.1927  0.6025
 8406TIP3    H146633   6.698   6.064  12.365 -0.5034 -1.5990 -1.3955
 8406TIP3    H246634   6.620   5.935  12.365  1.9296 -3.1425  0.9598
 8407TIP3   OH246635   0.201   4.194   5.926 -0.3949  0.2271 -0.5127
 8407TIP3    H146636   0.225   4.282   5.898  0.8308 -0.2376 -0.9256
 8407TIP3    H246637   0.205   4.197   6.022 -0.1867  0.5751 -0.5323
 8408TIP3   OH246638   1.535   3.852   5.863 -0.0260  0.5525  0.9100
 8408TIP3    H146639   1.499   3.770   5.896 -0.1961  0.7183  1.1408
 8408TIP3    H246640   1.531   3.912   5.938  0.8830  0.5231  0.9857
 8409TIP3   OH246641   0.116   3.828  13.469 -0.1405 -0.5943  0.0239
 8409TIP3    H146642   0.127   3.738  13.500 -2.4625 -1.0843 -0.4847
 8409TIP3    H246643   0.052   3.867  13.528  0.3037  0.5292 -0.2023
 8410TIP3   OH246644   2.665   4.737   5.009  0.3852  0.1529 -0.0172
 8410TIP3    H146645   2.672   4.762   5.101  4.3040  0.5734 -0.3573
 8410TIP3    H246646   2.653   4.820   4.962 -1.7044 -0.0695  0.0753
 8411TIP3   OH246647   0.363   6.639  16.839 -0.9262  0.0502  0.2957
 8411TIP3    H146648   0.412   6.714  16.870 -0.6233  0.6117 -1.5000
 8411TIP3    H246649   0.413   6.563  16.869 -0.3367  0.5838  0.6706
 8412TIP3   OH246650   2.752   3.316  15.615 -0.4945  0.7298  0.6841
 8412TIP3    H146651   2.836   3.304  15.570  0.4482  1.9273  2.0813
 8412TIP3    H246652   2.720   3.227  15.629  1.6496  0.1577  2.1519
 8413TIP3   OH246653   1.951   0.487   1.764  0.5795 -0.3092  0.7281
 8413TIP3    H146654   1.948   0.501   1.858 -1.2958 -0.2660  0.6791
 8413TIP3    H246655   1.884   0.420   1.747  0.3891  0.2046 -0.6483
 8414TIP3   OH246656   0.476   6.576   4.172  0.1190 -0.1827 -0.8978
 8414TIP3    H146657   0.447   6.516   4.104 -0.3188  0.1963 -1.0481
 8414TIP3    H246658   0.493   6.521   4.248  0.4316 -0.5829 -1.2611
 8415TIP3   OH246659   3.887   5.265   1.042  0.4936  0.1817 -0.4490
 8415TIP3    H146660   3.845   5.316   1.111  0.0842 -0.3064 -0.3339
 8415TIP3    H246661   3.933   5.195   1.088 -1.5590 -1.4396 -0.7751
 8416TIP3   OH246662   5.099   1.617   5.371  0.4447 -0.3854 -0.6407
 8416TIP3    H146663   5.151   1.697   5.365  1.6185 -1.1662 -0.9409
 8416TIP3    H246664   5.076   1.609   5.463 -0.6044  0.8690 -0.7696
 8417TIP3   OH246665   6.272   1.768   5.220 -0.5661  0.2024 -0.1030
 8417TIP3    H146666   6.180   1.761   5.192 -1.1705  0.1978  1.8196
 8417TIP3    H246667   6.267   1.786   5.314  1.4349 -0.6161  0.1787
 8418TIP3   OH246668   0.071   3.529  13.428  0.9083  0.4016 -0.1445
 8418TIP3    H146669  -0.010   3.492  13.393  2.0009 -0.7229 -1.6019
 8418TIP3    H246670   0.055   3.540  13.521 -0.7412 -0.2898 -0.3362
 8419TIP3   OH246671   3.274   0.005   1.408  0.9210  0.2975 -0.0635
 8419TIP3    H146672   3.345   0.067   1.423  1.2867 -0.0262 -0.4504
 8419TIP3    H246673   3.203   0.059   1.373  1.1203  0.5523 -0.0757
 8420TIP3   OH246674   4.934   5.099  15.342 -0.5086  0.1064 -0.1673
 8420TIP3    H146675   4.990   5.083  15.418 -0.7511 -0.4529 -0.1030
 8420TIP3    H246676   4.850   5.127  15.380 -0.5282  0.1458 -0.2401
 8421TIP3   OH246677   4.723   3.479  12.493  0.8204 -0.6776 -0.3924
 8421TIP3    H146678   4.632   3.470  12.464  0.5357  0.4542  0.1012
 8421TIP3    H246679   4.723   3.444  12.582  0.3961  1.2535  0.3817
 8422TIP3   OH246680   6.367   2.019  13.228 -0.7569  0.0436  0.2241
 8422TIP3    H146681   6.423   1.965  13.173 -0.7688  0.4001 -0.1361
 8422TIP3    H246682   6.281   2.016  13.187 -1.0622 -0.6782  0.8955
 8423TIP3   OH246683   4.404   5.430  15.818  0.6027  0.0407  0.6733
 8423TIP3    H146684   4.351   5.360  15.780  2.8397 -1.1332 -0.4110
 8423TIP3    H246685   4.373   5.510  15.775  1.0627 -0.8945 -1.4749
 8424TIP3   OH246686   4.855   5.245   1.497 -0.0762 -0.1454 -0.2559
 8424TIP3    H146687   4.864   5.295   1.578  2.5766 -0.0417 -0.5764
 8424TIP3    H246688   4.837   5.310   1.429 -2.1623 -0.2208  0.1823
 8425TIP3   OH246689   2.672   1.139  17.099 -0.1693  0.2045  0.0552
 8425TIP3    H146690   2.625   1.222  17.110 -0.7561 -0.2562  1.0605
 8425TIP3    H246691   2.670   1.123  17.004 -0.7374  0.9464 -0.0612
 8426TIP3   OH246692   0.754   6.488   3.592 -0.1157 -0.1616  0.2834
 8426TIP3    H146693   0.707   6.534   3.661  0.4685 -0.0528  0.6177
 8426TIP3    H246694   0.688   6.467   3.527 -0.2426  1.8814 -0.2780
 8427TIP3   OH246695   2.963   1.116   2.976 -0.1021  0.2890  0.1821
 8427TIP3    H146696   3.020   1.117   2.899  2.1421 -3.0314  1.6797
 8427TIP3    H246697   2.912   1.036   2.967 -0.8803  0.6352  1.3868
 8428TIP3   OH246698   1.661   0.975  15.052 -0.3122  0.4689  0.3302
 8428TIP3    H146699   1.755   0.977  15.030 -0.0407  2.9295  1.6339
 8428TIP3    H246700   1.656   0.926  15.133 -0.0953  0.7544  0.5161
 8429TIP3   OH246701   1.717   5.445   2.604  0.2931  0.1860  0.3606
 8429TIP3    H146702   1.626   5.462   2.627  0.6466  1.4151  0.9102
 8429TIP3    H246703   1.748   5.384   2.671  0.2583  0.8466  0.9896
 8430TIP3   OH246704   3.004   0.880   1.890  0.6342 -0.5047 -0.1721
 8430TIP3    H146705   2.929   0.886   1.949  2.6406 -0.6343  2.5409
 8430TIP3    H246706   3.008   0.787   1.867 -1.3522 -0.1250 -2.2217
 8431TIP3   OH246707   4.660   0.054   4.495 -0.0602 -0.0248 -0.1105
 8431TIP3    H146708   4.665  -0.028   4.545  1.2048 -0.5860 -1.1107
 8431TIP3    H246709   4.744   0.097   4.511  0.5217 -0.3885 -2.0054
 8432TIP3   OH246710   3.713   4.110   4.023 -0.4464 -0.0848  0.2934
 8432TIP3    H146711   3.654   4.089   4.095 -1.0577 -0.6398 -0.3612
 8432TIP3    H246712   3.707   4.205   4.013 -2.3566 -0.2806 -0.7096
 8433TIP3   OH246713   5.399   3.219   1.126 -0.1001 -0.0401 -0.2549
 8433TIP3    H146714   5.313   3.191   1.158 -1.0287  1.7281 -1.1259
 8433TIP3    H246715   5.393   3.210   1.031  0.3554  0.9915 -0.3796
 8434TIP3   OH246716   2.281   0.994  12.346 -0.3834 -0.1216  0.5218
 8434TIP3    H146717   2.316   0.922  12.293 -1.3991 -1.0911  1.1427
 8434TIP3    H246718   2.242   0.951  12.423 -1.4365  1.0402  0.6650
 8435TIP3   OH246719   4.754   1.508  12.715  0.0518 -0.1221  0.1700
 8435TIP3    H146720   4.670   1.549  12.736  0.7436  0.6481  1.5131
 8435TIP3    H246721   4.809   1.526  12.791  0.3655 -3.6366  0.8456
 8436TIP3   OH246722   1.637   4.167  12.255  0.4615 -0.0479  0.9667
 8436TIP3    H146723   1.573   4.098  12.239  1.1310 -0.2787 -0.8934
 8436TIP3    H246724   1.664   4.155  12.346 -1.8035 -0.2029  1.6485
 8437TIP3   OH246725   5.472   4.846   3.573  0.1061 -0.2555 -0.7591
 8437TIP3    H146726   5.490   4.837   3.666 -0.1308 -0.5645 -0.7436
 8437TIP3    H246727   5.471   4.756   3.540 -0.3372 -0.1773 -0.9609
 8438TIP3   OH246728   4.790   4.573   5.503 -0.3297 -0.0951  0.3721
 8438TIP3    H146729   4.712   4.616   5.538 -0.5643 -1.2998  1.3769
 8438TIP3    H246730   4.832   4.639   5.448 -0.7929  1.3293  1.7050
 8439TIP3   OH246731   1.451   2.604  13.748  0.1742 -0.2769 -0.0918
 8439TIP3    H146732   1.375   2.546  13.755  0.5648 -0.7223  0.4260
 8439TIP3    H246733   1.418   2.680  13.700 -1.0675  0.3243  1.6792
 8440TIP3   OH246734   4.389   5.054  14.474 -0.1394  0.5885  0.0503
 8440TIP3    H146735   4.343   5.084  14.395  2.5012  1.9474 -1.0349
 8440TIP3    H246736   4.418   5.135  14.517  3.5099 -0.2317 -0.7220
 8441TIP3   OH246737   2.402   4.101   3.148 -0.2256 -0.8739 -0.0555
 8441TIP3    H146738   2.414   4.009   3.169 -0.3493 -2.1576 -4.8969
 8441TIP3    H246739   2.484   4.127   3.106  0.4170  1.7346  2.6859
 8442TIP3   OH246740   1.515   0.087  12.505 -0.4207 -0.0955  0.3636
 8442TIP3    H146741   1.589   0.063  12.450  1.5350  1.3178  2.2869
 8442TIP3    H246742   1.480   0.167  12.465 -0.9948 -0.8311 -0.6120
 8443TIP3   OH246743   0.753   0.832  10.996  0.8764  0.0152  0.0522
 8443TIP3    H146744   0.776   0.747  11.034  0.1613 -0.6242 -0.9287
 8443TIP3    H246745   0.826   0.853  10.937  0.9099 -0.0509  0.0699
 8444TIP3   OH246746   0.861   5.075   5.146 -0.5003 -0.7750  0.0248
 8444TIP3    H146747   0.870   5.155   5.095 -0.1658  0.0679  1.3810
 8444TIP3    H246748   0.875   5.005   5.083  0.4533  0.2549 -0.9296
 8445TIP3   OH246749   5.564   6.177   3.751 -0.3416 -0.2707  0.2010
 8445TIP3    H146750   5.490   6.190   3.810 -2.6659 -1.9596 -2.2338
 8445TIP3    H246751   5.570   6.082   3.740  0.0444  0.0182 -2.2684
 8446TIP3   OH246752   2.351   1.625   2.897 -0.6194  0.5863  0.2606
 8446TIP3    H146753   2.340   1.617   2.992  1.0942  1.2132  0.5237
 8446TIP3    H246754   2.266   1.656   2.866 -1.5289 -0.6508  1.4543
 8447TIP3   OH246755   5.760   2.067  12.105 -0.2639 -0.5451  0.1213
 8447TIP3    H146756   5.687   2.034  12.157 -0.2055 -0.3876  0.3062
 8447TIP3    H246757   5.836   2.019  12.136 -0.3289 -0.8893 -0.2485
 8448TIP3   OH246758   6.096   2.953   0.579  0.0985 -0.0106  0.0948
 8448TIP3    H146759   6.057   3.040   0.572 -2.2796 -0.8450  2.2098
 8448TIP3    H246760   6.028   2.893   0.549  0.1671 -1.4240  2.6068
 8449TIP3   OH246761   1.774   4.305  16.535 -0.4035 -0.0203 -0.3107
 8449TIP3    H146762   1.850   4.363  16.529 -1.0955  0.8149 -1.1763
 8449TIP3    H246763   1.768   4.265  16.448 -0.4490 -0.7424  0.0189
 8450TIP3   OH246764   5.330   2.741   6.083 -0.3100  0.6578  0.1381
 8450TIP3    H146765   5.344   2.691   6.002  2.2402 -0.5490  1.2820
 8450TIP3    H246766   5.266   2.689   6.132 -0.1116  0.1884 -0.0904
 8451TIP3   OH246767   4.596   3.494  16.040  0.2412 -0.6777 -0.1643
 8451TIP3    H146768   4.654   3.418  16.047  0.8925 -0.1851 -0.0614
 8451TIP3    H246769   4.596   3.516  15.947 -1.3657 -1.8795 -0.4483
 8452TIP3   OH246770   6.022   5.411  15.091  0.1972  0.3003 -0.6574
 8452TIP3    H146771   6.076   5.440  15.164  0.5318  0.1796 -0.8564
 8452TIP3    H246772   5.933   5.432  15.117  0.3589  0.6857 -0.4144
 8453TIP3   OH246773   0.592   1.930  14.453 -0.3065  0.4207  0.1401
 8453TIP3    H146774   0.504   1.911  14.421  0.3148 -1.5047 -0.5207
 8453TIP3    H246775   0.638   1.966  14.377 -0.0842 -0.0345  0.0576
 8454TIP3   OH246776   2.755   3.555  16.781  0.2556 -0.0256  0.6281
 8454TIP3    H146777   2.714   3.474  16.752  0.3626 -0.3171  1.2858
 8454TIP3    H246778   2.779   3.600  16.700 -0.9491 -0.0520  0.2399
 8455TIP3   OH246779   0.244   2.651   2.741  0.2160 -0.6231 -0.1954
 8455TIP3    H146780   0.283   2.586   2.800 -2.4430 -3.6608 -1.6748
 8455TIP3    H246781   0.287   2.637   2.657  0.7525  0.6274 -0.1396
 8456TIP3   OH246782   4.474   2.575   3.073  0.1732  0.4961 -0.0944
 8456TIP3    H146783   4.455   2.666   3.097  0.5639  0.5890 -0.1364
 8456TIP3    H246784   4.390   2.530   3.085 -0.0911  0.9135 -0.3287
 8457TIP3   OH246785   3.337   4.598   3.490 -0.5058  0.4254  0.4921
 8457TIP3    H146786   3.419   4.620   3.447 -0.9565  0.6012 -0.2935
 8457TIP3    H246787   3.276   4.666   3.462 -1.1691 -0.2349  0.3034
 8458TIP3   OH246788   0.612   1.438  16.568 -0.0335 -0.1333  0.0730
 8458TIP3    H146789   0.553   1.391  16.509 -0.2412 -0.0924  0.2474
 8458TIP3    H246790   0.688   1.380  16.577  0.7683  0.6076 -1.5908
 8459TIP3   OH246791   3.201   3.168   2.583  0.0416  0.0549  0.1373
 8459TIP3    H146792   3.219   3.083   2.624 -1.4469  0.4624  1.6699
 8459TIP3    H246793   3.113   3.158   2.547 -0.6069  1.3580  1.3669
 8460TIP3   OH246794   6.205   1.899  10.712  0.2661  0.2038  0.6358
 8460TIP3    H146795   6.153   1.823  10.686 -2.1093  1.4766  1.5964
 8460TIP3    H246796   6.185   1.966  10.647  1.3410  0.4553  0.5466
 8461TIP3   OH246797   4.149   1.720  13.383  0.5080  0.0174  0.5058
 8461TIP3    H146798   4.153   1.696  13.290  0.6815 -0.0464  0.5293
 8461TIP3    H246799   4.238   1.750  13.403  0.3931  0.3171  0.5731
 8462TIP3   OH246800   2.898   6.207  16.775  0.6813  0.2100  0.1796
 8462TIP3    H146801   2.954   6.178  16.703  1.5305  2.3545 -0.0687
 8462TIP3    H246802   2.892   6.131  16.833  0.4400 -1.3737 -1.8604
 8463TIP3   OH246803   6.393   1.152  15.518  0.9702  0.3305 -0.3273
 8463TIP3    H146804   6.377   1.201  15.598  1.5255 -2.0525  1.2972
 8463TIP3    H246805   6.306   1.122  15.491  0.8883  0.3728 -0.1101
 8464TIP3   OH246806   0.522   4.285  15.121 -0.2932  0.0525  0.0255
 8464TIP3    H146807   0.452   4.220  15.129 -0.6511  0.2961 -1.0191
 8464TIP3    H246808   0.576   4.272  15.199 -0.9647 -0.7784  0.3613
 8465TIP3   OH246809   3.531   3.469  14.327 -0.4341 -0.1682  0.4516
 8465TIP3    H146810   3.513   3.404  14.395 -1.7854 -0.0133  0.2483
 8465TIP3    H246811   3.583   3.536  14.372  0.9800 -1.3813  0.6527
 8466TIP3   OH246812   1.318   2.988   5.378 -0.1744 -0.5061  0.2389
 8466TIP3    H146813   1.354   3.014   5.463  0.7345  0.6376 -0.4749
 8466TIP3    H246814   1.234   2.947   5.399  0.1218 -0.4113  1.6970
 8467TIP3   OH246815   5.593   5.017   4.402  0.2751  0.1383 -0.2312
 8467TIP3    H146816   5.613   5.052   4.315  0.7678  1.6968  0.4962
 8467TIP3    H246817   5.588   5.094   4.458  0.5322 -0.9077  1.2477
 8468TIP3   OH246818   3.736   5.479   0.809 -0.1588 -0.7803  0.3755
 8468TIP3    H146819   3.653   5.456   0.767 -1.2835  1.1534  1.4838
 8468TIP3    H246820   3.755   5.406   0.867 -2.3926 -0.1520  1.9753
 8469TIP3   OH246821   3.026   5.638   5.586 -0.6196 -0.2742 -0.6035
 8469TIP3    H146822   2.986   5.723   5.602  0.9808  0.5783 -0.9651
 8469TIP3    H246823   2.963   5.591   5.532 -0.4967  1.6015 -2.4364
 8470TIP3   OH246824   2.043   2.525  13.371  0.3893  0.1678  0.5907
 8470TIP3    H146825   2.072   2.616  13.374 -1.1236  0.6332  1.5575
 8470TIP3    H246826   2.121   2.474  13.392  1.2374  1.2353  0.0622
 8471TIP3   OH246827   3.900   1.743   5.404  0.3980  0.3546 -0.1934
 8471TIP3    H146828   3.972   1.681   5.388  0.8608  1.0209 -0.7221
 8471TIP3    H246829   3.824   1.688   5.419  1.1609 -0.3864  1.0870
 8472TIP3   OH246830   6.058   1.907  16.789 -0.1657  0.3317  0.3189
 8472TIP3    H146831   6.125   1.898  16.857 -1.1871 -3.1351  0.9359
 8472TIP3    H246832   6.097   1.870  16.710 -0.8656 -0.4883  0.3479
 8473TIP3   OH246833   0.749   2.358   6.361  0.0759  0.5120  0.3086
 8473TIP3    H146834   0.666   2.362   6.313  0.5357  0.2738 -0.5081
 8473TIP3    H246835   0.811   2.404   6.306  1.3695 -2.5136 -0.9005
 8474TIP3   OH246836   5.686   6.010  11.217 -0.4072  0.1483 -0.4892
 8474TIP3    H146837   5.712   6.069  11.146  0.6379  0.7947  0.4001
 8474TIP3    H246838   5.595   5.988  11.198 -0.7724  1.9354 -0.9206
 8475TIP3   OH246839   5.737   2.023   6.030 -0.1037  0.3269  0.1006
 8475TIP3    H146840   5.716   1.939   6.072  0.0330  0.2343 -0.0160
 8475TIP3    H246841   5.657   2.075   6.038 -0.6800 -0.3657 -1.1894
 8476TIP3   OH246842   2.164   0.632  17.238 -0.1711 -0.0291 -0.0147
 8476TIP3    H146843   2.153   0.578  17.160  0.5075  1.4499 -1.1501
 8476TIP3    H246844   2.103   0.705  17.226 -0.5469 -0.1315  1.1618
 8477TIP3   OH246845   2.926   6.519   1.782  0.2004  0.3345  0.3537
 8477TIP3    H146846   2.984   6.450   1.814 -1.0033 -0.9252 -0.1674
 8477TIP3    H246847   2.982   6.572   1.724  1.4106  0.4708  1.6150
 8478TIP3   OH246848   0.293   4.476   1.444  0.4251 -0.0593 -0.0829
 8478TIP3    H146849   0.262   4.565   1.432  1.6049  0.2011 -1.2636
 8478TIP3    H246850   0.361   4.464   1.378  1.2378 -1.3838  0.9473
 8479TIP3   OH246851   6.677   4.761   2.910 -0.6729 -0.8164  0.3679
 8479TIP3    H146852   6.737   4.832   2.888 -1.8050 -0.3039 -1.1634
 8479TIP3    H246853   6.661   4.771   3.003 -1.9892  1.8893 -0.1000
 8480TIP3   OH246854   4.994   5.216  14.320  0.4783  1.2329 -0.1690
 8480TIP3    H146855   5.077   5.170  14.330  0.3389  0.8558 -0.6882
 8480TIP3    H246856   4.983   5.264  14.402  0.5621  0.2299  0.4470
 8481TIP3   OH246857   3.839   1.645  13.299 -0.3289 -0.0735 -0.3370
 8481TIP3    H146858   3.858   1.634  13.206  2.8103 -1.3036  0.3917
 8481TIP3    H246859   3.834   1.740  13.312  0.3552  0.1336 -1.5422
 8482TIP3   OH246860   0.625   5.409  11.692  0.3797  0.1076  0.1947
 8482TIP3    H146861   0.673   5.453  11.763  0.1195  0.8649 -0.0985
 8482TIP3    H246862   0.654   5.453  11.613  0.8284 -0.8817 -0.2009
 8483TIP3   OH246863   0.798   0.579  14.201  0.4100 -0.1246 -0.2463
 8483TIP3    H146864   0.735   0.514  14.234 -0.7055 -0.0841 -2.2680
 8483TIP3    H246865   0.755   0.663  14.215  0.4770 -0.0274 -0.6215
 8484TIP3   OH246866   1.169   1.801   0.800 -0.0146 -0.2937  0.1606
 8484TIP3    H146867   1.155   1.890   0.769  1.7791  0.2252  0.7481
 8484TIP3    H246868   1.086   1.757   0.786 -0.3367  0.9219 -1.9966
 8485TIP3   OH246869   5.873   4.717   1.179  0.2849 -0.2908 -0.2858
 8485TIP3    H146870   5.963   4.742   1.198  0.9299 -1.7677 -1.2828
 8485TIP3    H246871   5.865   4.628   1.215 -1.2442  0.4242  1.1738
 8486TIP3   OH246872   0.033   4.320   1.512 -0.2574 -0.7899  0.0663
 8486TIP3    H146873   0.009   4.353   1.425 -1.8279 -3.3402 -0.4878
 8486TIP3    H246874   0.129   4.326   1.513 -0.3777  2.5804 -0.4566
 8487TIP3   OH246875   2.561   5.739   1.228 -0.4285  0.2767  0.2070
 8487TIP3    H146876   2.565   5.690   1.146 -1.5090  0.2800  0.1483
 8487TIP3    H246877   2.615   5.688   1.289  0.0642  0.0765 -0.3936
 8488TIP3   OH246878   0.869   3.554  15.426  0.4178 -0.1886 -0.2418
 8488TIP3    H146879   0.834   3.504  15.352 -0.5412  2.4887 -1.6420
 8488TIP3    H246880   0.963   3.560  15.408  0.1066  0.9216 -1.5518
 8489TIP3   OH246881   4.561   4.040  15.432  0.0106 -0.1135 -0.0557
 8489TIP3    H146882   4.534   4.130  15.413  0.3575  0.2332  1.0773
 8489TIP3    H246883   4.548   4.030  15.526  0.1620 -1.1902 -0.1433
 8490TIP3   OH246884   2.117   3.730  15.166 -0.1129  0.5276 -0.0873
 8490TIP3    H146885   2.046   3.746  15.104  0.0599  0.2093 -0.3699
 8490TIP3    H246886   2.108   3.638  15.191  0.8608  0.1850 -0.9666
 8491TIP3   OH246887   1.277   1.004  11.366 -0.2551 -0.2520 -0.1784
 8491TIP3    H146888   1.299   0.984  11.275  0.0098  0.4852 -0.2772
 8491TIP3    H246889   1.187   1.038  11.361 -0.2824 -0.3206 -0.1507
 8492TIP3   OH246890   2.674   1.292  11.694  0.2559  0.4666 -0.3744
 8492TIP3    H146891   2.630   1.207  11.689 -1.6475  1.2522  2.1413
 8492TIP3    H246892   2.707   1.307  11.605 -0.1626 -2.4663 -1.0748
 8493TIP3   OH246893   0.098   3.913  12.861 -0.0210  0.0593  0.3022
 8493TIP3    H146894   0.045   3.984  12.826  0.1060  0.7643  1.5391
 8493TIP3    H246895   0.189   3.940  12.844  0.0311  0.2544  0.8876
 8494TIP3   OH246896   1.329   2.742   3.468  0.2113  0.2516  0.4010
 8494TIP3    H146897   1.363   2.803   3.403  0.3157 -1.5824 -1.3047
 8494TIP3    H246898   1.234   2.751   3.462  0.2402  0.7897  0.6976
 8495TIP3   OH246899   1.920   0.126   3.213 -0.2678 -0.2764  0.3337
 8495TIP3    H146900   1.831   0.141   3.182 -1.0055 -1.0180  2.0158
 8495TIP3    H246901   1.959   0.213   3.217 -0.8856  0.0400 -0.5391
 8496TIP3   OH246902   0.009   3.866   3.597  0.8567 -0.1679 -0.0245
 8496TIP3    H146903   0.013   3.931   3.526 -1.1115  0.8325  0.7456
 8496TIP3    H246904  -0.084   3.846   3.606  1.1495 -0.8109  1.8152
 8497TIP3   OH246905   1.310   0.963   3.999  0.2638 -0.2577 -0.1653
 8497TIP3    H146906   1.303   0.937   4.091  0.6350  1.2459  0.2926
 8497TIP3    H246907   1.248   0.905   3.953  0.3726 -1.2909  0.9586
 8498TIP3   OH246908   4.703   5.185  15.455  0.1578 -0.0577 -0.3532
 8498TIP3    H146909   4.647   5.159  15.527  1.4021  0.3794  0.7844
 8498TIP3    H246910   4.643   5.221  15.390 -1.0306 -1.0133  0.1881
 8499TIP3   OH246911   2.968   5.366   3.179  0.3715 -0.1230  0.2200
 8499TIP3    H146912   2.943   5.416   3.257 -1.2514  0.2335 -0.5091
 8499TIP3    H246913   2.994   5.433   3.116 -1.3205 -0.1906 -0.5859
 8500TIP3   OH246914   4.531   2.239   5.239  0.1091  0.6557  0.1283
 8500TIP3    H146915   4.479   2.270   5.313  0.0221  0.8097  0.0040
 8500TIP3    H246916   4.466   2.223   5.170  0.2170  0.7664  0.0009
 8501TIP3   OH246917   4.526   1.925  11.938 -0.4622 -0.1662  0.1436
 8501TIP3    H146918   4.538   1.951  11.846 -1.6156  0.4801  0.1631
 8501TIP3    H246919   4.536   2.007  11.987  1.1730 -0.6764  0.7044
 8502TIP3   OH246920   2.498   4.829   0.805 -0.0928 -0.1543  0.3176
 8502TIP3    H146921   2.466   4.854   0.892 -2.3751 -0.9285 -0.2591
 8502TIP3    H246922   2.523   4.912   0.765 -1.4020  0.5089  0.8242
 8503TIP3   OH246923   1.388   2.531  15.903 -0.0261  0.0766  0.1596
 8503TIP3    H146924   1.345   2.548  15.986 -2.2357 -0.2979 -0.8577
 8503TIP3    H246925   1.437   2.450  15.917 -1.9479 -1.0503  0.5787
 8504TIP3   OH246926   2.790   1.875   3.300 -0.3120 -0.6870  0.2739
 8504TIP3    H146927   2.795   1.843   3.211 -1.2966 -3.1714  1.0800
 8504TIP3    H246928   2.766   1.968   3.291 -0.3860 -0.9131 -2.0083
 8505TIP3   OH246929   6.528   2.254   5.442  0.4708  0.0440  0.1009
 8505TIP3    H146930   6.469   2.260   5.366 -0.1477 -1.7035  0.4247
 8505TIP3    H246931   6.560   2.343   5.453 -1.2356  0.8142 -0.8017
 8506TIP3   OH246932   5.526   4.883   1.900  0.9568  0.0330 -0.2917
 8506TIP3    H146933   5.568   4.805   1.936 -0.7266 -1.6871 -1.9291
 8506TIP3    H246934   5.504   4.935   1.977  0.8287 -1.7837  0.9444
 8507TIP3   OH246935   1.726   5.535   2.145 -0.4449  0.5368 -0.3060
 8507TIP3    H146936   1.715   5.533   2.240  0.5748  1.6835 -0.1420
 8507TIP3    H246937   1.646   5.577   2.113 -1.1861 -0.6620 -0.0329
 8508TIP3   OH246938   3.860   1.054  11.528  0.6891  0.2627 -0.0194
 8508TIP3    H146939   3.949   1.024  11.548  0.6831  0.1764 -0.1195
 8508TIP3    H246940   3.813   0.974  11.506 -0.1544 -0.0417  2.7227
 8509TIP3   OH246941   1.528   3.010  13.297 -0.3071  0.5741 -0.3630
 8509TIP3    H146942   1.442   3.001  13.337  0.1246 -0.6412  0.3203
 8509TIP3    H246943   1.572   3.077  13.349 -0.9876  1.5063 -0.9788
 8510TIP3   OH246944   0.381   4.856  14.884  0.7316  0.4412  0.2277
 8510TIP3    H146945   0.321   4.921  14.920 -0.5501 -1.1546  1.0891
 8510TIP3    H246946   0.356   4.774  14.927  2.4750 -0.5810 -0.6136
 8511TIP3   OH246947   0.040   1.867   0.163  0.5278 -0.6620  0.1587
 8511TIP3    H146948   0.118   1.821   0.192  0.0229 -0.6565  1.5803
 8511TIP3    H246949   0.054   1.958   0.189  0.5510 -0.4260 -0.6427
 8512TIP3   OH246950   0.446   4.777  12.000 -0.0901 -0.5878  0.2399
 8512TIP3    H146951   0.455   4.815  11.913 -0.1161 -0.8482  0.1222
 8512TIP3    H246952   0.397   4.843  12.050  0.9496  0.0709  0.3959
 8513TIP3   OH246953   0.284   0.260  15.087 -0.3751 -0.2015  0.1072
 8513TIP3    H146954   0.291   0.207  15.008 -0.0523 -0.1488  0.0995
 8513TIP3    H246955   0.191   0.281  15.094 -0.2784  0.5545 -0.7532
 8514TIP3   OH246956   3.553   4.855   4.129  0.2579 -0.3347  0.1067
 8514TIP3    H146957   3.569   4.930   4.186  0.4768  0.7741 -1.4015
 8514TIP3    H246958   3.588   4.881   4.044 -0.4365 -1.8090 -0.6500
 8515TIP3   OH246959   0.399   6.452  14.337  0.5351 -0.4337  0.0475
 8515TIP3    H146960   0.344   6.389  14.291  0.0016 -0.0673  0.1726
 8515TIP3    H246961   0.354   6.467  14.420  0.3245  0.5679 -0.2328
 8516TIP3   OH246962   3.246   5.492   5.548  0.2548  0.6305 -0.7685
 8516TIP3    H146963   3.317   5.529   5.600  3.3668  0.2908 -4.5222
 8516TIP3    H246964   3.187   5.565   5.531 -0.2671  0.9661  2.2177
 8517TIP3   OH246965   2.757   1.876  12.998  0.2609  0.0562  0.0866
 8517TIP3    H146966   2.672   1.853  12.961 -0.7619  4.2403 -0.4703
 8517TIP3    H246967   2.739   1.896  13.090  1.3050 -2.3474  0.8455
 8518TIP3   OH246968   5.088   6.343  11.307  0.1354 -0.4350 -0.4334
 8518TIP3    H146969   5.038   6.325  11.387 -0.4555 -0.7797 -0.8713
 8518TIP3    H246970   5.023   6.335  11.236  0.2465  1.6619 -0.7996
 8519TIP3   OH246971   4.315   6.098  15.861  0.2924 -0.3462 -0.3898
 8519TIP3    H146972   4.280   6.183  15.835 -0.8279  0.0018  2.0466
 8519TIP3    H246973   4.341   6.056  15.779  1.4330  2.5757 -1.5814
 8520TIP3   OH246974   1.965   4.258   3.490 -0.3403 -0.2822 -0.1590
 8520TIP3    H146975   2.021   4.328   3.456  0.1035 -0.5037  0.1141
 8520TIP3    H246976   1.970   4.189   3.424  0.4134 -0.6572  0.2843
 8521TIP3   OH246977   3.968   3.116   3.088 -0.0697  0.4830 -0.2360
 8521TIP3    H146978   3.880   3.127   3.122 -0.2333 -1.1348 -0.0905
 8521TIP3    H246979   3.998   3.204   3.069 -2.5834  0.8991 -2.5348
 8522TIP3   OH246980   5.447   4.081  14.629 -0.3546 -0.2811  0.0846
 8522TIP3    H146981   5.428   4.015  14.562 -0.6429  0.2593 -0.3746
 8522TIP3    H246982   5.377   4.071  14.693  1.1294 -2.2767  1.4570
 8523TIP3   OH246983   4.388   1.691   6.014 -0.1107  0.2635  0.0908
 8523TIP3    H146984   4.407   1.785   6.014 -2.0087  0.6563  0.1737
 8523TIP3    H246985   4.347   1.675   6.099 -2.2623 -0.1071 -0.9881
 8524TIP3   OH246986   0.403   5.738   0.087 -0.2117  0.3136 -0.1792
 8524TIP3    H146987   0.384   5.645   0.078 -0.3223  0.6113 -3.9027
 8524TIP3    H246988   0.497   5.743   0.099 -0.0064 -0.2250 -1.5101
 8525TIP3   OH246989   1.706   0.290   3.459 -0.2778  0.3711  0.5323
 8525TIP3    H146990   1.719   0.310   3.366 -1.4078  0.3664  0.3546
 8525TIP3    H246991   1.728   0.198   3.467  1.3212  0.7531  0.5852
 8526TIP3   OH246992   0.955   0.152  14.741  0.0692 -0.1754 -0.4002
 8526TIP3    H146993   1.005   0.123  14.665  0.2403 -2.3410  0.5056
 8526TIP3    H246994   1.020   0.191  14.799  0.7090 -2.6823  0.6297
 8527TIP3   OH246995   4.441   5.533   3.658 -0.4717  0.5333  0.1083
 8527TIP3    H146996   4.510   5.534   3.725 -1.5389  1.7218  1.2082
 8527TIP3    H246997   4.427   5.625   3.636 -1.3893  0.2639 -0.4508
 8528TIP3   OH246998   2.862   0.849  16.243  0.1897  0.6994 -0.2765
 8528TIP3    H146999   2.800   0.910  16.202 -1.0065 -1.1512 -1.3141
 8528TIP3    H247000   2.823   0.828  16.328 -0.5789 -0.3672 -0.8769
 8529TIP3   OH247001   6.617   0.539   1.890 -0.1681 -0.0161 -0.1746
 8529TIP3    H147002   6.701   0.494   1.899 -1.4328 -2.1097  1.8232
 8529TIP3    H247003   6.625   0.616   1.948  0.4665 -0.0424 -0.2238
 8530TIP3   OH247004   0.198   1.485  15.957  0.5912 -0.3455  0.4821
 8530TIP3    H147005   0.162   1.480  15.868 -1.4643  0.6800  1.2178
 8530TIP3    H247006   0.219   1.395  15.979 -0.7374 -0.8720 -0.3224
 8531TIP3   OH247007   0.990   6.590  10.884 -0.1041  0.1179  0.0907
 8531TIP3    H147008   1.065   6.632  10.927  1.1664 -1.4093 -0.6182
 8531TIP3    H247009   1.007   6.599  10.791 -1.3081  0.6285 -0.0916
 8532TIP3   OH247010   4.374   5.961  15.255 -0.5828  0.2230 -0.4485
 8532TIP3    H147011   4.348   5.919  15.173 -0.6174  2.2553 -1.5088
 8532TIP3    H247012   4.469   5.949  15.259 -0.8003 -1.4631  0.1528
 8533TIP3   OH247013   3.763   0.894  12.674 -0.2052 -0.4399 -0.7711
 8533TIP3    H147014   3.698   0.964  12.681  1.5813  1.0783  1.8697
 8533TIP3    H247015   3.802   0.906  12.588  0.6249  2.4340 -0.0657
 8534TIP3   OH247016   4.818   1.733  13.492  0.4635  0.0896 -0.0891
 8534TIP3    H147017   4.772   1.798  13.438  3.4404  0.8467 -1.8307
 8534TIP3    H247018   4.847   1.782  13.569 -1.1437 -0.2657  0.7574
 8535TIP3   OH247019   2.889   5.811   1.415  0.1638  0.1500  0.2149
 8535TIP3    H147020   2.810   5.766   1.444  0.2134  0.2892  0.5717
 8535TIP3    H247021   2.941   5.743   1.373 -0.5381  0.2424 -0.8286
 8536TIP3   OH247022   2.950   3.533   5.963 -0.0477  0.4766 -0.1173
 8536TIP3    H147023   2.928   3.539   6.056 -0.3124  0.2187 -0.1643
 8536TIP3    H247024   2.866   3.515   5.919  0.2235 -0.3130 -0.3181
 8537TIP3   OH247025   1.259   1.815  13.659  0.1215 -0.3898 -0.2208
 8537TIP3    H147026   1.341   1.818  13.708 -0.5411  1.7354  0.8137
 8537TIP3    H247027   1.286   1.805  13.568  1.5174 -0.0741  0.1495
 8538TIP3   OH247028   4.221   4.236  14.243  0.1338 -0.2250  0.1262
 8538TIP3    H147029   4.201   4.276  14.158  1.7375  0.5613  0.0976
 8538TIP3    H247030   4.139   4.196  14.271  0.1080 -2.2857 -2.7485
 8539TIP3   OH247031   6.372   5.154   6.590 -0.4849 -0.5969 -0.2613
 8539TIP3    H147032   6.384   5.113   6.676  1.2130 -0.6836 -0.5170
 8539TIP3    H247033   6.299   5.106   6.551 -1.1006 -0.7377  1.0117
 8540TIP3   OH247034   2.291   2.964   4.078  0.2504  0.3253 -0.3958
 8540TIP3    H147035   2.330   2.962   3.991 -1.9377 -0.2042 -1.3890
 8540TIP3    H247036   2.287   2.872   4.104  1.8151  0.5443  0.7151
 8541TIP3   OH247037   6.671   4.229   4.321 -0.4465  0.0786  0.5303
 8541TIP3    H147038   6.749   4.200   4.368  0.8298  2.9800  0.3230
 8541TIP3    H247039   6.702   4.247   4.232 -1.4037  0.9773  0.3688
 8542TIP3   OH247040   3.824   2.129  15.888 -0.1128 -0.5260 -0.4438
 8542TIP3    H147041   3.750   2.132  15.950  0.1741  1.0969 -0.1414
 8542TIP3    H247042   3.850   2.221  15.878  1.6516 -1.0522 -0.8241
 8543TIP3   OH247043   1.545   1.077  13.659 -0.3968 -0.1054  0.1145
 8543TIP3    H147044   1.632   1.038  13.658 -0.9481 -1.3845  0.8348
 8543TIP3    H247045   1.557   1.164  13.622  0.8907 -0.8818 -1.3525
 8544TIP3   OH247046   3.583   0.446  11.188 -0.0349  0.1156  0.1672
 8544TIP3    H147047   3.553   0.434  11.278  0.7280 -3.4959  0.0293
 8544TIP3    H247048   3.502   0.456  11.138 -0.5383  0.6002  1.0684
 8545TIP3   OH247049   2.194   1.320  11.672 -0.0842  0.1732 -0.1305
 8545TIP3    H147050   2.272   1.341  11.622  0.0346 -0.2446 -0.1190
 8545TIP3    H247051   2.183   1.394  11.732  0.8453 -0.2182  0.5256
 8546TIP3   OH247052   2.707   2.329   3.594 -0.4042 -0.3564 -0.3414
 8546TIP3    H147053   2.634   2.390   3.589 -0.9571 -1.1051 -1.7389
 8546TIP3    H247054   2.671   2.253   3.640  0.0948  0.0860  0.8045
 8547TIP3   OH247055   0.185   5.243  16.413 -0.3738 -0.1524  0.3690
 8547TIP3    H147056   0.206   5.151  16.396 -0.0044 -0.4018  2.0879
 8547TIP3    H247057   0.118   5.265  16.349  0.4473 -1.2512 -0.8941
 8548TIP3   OH247058   6.141   2.272   2.426 -0.4407  1.0794 -0.3367
 8548TIP3    H147059   6.186   2.299   2.346 -0.6273  0.6551 -0.5831
 8548TIP3    H247060   6.077   2.342   2.442  0.1476  1.5746 -0.1049
 8549TIP3   OH247061   1.270   1.813   6.074 -0.2612 -0.9083  1.0224
 8549TIP3    H147062   1.263   1.891   6.129 -2.3756  0.4646 -1.0889
 8549TIP3    H247063   1.250   1.740   6.133 -4.2318  0.6491  1.7268
 8550TIP3   OH247064   2.291   1.458  17.106  0.5597 -0.2011  0.2524
 8550TIP3    H147065   2.254   1.476  17.192  0.2952  0.7521 -0.0530
 8550TIP3    H247066   2.261   1.531  17.051 -0.3506 -1.4681 -0.9620
 8551TIP3   OH247067   0.771   3.188   4.917  0.2295 -0.2664  0.1116
 8551TIP3    H147068   0.691   3.135   4.918  0.9098 -1.4121 -1.8679
 8551TIP3    H247069   0.826   3.146   4.850  1.9893  1.2196  0.5909
 8552TIP3   OH247070   2.225   1.272  15.388  0.0367  0.2611 -0.1206
 8552TIP3    H147071   2.267   1.245  15.307  0.8229 -0.0644  0.3935
 8552TIP3    H247072   2.153   1.210  15.399 -0.9775  1.1993 -1.3224
 8553TIP3   OH247073   3.602   5.201   2.134  0.0760  0.0334  0.3057
 8553TIP3    H147074   3.569   5.193   2.045  0.1849  0.1904  0.2499
 8553TIP3    H247075   3.649   5.119   2.149  2.9007  1.3386 -0.9859
 8554TIP3   OH247076   0.802   3.404   1.578 -1.0273 -0.1241  0.3590
 8554TIP3    H147077   0.764   3.388   1.664 -1.3391  1.7753  0.5891
 8554TIP3    H247078   0.795   3.498   1.565  0.1226 -0.2281 -1.2350
 8555TIP3   OH247079   2.978   1.265   4.722 -0.3578 -0.7062 -0.1392
 8555TIP3    H147080   2.957   1.261   4.628  0.5528 -1.5258 -0.3296
 8555TIP3    H247081   3.051   1.203   4.732 -1.0684 -1.3330  1.2831
 8556TIP3   OH247082   1.105   5.101   3.744 -0.0100 -0.1244  0.2122
 8556TIP3    H147083   1.198   5.089   3.767  0.1685 -2.0729 -1.3929
 8556TIP3    H247084   1.058   5.068   3.821  0.6152  0.6333  0.9336
 8557TIP3   OH247085   0.814   5.250  16.979 -0.0491  0.1359 -0.0204
 8557TIP3    H147086   0.904   5.274  17.001  0.3661  0.7475 -2.2307
 8557TIP3    H247087   0.821   5.165  16.935 -0.7910 -0.7904  1.5857
 8558TIP3   OH247088   0.664   4.803  16.634  0.4546 -0.1049 -0.3337
 8558TIP3    H147089   0.650   4.709  16.626 -0.3929 -0.3286  2.9521
 8558TIP3    H247090   0.576   4.840  16.646  0.9179  0.8808  0.0905
 8559TIP3   OH247091   0.973   1.044   4.458 -0.3923  0.7103 -0.4490
 8559TIP3    H147092   0.988   1.004   4.373  1.0591 -0.1427  0.1790
 8559TIP3    H247093   1.005   0.980   4.521  0.7878  2.3029  0.6270
 8560TIP3   OH247094   3.626   4.503   3.689 -0.1723  0.0944  0.3512
 8560TIP3    H147095   3.652   4.525   3.600 -0.9197 -1.1623 -0.2003
 8560TIP3    H247096   3.543   4.549   3.702 -0.8257 -0.9164 -0.1564
 8561TIP3   OH247097   1.690   6.286  14.974  0.1148 -0.3994 -0.0405
 8561TIP3    H147098   1.672   6.353  14.908 -1.4641 -0.3981  0.3484
 8561TIP3    H247099   1.614   6.291  15.033 -0.1161 -2.6432 -0.1098
 8562TIP3   OH247100   3.986   3.479   2.065  0.6315  0.1042  0.1225
 8562TIP3    H147101   4.003   3.502   2.156 -0.0510 -0.6994  0.4592
 8562TIP3    H247102   4.066   3.504   2.019  1.7100 -1.2062  1.2472
 8563TIP3   OH247103   2.643   6.020   4.594 -0.0352  0.4161  0.2711
 8563TIP3    H147104   2.592   5.958   4.542  0.4256 -0.0488  0.3790
 8563TIP3    H247105   2.588   6.035   4.672 -0.4144  0.5991 -0.0296
 8564TIP3   OH247106   5.430   5.982  14.560  0.3407 -0.0598 -0.5277
 8564TIP3    H147107   5.441   5.929  14.481 -2.4246 -1.1409 -0.2464
 8564TIP3    H247108   5.440   6.072  14.530  4.3608 -0.6159 -1.1464
 8565TIP3   OH247109   5.836   0.303   5.363 -0.8375  0.3120  0.4067
 8565TIP3    H147110   5.873   0.339   5.282 -0.6925 -0.3531  0.1772
 8565TIP3    H247111   5.838   0.208   5.351  1.8376  0.0637  2.3250
 8566TIP3   OH247112   1.852   5.100   2.966 -0.1011 -0.0984 -0.5052
 8566TIP3    H147113   1.925   5.040   2.981  0.1547  0.8785  2.5581
 8566TIP3    H247114   1.775   5.043   2.963  0.3065 -0.7540  0.8533
 8567TIP3   OH247115   1.946   3.674   4.385 -0.3235 -0.2219  0.1111
 8567TIP3    H147116   1.999   3.702   4.460  1.1311 -0.2881 -0.8862
 8567TIP3    H247117   1.943   3.578   4.392 -3.0114 -0.0636  1.9648
 8568TIP3   OH247118   1.672   2.289   5.302  0.0639 -0.0502 -0.0729
 8568TIP3    H147119   1.768   2.293   5.301  0.1400 -1.3941 -1.8927
 8568TIP3    H247120   1.652   2.198   5.326 -0.7304 -0.0091 -0.5639
 8569TIP3   OH247121   0.231   3.022   3.155  0.7771 -0.2246  0.2551
 8569TIP3    H147122   0.305   2.962   3.155  0.2079 -0.9365  0.5337
 8569TIP3    H247123   0.165   2.979   3.210 -1.0433 -1.1673 -2.5073
 8570TIP3   OH247124   0.820   5.835  10.532  0.4221 -0.6915 -0.5245
 8570TIP3    H147125   0.899   5.825  10.478 -0.5924 -0.0349 -2.1824
 8570TIP3    H247126   0.845   5.897  10.600  1.5759 -1.0863 -0.5781
 8571TIP3   OH247127   5.021   4.463  10.621  0.3202 -0.5148 -0.2747
 8571TIP3    H147128   4.932   4.445  10.651  0.3015  0.8791  0.5224
 8571TIP3    H247129   5.071   4.385  10.646 -0.7264 -1.4162 -0.9717
 8572TIP3   OH247130   0.325   4.324   4.341 -0.3042 -0.5441 -0.4054
 8572TIP3    H147131   0.273   4.391   4.384 -2.1986 -0.6404 -2.4433
 8572TIP3    H247132   0.415   4.354   4.349 -0.9530  1.1818  0.5258
 8573TIP3   OH247133   5.631   4.340  15.419  0.4087 -0.3580  0.0893
 8573TIP3    H147134   5.611   4.281  15.346 -1.2718  0.8104 -0.4313
 8573TIP3    H247135   5.547   4.353  15.463  0.9222  0.9656  0.7018
 8574TIP3   OH247136   5.480   3.282   2.306  0.1435  0.0289 -0.2298
 8574TIP3    H147137   5.433   3.339   2.246 -1.2148 -0.3451  0.4651
 8574TIP3    H247138   5.518   3.214   2.250 -0.0183  0.4176 -0.8131
 8575TIP3   OH247139   6.373   3.147  13.123 -0.1766 -0.3488 -0.3699
 8575TIP3    H147140   6.352   3.234  13.090  0.7679 -0.1352 -0.4143
 8575TIP3    H247141   6.465   3.133  13.098 -0.0620 -1.0036  0.3932
 8576TIP3   OH247142   3.845   2.461  16.925 -0.3898 -0.4800  0.0888
 8576TIP3    H147143   3.921   2.453  16.867  1.0472  2.1166  1.4980
 8576TIP3    H247144   3.881   2.448  17.013 -1.1040  2.9459  0.9519
 8577TIP3   OH247145   5.376   4.896  15.788  0.1685  0.4354 -0.5920
 8577TIP3    H147146   5.361   4.832  15.719 -0.9267 -0.1148  0.1621
 8577TIP3    H247147   5.316   4.872  15.858  1.3065  0.9533  0.5929
 8578TIP3   OH247148   0.792   2.293  11.730  0.1133 -0.1118 -0.1336
 8578TIP3    H147149   0.742   2.215  11.753  1.2335 -0.5112  0.9486
 8578TIP3    H247150   0.773   2.306  11.636 -0.8248 -1.1115 -0.0943
 8579TIP3   OH247151   2.219   4.265  12.850  0.3048 -0.0895  0.7943
 8579TIP3    H147152   2.180   4.202  12.789  1.4632 -1.4608  1.4477
 8579TIP3    H247153   2.292   4.303  12.801 -1.6234  2.3284 -0.3560
 8580TIP3   OH247154   3.117   1.178   6.092 -0.6339  0.4258  0.5343
 8580TIP3    H147155   3.142   1.105   6.149 -0.7931 -0.0049  0.0562
 8580TIP3    H247156   3.022   1.172   6.086 -0.5492 -0.1291 -0.5534
 8581TIP3   OH247157   0.872   1.513   0.866 -0.1868  0.2319 -0.2773
 8581TIP3    H147158   0.829   1.572   0.803 -0.1268  0.3463 -0.2109
 8581TIP3    H247159   0.813   1.512   0.941 -0.1298  0.2958 -0.2329
 8582TIP3   OH247160   2.459   2.081   5.642  0.1977  0.3863  0.0751
 8582TIP3    H147161   2.509   2.042   5.714 -0.6741  0.4830  0.7351
 8582TIP3    H247162   2.387   2.127   5.685  0.8758  2.2668 -0.7126
 8583TIP3   OH247163   2.526   5.195  10.126 -0.4379 -0.6950 -0.4695
 8583TIP3    H147164   2.538   5.108  10.163  1.8190  0.0959  0.7228
 8583TIP3    H247165   2.613   5.234  10.126 -1.4167  1.5871 -0.9548
 8584TIP3   OH247166   0.596   3.601  13.083 -0.3362 -0.4157 -0.4262
 8584TIP3    H147167   0.568   3.510  13.073 -1.7488  0.0143 -0.4912
 8584TIP3    H247168   0.664   3.613  13.016  0.0120 -1.4697 -0.2723
 8585TIP3   OH247169   3.604   1.068  14.597 -0.0187  0.1191  0.5480
 8585TIP3    H147170   3.555   1.084  14.678  0.2829 -0.4125  0.8367
 8585TIP3    H247171   3.544   1.020  14.542 -0.0555  0.0572  0.6417
 8586TIP3   OH247172   4.670   5.960  14.593  0.1970 -0.1948  0.5051
 8586TIP3    H147173   4.614   6.029  14.556 -0.4998 -0.8516  0.3385
 8586TIP3    H247174   4.743   6.008  14.634 -0.2992  0.6418  0.4184
 8587TIP3   OH247175   2.113   6.095   2.482  0.0051 -0.5942  0.1347
 8587TIP3    H147176   2.075   6.017   2.441 -2.6385  2.0130 -2.6926
 8587TIP3    H247177   2.144   6.148   2.408 -1.0840  2.4259  1.7598
 8588TIP3   OH247178   3.892   5.099   5.502 -0.0243  0.5872 -0.1295
 8588TIP3    H147179   3.879   5.113   5.409  0.7085 -2.2658 -0.6915
 8588TIP3    H247180   3.976   5.143   5.521  0.4219  0.1389 -1.0545
 8589TIP3   OH247181   4.184   6.422  16.785  0.5873 -0.1681  0.4885
 8589TIP3    H147182   4.155   6.345  16.832  0.0683  0.2563  0.8642
 8589TIP3    H247183   4.214   6.389  16.700  0.2447 -0.7627  0.6008
 8590TIP3   OH247184   3.324   1.350  12.473 -0.2366  0.5539 -0.6339
 8590TIP3    H147185   3.316   1.294  12.550 -0.4743 -0.1410 -1.1488
 8590TIP3    H247186   3.277   1.302  12.404  1.4202  0.3461 -1.6330
 8591TIP3   OH247187   2.444   4.317  11.749  0.2791  0.1017 -0.4838
 8591TIP3    H147188   2.359   4.278  11.768 -0.1349 -0.5703 -3.5030
 8591TIP3    H247189   2.438   4.406  11.782 -1.3630 -0.1364 -0.1005
 8592TIP3   OH247190   1.593   1.867   4.286  0.0319  0.5908  0.0716
 8592TIP3    H147191   1.570   1.775   4.302 -0.3652  0.5914 -0.5054
 8592TIP3    H247192   1.574   1.881   4.194  1.6725  0.8023 -0.2528
 8593TIP3   OH247193   3.777   3.426   6.262 -0.3008  0.2179 -0.0170
 8593TIP3    H147194   3.786   3.346   6.314 -2.6552 -0.3747 -0.4433
 8593TIP3    H247195   3.753   3.493   6.326 -2.5954 -0.3839 -0.1768
 8594TIP3   OH247196   6.607   6.581   0.637  0.2798 -0.0549  0.3723
 8594TIP3    H147197   6.532   6.534   0.601  1.4429 -0.7808 -1.1645
 8594TIP3    H247198   6.647   6.520   0.700  1.1698 -0.7519 -0.8422
 8595TIP3   OH247199   2.880   4.354  15.861  0.4795 -0.0178 -0.1927
 8595TIP3    H147200   2.841   4.296  15.927 -0.9056  0.5891 -0.4588
 8595TIP3    H247201   2.916   4.294  15.795  1.4809 -0.6183  0.8845
 8596TIP3   OH247202   6.490   3.808   3.637  0.2189 -0.1951  0.1876
 8596TIP3    H147203   6.395   3.809   3.630  0.2979  0.6312 -0.8721
 8596TIP3    H247204   6.507   3.796   3.731 -0.9182 -0.3483  0.3786
 8597TIP3   OH247205   3.784   0.293   2.294 -0.6041 -0.2722 -0.4566
 8597TIP3    H147206   3.812   0.263   2.207  2.6793  0.2612  0.3611
 8597TIP3    H247207   3.729   0.370   2.276 -1.1736 -1.0419 -2.1043
 8598TIP3   OH247208   1.018   2.644  16.786 -0.7146  0.0058 -0.2421
 8598TIP3    H147209   1.005   2.712  16.720 -1.3247  0.8009  0.6812
 8598TIP3    H247210   1.111   2.624  16.782 -0.1976  2.1053  0.6240
 8599TIP3   OH247211   4.721   6.303  15.922 -0.5099 -0.6698  0.5357
 8599TIP3    H147212   4.662   6.325  15.994  1.0790 -0.7552  1.9005
 8599TIP3    H247213   4.666   6.305  15.844 -2.2424 -0.4735  1.7403
 8600TIP3   OH247214   0.555   2.231   1.194  0.0423 -0.1642 -0.2981
 8600TIP3    H147215   0.606   2.213   1.273  0.1430 -2.7816 -0.9057
 8600TIP3    H247216   0.590   2.171   1.129 -1.2971  0.6579 -1.8200
 8601TIP3   OH247217   3.244   1.286   3.383 -0.1867  0.6366  0.2408
 8601TIP3    H147218   3.277   1.274   3.472  1.2725 -1.9817 -0.6050
 8601TIP3    H247219   3.160   1.330   3.394 -0.2219 -0.0516  2.9349
 8602TIP3   OH247220   6.517   0.143   0.046  0.4335  0.4086  0.3734
 8602TIP3    H147221   6.529   0.237   0.055  1.4400  0.3126  0.0221
 8602TIP3    H247222   6.605   0.108   0.031 -0.1299 -0.3857 -1.2488
 8603TIP3   OH247223   6.488   6.599   5.635  0.3888  0.1681 -0.4320
 8603TIP3    H147224   6.517   6.512   5.663 -1.7357 -0.6678 -0.7527
 8603TIP3    H247225   6.505   6.601   5.541 -1.5567 -0.7326 -0.8181
 8604TIP3   OH247226   6.002   4.185  11.207 -0.1500  0.2722 -0.0342
 8604TIP3    H147227   5.947   4.127  11.260  0.7042 -1.2216 -0.7452
 8604TIP3    H247228   5.986   4.157  11.117 -1.8273  3.0001 -0.6296
 8605TIP3   OH247229   0.228   6.275  11.888 -0.3410  0.3732 -0.3530
 8605TIP3    H147230   0.194   6.282  11.799  0.4554  1.2251 -0.5965
 8605TIP3    H247231   0.208   6.184  11.914  1.4154 -0.5801 -2.2209
 8606TIP3   OH247232   6.100   1.518   6.091 -0.2196 -0.0124  0.3178
 8606TIP3    H147233   6.007   1.498   6.100  0.2614 -2.8598 -0.6283
 8606TIP3    H247234   6.139   1.491   6.174  0.2434 -1.9636 -0.5081
 8607TIP3   OH247235   2.204   4.239   6.101 -0.1788  0.2487 -0.0195
 8607TIP3    H147236   2.266   4.288   6.156 -0.4614  0.9495 -0.3142
 8607TIP3    H247237   2.120   4.252   6.144 -0.4883  1.2423 -0.9009
 8608TIP3   OH247238   2.419   6.149   1.229  0.7965  0.7885 -0.4644
 8608TIP3    H147239   2.424   6.173   1.322  0.3370 -0.6819 -0.0568
 8608TIP3    H247240   2.486   6.204   1.187 -0.3258  2.9087  0.4173
 8609TIP3   OH247241   1.229   0.494  16.503 -0.3961 -0.7140 -0.4632
 8609TIP3    H147242   1.275   0.499  16.419 -0.8681  2.1405 -0.6371
 8609TIP3    H247243   1.137   0.480  16.478 -0.9800  2.8583 -0.6675
 8610TIP3   OH247244   3.667   6.201  12.669  0.4235 -0.5716 -0.6773
 8610TIP3    H147245   3.594   6.209  12.730 -0.0441  1.3610 -1.4387
 8610TIP3    H247246   3.739   6.247  12.712  0.6258 -0.8201 -0.7556
 8611TIP3   OH247247   1.467   4.377  11.955 -0.0054  0.6063 -0.4671
 8611TIP3    H147248   1.382   4.346  11.985 -1.0026  1.5541 -2.2263
 8611TIP3    H247249   1.509   4.298  11.919  0.6661 -0.2544  2.0529
 8612TIP3   OH247250   3.417   1.281  16.452  0.6257  0.1084  0.0480
 8612TIP3    H147251   3.371   1.341  16.510 -1.0336  0.4287 -1.5550
 8612TIP3    H247252   3.470   1.227  16.510  0.3718  1.5935  1.6993
 8613TIP3   OH247253   1.249   5.272  12.652  0.0505  0.4272 -0.2040
 8613TIP3    H147254   1.212   5.357  12.677  0.8039  0.8754 -0.6180
 8613TIP3    H247255   1.299   5.290  12.572  0.2574 -0.3944 -0.2583
 8614TIP3   OH247256   3.195   3.930   5.546  0.1700  0.1102  0.0009
 8614TIP3    H147257   3.234   3.932   5.459  0.4930 -1.1805  0.1204
 8614TIP3    H247258   3.220   4.014   5.585  1.4309 -0.0148 -0.5231
 8615TIP3   OH247259   0.661   3.840   2.166  0.0725 -0.4799  0.6021
 8615TIP3    H147260   0.726   3.903   2.193 -1.8798  1.8270  0.0818
 8615TIP3    H247261   0.628   3.802   2.247  0.4825 -0.0508  0.9654
 8616TIP3   OH247262   5.527   6.704   4.275  0.1867  0.1827  0.1596
 8616TIP3    H147263   5.484   6.716   4.190  0.7521 -0.9177 -0.2816
 8616TIP3    H247264   5.616   6.737   4.262  0.3834 -0.3246  0.2232
 8617TIP3   OH247265   5.347   3.811   0.070  0.0841 -0.4311  0.0875
 8617TIP3    H147266   5.274   3.852   0.024  0.0737  0.5437  0.9449
 8617TIP3    H247267   5.403   3.885   0.096  0.2535 -0.9879  1.3381
 8618TIP3   OH247268   0.614   1.550   0.164  0.0538 -0.3722  0.0137
 8618TIP3    H147269   0.698   1.507   0.148  0.6127  0.9727 -0.7448
 8618TIP3    H247270   0.614   1.569   0.258  2.0358  2.5292 -0.5179
 8619TIP3   OH247271   1.036   0.444  14.750 -0.1412  0.3084 -0.0254
 8619TIP3    H147272   1.083   0.421  14.830  1.7486 -0.6779 -1.3899
 8619TIP3    H247273   0.946   0.420  14.768  0.3150 -0.2295  1.6799
 8620TIP3   OH247274   4.331   2.254  15.785  0.2163 -0.1786  0.0668
 8620TIP3    H147275   4.367   2.223  15.868 -3.0100 -1.1442  1.1942
 8620TIP3    H247276   4.352   2.184  15.723  0.3728 -0.6894  0.6847
 8621TIP3   OH247277   1.409   5.016  16.213 -0.4919  0.1101  0.1065
 8621TIP3    H147278   1.469   5.059  16.153 -2.0364  0.1587 -1.4442
 8621TIP3    H247279   1.372   4.944  16.162 -0.7054 -0.7773  1.4833
 8622TIP3   OH247280   2.038   1.251  17.196  0.4710 -0.3077  0.1557
 8622TIP3    H147281   2.130   1.229  17.184  0.3982 -0.7435  0.3805
 8622TIP3    H247282   2.038   1.341  17.229  0.9141 -0.9966  2.1164
 8623TIP3   OH247283   2.938   3.732  13.188 -0.2791 -0.2400 -0.2056
 8623TIP3    H147284   2.844   3.728  13.173 -0.3904 -0.2164  0.4687
 8623TIP3    H247285   2.950   3.692  13.274  0.3742 -0.6323 -0.4786
 8624TIP3   OH247286   2.355   6.100   3.617  0.4686 -0.1820  0.2557
 8624TIP3    H147287   2.374   6.159   3.545  1.2213 -2.4341 -1.4582
 8624TIP3    H247288   2.427   6.112   3.678  2.1550 -1.3542 -1.4381
 8625TIP3   OH247289   1.264   3.847  11.588 -0.3740 -0.0816 -0.1276
 8625TIP3    H147290   1.307   3.931  11.606 -1.6683  0.5105  0.2611
 8625TIP3    H247291   1.280   3.832  11.494 -1.0762  1.1546 -0.4638
 8626TIP3   OH247292   0.313   3.350   4.031 -0.3310 -0.3882 -0.0347
 8626TIP3    H147293   0.388   3.299   4.060  0.5242 -0.0771 -1.6803
 8626TIP3    H247294   0.262   3.290   3.976 -0.1568  0.0571 -0.6804
 8627TIP3   OH247295   0.003   3.781   3.162  0.5039 -0.1748  0.0357
 8627TIP3    H147296   0.051   3.699   3.147  0.6568 -0.1007  0.1179
 8627TIP3    H247297  -0.088   3.754   3.173  0.9179 -0.6483  2.8788
 8628TIP3   OH247298   1.499   5.127  15.710  0.3936 -0.7178  0.0584
 8628TIP3    H147299   1.493   5.070  15.633 -0.4001  1.1685 -1.3133
 8628TIP3    H247300   1.410   5.163  15.720  0.9125  0.3688  0.8295
 8629TIP3   OH247301   3.966   4.700   1.925  0.4830  0.2038  0.0908
 8629TIP3    H147302   4.032   4.635   1.949  0.1545  0.1082  0.7360
 8629TIP3    H247303   3.961   4.694   1.829  1.3086  0.1163  0.0462
 8630TIP3   OH247304   6.721   5.339   2.554  0.2222  0.8244 -0.3384
 8630TIP3    H147305   6.683   5.263   2.599  0.5631  1.8250  1.7374
 8630TIP3    H247306   6.803   5.305   2.517  1.5593  0.6586  2.5810
 8631TIP3   OH247307   3.696   5.929  14.691  0.0654 -0.0866  0.7572
 8631TIP3    H147308   3.637   5.980  14.635  0.0400 -1.7559 -0.7772
 8631TIP3    H247309   3.714   5.987  14.766 -0.6769  1.8082 -0.4911
 8632TIP3   OH247310   5.753   6.224   3.072 -0.3375  0.1876  0.3513
 8632TIP3    H147311   5.795   6.258   2.993  1.5339  1.5291  1.8540
 8632TIP3    H247312   5.825   6.211   3.134 -1.7477 -0.9111  1.8175
 8633TIP3   OH247313   5.952   5.908   3.216 -0.7429 -0.4069 -0.0870
 8633TIP3    H147314   5.920   5.938   3.131  1.0048  0.0645 -0.6048
 8633TIP3    H247315   5.981   5.818   3.200  0.5922  0.0435 -0.2733
 8634TIP3   OH247316   4.667   3.184   5.615 -0.3142 -0.1257  0.3849
 8634TIP3    H147317   4.620   3.103   5.594 -0.7580  0.2634 -0.1231
 8634TIP3    H247318   4.739   3.155   5.672 -0.3343 -0.9067  0.0264
 8635TIP3   OH247319   6.369   5.233   4.646 -0.3496 -0.7901  0.0785
 8635TIP3    H147320   6.405   5.161   4.595 -1.2769  0.5569 -2.5642
 8635TIP3    H247321   6.280   5.205   4.667 -0.2586 -0.9787  0.2113
 8636TIP3   OH247322   3.536   3.665   6.327 -0.0295 -0.0789 -0.8616
 8636TIP3    H147323   3.518   3.645   6.419  0.8138 -1.4799 -0.9837
 8636TIP3    H247324   3.452   3.655   6.283 -0.3909  0.3760 -0.2779
 8637TIP3   OH247325   3.415   0.503   1.689  0.3739  0.2723  0.5209
 8637TIP3    H147326   3.472   0.580   1.689  0.9635 -0.1378  2.2452
 8637TIP3    H247327   3.403   0.482   1.596 -0.4902  2.9201  0.0062
 8638TIP3   OH247328   6.269   1.544   1.545 -0.1017 -0.4532  0.1687
 8638TIP3    H147329   6.361   1.522   1.532 -0.3297 -0.8557 -0.8517
 8638TIP3    H247330   6.261   1.635   1.514  0.0455 -0.2693  0.6756
 8639TIP3   OH247331   1.031   2.023  13.011  0.0503 -0.1870 -0.5834
 8639TIP3    H147332   1.071   2.064  12.934 -0.5835  1.1535 -0.2176
 8639TIP3    H247333   0.973   2.090  13.046  0.1240 -0.8878  0.9105
 8640TIP3   OH247334   5.198   6.636   1.454 -0.4462  1.0640 -0.0209
 8640TIP3    H147335   5.151   6.686   1.521 -0.0369  0.1374  0.9859
 8640TIP3    H247336   5.288   6.667   1.460 -0.3364  0.7276  0.1160
 8641TIP3   OH247337   1.994   2.330   1.132  0.0033  0.3695 -0.7537
 8641TIP3    H147338   2.087   2.350   1.134  0.2958 -0.9703 -0.0870
 8641TIP3    H247339   1.956   2.383   1.203  0.4901 -0.1149 -0.1213
 8642TIP3   OH247340   3.843   2.232  13.419  0.4411  0.3464 -0.4291
 8642TIP3    H147341   3.825   2.195  13.333  0.4895  1.3899 -0.8835
 8642TIP3    H247342   3.938   2.229  13.428  0.4008 -0.3450 -0.1423
 8643TIP3   OH247343   3.903   2.462  16.595  0.4678  0.4276 -0.0372
 8643TIP3    H147344   3.828   2.407  16.614 -0.4055  2.0254  1.2003
 8643TIP3    H247345   3.916   2.453  16.500 -2.1079  1.1819 -0.4823
 8644TIP3   OH247346   2.453   5.926  11.885  0.1204 -0.3883 -0.4056
 8644TIP3    H147347   2.514   5.990  11.920  1.4703 -1.6590 -0.3654
 8644TIP3    H247348   2.367   5.958  11.910  0.7878  1.2909 -0.2185
 8645TIP3   OH247349   3.800   2.038  16.604 -0.1626 -0.0323 -0.0270
 8645TIP3    H147350   3.826   2.063  16.692  0.1452  3.1912 -0.9535
 8645TIP3    H247351   3.853   1.961  16.584  1.8432  0.8945  1.5532
 8646TIP3   OH247352   0.431   5.178  15.857 -0.2884 -0.4474 -0.4740
 8646TIP3    H147353   0.517   5.149  15.885 -1.0360 -0.2493  2.1775
 8646TIP3    H247354   0.428   5.271  15.879 -1.6922 -0.7884  0.8891
 8647TIP3   OH247355   5.774   5.659   4.822  0.1855  0.3600 -0.1168
 8647TIP3    H147356   5.813   5.687   4.905  0.3506 -0.9247  0.2400
 8647TIP3    H247357   5.729   5.577   4.842 -0.2015  0.2935 -1.1875
 8648TIP3   OH247358   6.248   2.644  11.785 -0.6022 -0.2148  0.4612
 8648TIP3    H147359   6.207   2.634  11.699 -3.0602 -1.0434  1.6586
 8648TIP3    H247360   6.255   2.738  11.799  1.6784 -0.0754 -1.4680
 8649TIP3   OH247361   0.960   3.332   3.409 -0.5273  0.1969 -0.2100
 8649TIP3    H147362   0.963   3.342   3.314 -0.9573  0.1121 -0.2352
 8649TIP3    H247363   0.876   3.289   3.426 -0.0908 -0.5400  0.1424
 8650TIP3   OH247364   3.749   5.417  12.856 -0.7980 -0.0597 -0.9168
 8650TIP3    H147365   3.799   5.343  12.823  1.0076 -0.3766  2.2571
 8650TIP3    H247366   3.802   5.494  12.834  0.6510 -0.3098  1.5048
 8651TIP3   OH247367   1.762   4.561  13.120 -0.1223  0.3009 -0.0223
 8651TIP3    H147368   1.816   4.488  13.089 -0.0402 -0.0128  0.8463
 8651TIP3    H247369   1.723   4.597  13.041  2.4982  1.4428 -0.8342
 8652TIP3   OH247370   5.896   2.190  15.469  0.2817 -0.0239 -0.3895
 8652TIP3    H147371   5.836   2.264  15.478 -0.0335 -0.0473 -2.0467
 8652TIP3    H247372   5.951   2.193  15.547  0.7562  2.4133 -0.7858
 8653TIP3   OH247373   0.659   0.058  14.737  0.0889 -0.0934  0.6493
 8653TIP3    H147374   0.717   0.132  14.720 -1.5075  1.4189  1.6368
 8653TIP3    H247375   0.655   0.011  14.654  1.3604  0.7445  0.0913
 8654TIP3   OH247376   0.458   6.010  16.876  0.1986 -0.3961 -0.5207
 8654TIP3    H147377   0.528   6.013  16.810  0.6896  3.4642  0.0407
 8654TIP3    H247378   0.505   6.009  16.959 -0.3658  1.9887 -0.1441
 8655TIP3   OH247379   6.489   0.294   2.139  0.2575 -0.1196 -0.4953
 8655TIP3    H147380   6.449   0.368   2.184  0.2102 -0.2676 -0.2944
 8655TIP3    H247381   6.424   0.269   2.073  1.2126  1.4311 -2.0567
 8656TIP3   OH247382   2.196   3.701  15.555  0.4460 -0.0933  0.0065
 8656TIP3    H147383   2.227   3.734  15.639  0.5932 -2.3811  0.8921
 8656TIP3    H247384   2.221   3.609  15.554 -0.7870 -0.4560 -1.9535
 8657TIP3   OH247385   1.167   0.997   5.490 -0.1732  0.5473 -0.1678
 8657TIP3    H147386   1.191   0.908   5.464  1.6810  0.5269  1.5006
 8657TIP3    H247387   1.082   0.987   5.532 -1.0436 -0.0715 -1.9784
 8658TIP3   OH247388   0.616   4.306  14.484 -0.6900 -0.3752  0.0741
 8658TIP3    H147389   0.537   4.274  14.440 -1.1000 -1.6945  1.7020
 8658TIP3    H247390   0.591   4.310  14.577  0.6375  0.8395  0.3862
 8659TIP3   OH247391   6.633   5.126  13.391  0.0064 -0.4793  0.2408
 8659TIP3    H147392   6.707   5.133  13.331 -0.1717  1.7056  0.2428
 8659TIP3    H247393   6.671   5.137  13.478 -0.0916 -1.1218  0.3686
 8660TIP3   OH247394   2.031   5.530   5.725  0.4589  0.1873  0.4282
 8660TIP3    H147395   2.098   5.595   5.748 -0.6743  1.7158 -0.4779
 8660TIP3    H247396   1.963   5.581   5.681  0.2375 -1.8472 -1.6937
 8661TIP3   OH247397   2.935   3.839   3.242  0.1627  0.5320 -0.1978
 8661TIP3    H147398   3.030   3.831   3.247  0.1730  0.2925 -0.7156
 8661TIP3    H247399   2.902   3.753   3.270  0.0846  0.7746  0.4537
 8662TIP3   OH247400   4.303   2.083  13.892 -0.2908  0.2244 -0.2447
 8662TIP3    H147401   4.288   2.155  13.831  1.2170 -0.5949 -1.6379
 8662TIP3    H247402   4.378   2.036  13.855  0.8415 -0.1367  2.3986
 8663TIP3   OH247403   5.749   5.632   2.865 -0.4304 -0.1372 -0.4616
 8663TIP3    H147404   5.743   5.727   2.872 -2.0046 -0.2556 -0.0860
 8663TIP3    H247405   5.730   5.613   2.773 -1.9924 -0.2176 -0.1315
 8664TIP3   OH247406   4.533   1.861   3.113  0.3000 -0.5743  0.2818
 8664TIP3    H147407   4.623   1.837   3.136  0.8227  0.7404 -0.3371
 8664TIP3    H247408   4.532   1.863   3.017  0.6170  2.9515  0.2899
 8665TIP3   OH247409   5.803   4.923   5.418 -0.0464 -0.8182 -0.4133
 8665TIP3    H147410   5.713   4.950   5.402 -0.4734 -1.7819  0.2824
 8665TIP3    H247411   5.801   4.827   5.408  1.3481 -0.6521 -2.5390
 8666TIP3   OH247412   2.995   3.239  16.326 -0.0407  0.1177  0.2601
 8666TIP3    H147413   3.020   3.149  16.303 -0.3561  0.2984 -0.8038
 8666TIP3    H247414   3.024   3.292  16.252 -0.9874  0.7213  0.3107
 8667TIP3   OH247415   0.117   6.203   2.438 -0.6025  0.6111 -0.3562
 8667TIP3    H147416   0.147   6.213   2.529 -0.5618 -1.1488 -0.1541
 8667TIP3    H247417   0.027   6.235   2.440 -1.7205 -2.3865  1.0798
 8668TIP3   OH247418   0.790   3.509  10.866 -0.3350 -0.3580  0.0748
 8668TIP3    H147419   0.713   3.500  10.922 -0.8905  1.7206 -0.2935
 8668TIP3    H247420   0.861   3.532  10.927 -0.7520  1.0288  0.0700
 8669TIP3   OH247421   1.185   5.436  15.309  0.0207  0.3792  0.1776
 8669TIP3    H147422   1.139   5.505  15.357 -1.5121 -0.4411 -0.0918
 8669TIP3    H247423   1.127   5.360  15.314  0.5263 -0.1566 -1.7057
 8670TIP3   OH247424   1.366   3.484  13.799 -0.1756 -0.6594  0.4861
 8670TIP3    H147425   1.283   3.473  13.846 -1.4226  1.8280 -1.0537
 8670TIP3    H247426   1.407   3.560  13.840  0.8067 -1.1696  0.4663
 8671TIP3   OH247427   6.280   5.670  13.831 -0.5570 -0.2643  0.0472
 8671TIP3    H147428   6.246   5.581  13.828 -0.9581 -0.1270  0.3344
 8671TIP3    H247429   6.373   5.660  13.849 -0.8878 -0.5870  1.6601
 8672TIP3   OH247430   2.698   0.021  14.317  0.2390  0.0260  0.1473
 8672TIP3    H147431   2.789   0.012  14.344  0.3344  0.0819 -0.1567
 8672TIP3    H247432   2.669  -0.068  14.297  0.7934  0.2262 -1.5906
 8673TIP3   OH247433   3.578   0.453  16.534 -0.1537 -0.1299  0.4986
 8673TIP3    H147434   3.557   0.500  16.614  0.3430  0.7646  0.1134
 8673TIP3    H247435   3.500   0.402  16.515  0.4197 -1.8530  2.5923
 8674TIP3   OH247436   3.049   1.820   1.950 -0.1626 -0.0629 -0.3351
 8674TIP3    H147437   2.957   1.799   1.965 -0.4197  1.0103 -0.3352
 8674TIP3    H247438   3.052   1.916   1.951  1.2734 -0.0991  1.6364
 8675TIP3   OH247439   2.326   4.744   2.124  0.1508  0.0018  0.3689
 8675TIP3    H147440   2.242   4.727   2.082 -0.1874  1.1275  0.5701
 8675TIP3    H247441   2.304   4.799   2.199  0.8553 -1.2618  1.5254
 8676TIP3   OH247442   6.631   0.466   5.155  0.0322  0.0563  0.5565
 8676TIP3    H147443   6.575   0.424   5.090  0.4908 -0.2888  0.3810
 8676TIP3    H247444   6.707   0.496   5.105  0.0227  0.4859  0.7985
 8677TIP3   OH247445   1.356   2.954   0.898 -0.2168 -0.4370  0.1864
 8677TIP3    H147446   1.268   2.941   0.933 -0.7396  0.3305 -0.8266
 8677TIP3    H247447   1.373   2.875   0.846  0.1444 -1.0922  1.2723
 8678TIP3   OH247448   5.246   6.159  16.623  0.1104  0.7979  0.1085
 8678TIP3    H147449   5.311   6.201  16.679 -1.4659  2.1758  0.9760
 8678TIP3    H247450   5.240   6.069  16.656  0.2204  1.2036  1.2625
 8679TIP3   OH247451   1.872   3.673  12.601 -0.1077  0.1153 -0.6258
 8679TIP3    H147452   1.793   3.619  12.599 -0.4105  0.4463  1.3101
 8679TIP3    H247453   1.931   3.627  12.662  0.1662  1.2469 -0.0255
 8680TIP3   OH247454   5.699   5.982   5.542  0.0742 -0.1462  0.1712
 8680TIP3    H147455   5.699   6.077   5.544 -0.0242 -0.1181 -0.7195
 8680TIP3    H247456   5.783   5.957   5.579  0.5826  0.3233 -0.6588
 8681TIP3   OH247457   2.067   3.434   6.553 -0.8457  0.2645 -0.1780
 8681TIP3    H147458   2.127   3.418   6.625  1.6726  0.9319 -2.0800
 8681TIP3    H247459   1.989   3.383   6.575  0.1391 -0.1243  2.6196
 8682TIP3   OH247460   4.566   4.884  14.332 -0.2686  0.1823  0.0188
 8682TIP3    H147461   4.503   4.932  14.386 -1.7127 -0.4772 -1.0431
 8682TIP3    H247462   4.633   4.949  14.311 -1.8586  1.5899 -0.8631
 8683TIP3   OH247463   5.358   1.830   2.550 -0.4801  0.2897 -0.0909
 8683TIP3    H147464   5.440   1.845   2.504 -1.5921  2.9924 -1.2931
 8683TIP3    H247465   5.372   1.748   2.598  2.4890  0.1152 -1.1563
 8684TIP3   OH247466   3.452   4.110   2.662 -0.4916 -0.3014  0.3727
 8684TIP3    H147467   3.430   4.039   2.722 -0.6351  0.0410  0.7302
 8684TIP3    H247468   3.488   4.179   2.718  1.5496 -0.8630 -0.2181
 8685TIP3   OH247469   3.719   6.081   1.246 -0.3269  0.5047 -0.0166
 8685TIP3    H147470   3.712   6.116   1.335  1.3663  0.5306  0.1144
 8685TIP3    H247471   3.631   6.092   1.209 -0.9326  0.8658  1.5099
 8686TIP3   OH247472   1.349   1.000   2.514  0.2726  0.4362 -0.0232
 8686TIP3    H147473   1.427   0.968   2.468 -1.0268 -2.5076 -0.2910
 8686TIP3    H247474   1.328   0.931   2.576 -1.5685  1.6532  0.7485
 8687TIP3   OH247475   1.461   5.711   2.591  0.0556 -0.3149 -0.7181
 8687TIP3    H147476   1.550   5.745   2.581 -0.4170  0.7739 -1.3912
 8687TIP3    H247477   1.406   5.778   2.551 -0.9512 -1.7343 -1.7303
 8688TIP3   OH247478   3.390   4.158  15.135  0.1906  0.1413 -0.2986
 8688TIP3    H147479   3.428   4.229  15.084  0.1453  0.0017 -0.5274
 8688TIP3    H247480   3.447   4.083  15.119 -1.5184 -0.7451 -2.6010
 8689TIP3   OH247481   6.444   1.343   2.205 -0.1880  0.1173 -0.0355
 8689TIP3    H147482   6.350   1.356   2.222 -0.2615  0.5925 -0.7940
 8689TIP3    H247483   6.485   1.421   2.243 -0.3749  1.3056 -2.2057
 8690TIP3   OH247484   5.330   1.016  13.289  0.4226  0.7899  0.4474
 8690TIP3    H147485   5.401   1.077  13.308 -0.6646  2.4026 -0.5828
 8690TIP3    H247486   5.349   0.984  13.201 -0.5448  1.8470 -0.1577
 8691TIP3   OH247487   4.785   5.002  14.273  0.1891  0.3249 -0.8306
 8691TIP3    H147488   4.806   5.095  14.260  1.2758  0.0488 -1.0482
 8691TIP3    H247489   4.865   4.964  14.308 -0.5264 -0.3673  0.0773
 8692TIP3   OH247490   4.874   5.105   2.497 -0.1036  0.8759 -0.3840
 8692TIP3    H147491   4.917   5.190   2.491  2.1254 -0.2349 -0.8083
 8692TIP3    H247492   4.856   5.080   2.407  2.4563 -0.6346 -0.5284
 8693TIP3   OH247493   1.239   5.323  16.313 -0.1705 -0.3366  0.1070
 8693TIP3    H147494   1.171   5.384  16.284 -0.6958 -0.6227  0.7455
 8693TIP3    H247495   1.203   5.236  16.295 -0.1708 -0.4982  0.8839
 8694TIP3   OH247496   1.677   4.361  15.368 -0.0036 -0.5022 -0.3679
 8694TIP3    H147497   1.606   4.385  15.427  1.7463  1.2702  1.0695
 8694TIP3    H247498   1.656   4.405  15.286 -0.0849  0.8226  0.3516
 8695TIP3   OH247499   2.295   6.766   2.901 -0.6555  0.1648 -0.1989
 8695TIP3    H147500   2.388   6.747   2.912 -0.6210  0.3133 -0.2247
 8695TIP3    H247501   2.275   6.738   2.812  0.4117  4.1014 -1.8147
 8696TIP3   OH247502   2.870   0.817   0.876 -0.3236  0.3895 -0.5728
 8696TIP3    H147503   2.937   0.817   0.944  0.4405 -0.2895 -1.3145
 8696TIP3    H247504   2.846   0.909   0.866  0.7192  0.6742 -0.5107
 8697TIP3   OH247505   0.460   2.468   6.446  0.2326 -0.2539 -0.3185
 8697TIP3    H147506   0.453   2.546   6.390 -0.4347 -0.6944 -0.8503
 8697TIP3    H247507   0.550   2.437   6.433  0.2899  0.0386 -0.6219
 8698TIP3   OH247508   2.283   6.026   1.945  0.2196 -0.0495 -0.0884
 8698TIP3    H147509   2.268   5.960   2.012  1.0584  1.1910  1.3756
 8698TIP3    H247510   2.222   6.005   1.875 -1.9897 -0.3206  1.8562
 8699TIP3   OH247511   4.023   1.329   1.146 -0.2503  0.9221 -0.1780
 8699TIP3    H147512   4.085   1.302   1.213  0.4187  1.5994 -0.5237
 8699TIP3    H247513   3.988   1.412   1.179 -0.3444  0.9706 -0.4036
 8700TIP3   OH247514   1.252   5.355   1.457  0.2935 -0.4376 -0.0777
 8700TIP3    H147515   1.275   5.302   1.533  0.3966  1.1687  1.0428
 8700TIP3    H247516   1.175   5.312   1.420 -0.1182 -0.9166  1.2937
 8701TIP3   OH247517   1.550   3.524  10.643 -0.5493  0.4483  0.3052
 8701TIP3    H147518   1.564   3.459  10.712 -0.1559  0.6700  0.4347
 8701TIP3    H247519   1.477   3.490  10.592  1.5969 -1.6550 -1.4761
 8702TIP3   OH247520   3.624   0.787   0.697 -0.6961 -0.6499  0.1664
 8702TIP3    H147521   3.668   0.861   0.739 -0.4644 -0.4073 -0.4950
 8702TIP3    H247522   3.537   0.820   0.676 -0.2762 -0.2531 -0.9881
 8703TIP3   OH247523   6.601   2.752   3.602 -0.3018 -0.3460  0.2914
 8703TIP3    H147524   6.573   2.781   3.688  3.2252  1.5900  0.8972
 8703TIP3    H247525   6.625   2.832   3.556  2.4547 -1.6499 -0.6930
 8704TIP3   OH247526   3.625   6.532  14.352 -1.0920  0.2012 -0.1590
 8704TIP3    H147527   3.644   6.565  14.440  0.5449 -0.0038 -0.4183
 8704TIP3    H247528   3.691   6.464  14.337 -2.2685 -0.7728 -0.9905
 8705TIP3   OH247529   4.117   2.368   4.135 -0.5992  0.2990 -0.1897
 8705TIP3    H147530   4.093   2.353   4.227 -0.0978 -0.9253 -0.2555
 8705TIP3    H247531   4.054   2.316   4.085  0.6432 -0.9797 -0.4454
 8706TIP3   OH247532   0.726   1.835  16.089 -0.9275  0.2103 -0.3176
 8706TIP3    H147533   0.811   1.793  16.106 -0.6331  0.8944 -0.0663
 8706TIP3    H247534   0.749   1.924  16.060 -1.5315  0.1227 -1.0963
 8707TIP3   OH247535   2.019   3.121   2.021 -0.2141 -0.2601 -0.7425
 8707TIP3    H147536   1.955   3.105   1.952  1.0103 -0.6657 -1.8012
 8707TIP3    H247537   1.976   3.089   2.101 -1.6230  0.1686 -1.3055
 8708TIP3   OH247538   0.754   3.656   1.541  1.0661  0.0415  0.0340
 8708TIP3    H147539   0.761   3.737   1.591 -0.0185 -0.1581  0.5356
 8708TIP3    H247540   0.675   3.667   1.488  0.4033 -1.0265  0.7713
 8709TIP3   OH247541   4.813   0.083   2.357  0.2193  0.1322 -0.0858
 8709TIP3    H147542   4.795   0.135   2.278  1.2378  0.3548 -0.1789
 8709TIP3    H247543   4.856   0.145   2.417 -0.6997  0.0075  0.7109
 8710TIP3   OH247544   3.702   5.652  13.952  0.2744 -0.1152  0.2506
 8710TIP3    H147545   3.618   5.609  13.966  0.4011 -0.6408 -0.5804
 8710TIP3    H247546   3.743   5.603  13.880  1.5821 -0.3034  1.1050
 8711TIP3   OH247547   1.139   1.279  11.517 -0.2008  0.5864  0.3307
 8711TIP3    H147548   1.114   1.330  11.440  0.8141 -2.1237 -1.8388
 8711TIP3    H247549   1.232   1.298  11.529  0.1705 -0.6976 -0.4624
 8712TIP3   OH247550   2.540   0.415   3.240 -0.3540  0.1257 -0.5114
 8712TIP3    H147551   2.565   0.354   3.171  0.2450  2.4487 -2.4109
 8712TIP3    H247552   2.598   0.490   3.228 -0.8746  0.9615  1.9364
 8713TIP3   OH247553   1.632   0.590   3.183  0.4024 -0.0509  0.0614
 8713TIP3    H147554   1.557   0.582   3.123 -0.3665 -1.6319  1.1823
 8713TIP3    H247555   1.610   0.664   3.239  0.3998  0.4601 -0.6128
 8714TIP3   OH247556   4.189   5.012   3.860 -0.4422 -0.1036  0.8041
 8714TIP3    H147557   4.105   5.030   3.816  0.8400 -0.5308 -1.9529
 8714TIP3    H247558   4.241   5.091   3.844  0.8027 -1.1454 -0.3868
 8715TIP3   OH247559   0.728   4.547   2.663 -0.1871  0.1643 -0.1548
 8715TIP3    H147560   0.718   4.639   2.688  0.4395  0.1952 -0.0212
 8715TIP3    H247561   0.665   4.535   2.591  0.6382  1.0346 -1.0405
 8716TIP3   OH247562   1.617   4.261  17.113 -0.1437 -0.1161  0.4373
 8716TIP3    H147563   1.699   4.218  17.137  0.3994  1.1287  0.8208
 8716TIP3    H247564   1.548   4.201  17.143  0.6250 -1.6639 -0.8226
 8717TIP3   OH247565   1.708   0.302   6.228 -0.3242  0.0661 -0.2167
 8717TIP3    H147566   1.694   0.397   6.229 -0.1934  0.0697  0.8493
 8717TIP3    H247567   1.637   0.266   6.281  0.3441 -0.3386  0.4162
 8718TIP3   OH247568   6.139   4.274  16.619 -0.0371  0.2893 -0.1565
 8718TIP3    H147569   6.209   4.209  16.624  0.8671  1.1829 -0.9390
 8718TIP3    H247570   6.080   4.242  16.551 -0.6852 -0.7423  0.8809
 8719TIP3   OH247571   3.805   1.082  12.280  0.0226 -0.2482 -0.0051
 8719TIP3    H147572   3.889   1.056  12.243  0.4329  0.3635  0.4763
 8719TIP3    H247573   3.749   1.101  12.205  0.9397  1.2813 -0.3020
 8720TIP3   OH247574   2.209   5.273   2.798 -0.2582  0.4755 -0.2873
 8720TIP3    H147575   2.222   5.181   2.821  1.9961  1.4825  2.7666
 8720TIP3    H247576   2.264   5.286   2.720 -1.3578 -0.9463 -1.3386
 8721TIP3   OH247577   0.976   3.981  14.055 -0.0209 -1.0182  0.0786
 8721TIP3    H147578   0.996   4.012  13.967  1.5703 -2.3043 -0.0375
 8721TIP3    H247579   1.031   4.034  14.113 -0.2456 -0.9223  0.2044
 8722TIP3   OH247580   4.458   5.914   4.980  0.2199 -0.1639 -0.0755
 8722TIP3    H147581   4.538   5.965   4.995  0.0444  0.2189 -0.4515
 8722TIP3    H247582   4.391   5.980   4.962 -0.3935 -0.4281  1.1872
 8723TIP3   OH247583   1.449   2.104  14.434 -0.6708 -0.0941  0.7186
 8723TIP3    H147584   1.417   2.067  14.516 -1.7968  0.0810  0.3622
 8723TIP3    H247585   1.487   2.030  14.387 -0.5267 -0.2998  1.1644
 8724TIP3   OH247586   6.415   2.625  17.159 -0.3033  0.4276  0.6101
 8724TIP3    H147587   6.505   2.657  17.168 -0.3513 -0.1768  3.7130
 8724TIP3    H247588   6.362   2.705  17.153  0.1827  0.8250  1.5331
 8725TIP3   OH247589   6.338   4.245  11.023  0.3383 -0.4783  0.0796
 8725TIP3    H147590   6.394   4.233  10.946  0.6842  0.1274  0.2304
 8725TIP3    H247591   6.383   4.312  11.074 -1.2368  1.0328 -0.4622
 8726TIP3   OH247592   2.718   6.497  11.735  0.5727  0.1854  0.6202
 8726TIP3    H147593   2.707   6.402  11.726 -1.5194  0.5019 -0.5466
 8726TIP3    H247594   2.644   6.534  11.687  0.2752  2.3779  2.6758
 8727TIP3   OH247595   6.554   4.053   2.499 -0.5862  0.5398  0.6800
 8727TIP3    H147596   6.570   3.976   2.555 -1.2846  0.5571  0.9090
 8727TIP3    H247597   6.578   4.127   2.555  1.6168  0.4429 -0.0727
 8728TIP3   OH247598   5.054   3.387  14.460 -0.7488 -0.5668  0.0283
 8728TIP3    H147599   5.004   3.468  14.448  1.0603  0.5329 -0.3418
 8728TIP3    H247600   5.133   3.399  14.407  0.1025 -2.0761  0.9046
 8729TIP3   OH247601   6.317   0.084  13.227 -0.0365  0.1043  0.2163
 8729TIP3    H147602   6.294   0.176  13.241 -1.5426 -0.1189 -0.6375
 8729TIP3    H247603   6.286   0.065  13.138 -0.7777 -1.5238  0.7856
 8730TIP3   OH247604   1.939   5.065  16.959 -0.3064 -0.5185  0.0252
 8730TIP3    H147605   1.944   5.112  17.041  2.0085 -1.4042  0.4252
 8730TIP3    H247606   1.848   5.034  16.954 -1.2789  2.1277  0.7377
 8731TIP3   OH247607   1.622   1.102   5.931 -0.2785 -0.3741  0.0983
 8731TIP3    H147608   1.582   1.053   5.859 -0.0478  0.5919 -0.7020
 8731TIP3    H247609   1.676   1.037   5.976 -1.7303 -1.3734  0.4123
 8732TIP3   OH247610   6.216   3.486  16.945 -0.0197 -0.0699  0.0053
 8732TIP3    H147611   6.302   3.446  16.961  0.8217  0.8990 -1.9634
 8732TIP3    H247612   6.221   3.570  16.990  0.3394  0.3004 -0.7190
 8733TIP3   OH247613   4.289   3.175   5.759 -0.0442 -0.3666  0.5245
 8733TIP3    H147614   4.215   3.227   5.791 -2.4037 -1.9443 -2.0952
 8733TIP3    H247615   4.342   3.237   5.709 -0.5935  0.3780  0.8590
 8734TIP3   OH247616   1.593   0.271  15.792  0.6508 -0.5508  0.1882
 8734TIP3    H147617   1.627   0.193  15.749 -1.3521 -0.4625 -1.6541
 8734TIP3    H247618   1.541   0.315  15.724  1.1474  2.0014  1.3921
 8735TIP3   OH247619   6.586   3.253   2.839  0.1013 -0.2909  0.6356
 8735TIP3    H147620   6.520   3.261   2.771  0.6212  0.0928  0.1756
 8735TIP3    H247621   6.623   3.165   2.828  0.9194  0.1568 -0.2492
 8736TIP3   OH247622   2.924   1.515   5.763 -0.6354  0.0211  0.3981
 8736TIP3    H147623   2.969   1.583   5.814  0.9415 -1.0055  0.4283
 8736TIP3    H247624   2.893   1.560   5.685  3.2804  0.2005 -1.2034
 8737TIP3   OH247625   5.087   2.825   2.351  0.5813  0.5112 -0.4783
 8737TIP3    H147626   5.137   2.751   2.385 -0.0521  0.2431 -0.1204
 8737TIP3    H247627   5.091   2.890   2.421  0.9152  0.7198 -0.6868
 8738TIP3   OH247628   4.346   4.205   2.494 -0.4908  0.1647  0.3205
 8738TIP3    H147629   4.356   4.269   2.564  1.3404 -1.6751  1.8037
 8738TIP3    H247630   4.251   4.196   2.484 -0.7917  0.3431  2.7031
 8739TIP3   OH247631   2.850   3.285  11.158 -0.3075 -0.0381  0.1098
 8739TIP3    H147632   2.832   3.369  11.116  0.2562  0.3869  0.7032
 8739TIP3    H247633   2.936   3.260  11.127  0.5466  0.7669  1.7594
 8740TIP3   OH247634   5.192   2.419   4.971  0.2951  0.4456  0.3177
 8740TIP3    H147635   5.239   2.357   4.915  0.1452  1.2778 -0.7605
 8740TIP3    H247636   5.245   2.425   5.050  0.7766 -0.3841  0.0728
 8741TIP3   OH247637   6.663   3.041   6.274 -0.4142  0.8772  0.2380
 8741TIP3    H147638   6.748   3.001   6.255 -0.0787  2.0406 -0.7693
 8741TIP3    H247639   6.623   2.982   6.339  2.4063  1.8469  3.0150
 8742TIP3   OH247640   3.252   6.413  17.104  0.3753 -0.0480 -0.2440
 8742TIP3    H147641   3.259   6.438  17.011  0.4799  1.8550  0.2592
 8742TIP3    H247642   3.159   6.400  17.118  0.1504  1.4689 -0.1890
 8743TIP3   OH247643   0.423   5.052  12.607  0.2447  0.0802 -0.0407
 8743TIP3    H147644   0.479   5.052  12.684 -0.0235  0.9050  0.1597
 8743TIP3    H247645   0.427   4.962  12.574  2.0665  0.2303 -0.2968
 8744TIP3   OH247646   0.367   5.210   2.869 -0.4386 -0.1388  0.5852
 8744TIP3    H147647   0.277   5.240   2.858 -0.9599 -1.7346  0.3678
 8744TIP3    H247648   0.363   5.116   2.852  0.8210 -0.6829  3.0343
 8745TIP3   OH247649   0.296   4.011   0.804  0.2752 -0.4665  0.3441
 8745TIP3    H147650   0.292   4.070   0.879  1.3609 -0.2633  0.2552
 8745TIP3    H247651   0.235   3.941   0.825 -0.2276  0.1355  0.9327
 8746TIP3   OH247652   5.299   4.554  17.034  0.1280  0.2743  0.5500
 8746TIP3    H147653   5.363   4.514  16.976 -0.3732 -0.6197  0.6075
 8746TIP3    H247654   5.276   4.484  17.096 -0.5625  0.7305  0.8071
 8747TIP3   OH247655   4.256   6.099   2.583 -0.1710 -0.7349 -0.3942
 8747TIP3    H147656   4.262   6.169   2.518  2.3139 -2.8063 -2.4846
 8747TIP3    H247657   4.190   6.039   2.549  0.6900 -1.5074 -0.7318
 8748TIP3   OH247658   5.618   1.099   6.451  0.1030  0.0230 -0.1191
 8748TIP3    H147659   5.654   1.032   6.393  0.0135 -1.1855  1.2072
 8748TIP3    H247660   5.623   1.061   6.538 -1.7701  0.9734  0.4252
 8749TIP3   OH247661   4.538   3.416   5.704 -0.0279  0.3323 -0.5744
 8749TIP3    H147662   4.505   3.405   5.794 -0.3442 -0.9431 -0.8450
 8749TIP3    H247663   4.597   3.343   5.690  1.0381  1.2454 -0.9727
 8750TIP3   OH247664   3.355   5.419   3.162 -0.0803 -0.4545 -0.2255
 8750TIP3    H147665   3.300   5.470   3.104  0.4903  1.0228  0.4952
 8750TIP3    H247666   3.444   5.451   3.145  0.2610 -1.0783  0.3565
 8751TIP3   OH247667   4.986   3.331  16.628 -0.3124  0.1473 -0.0190
 8751TIP3    H147668   4.975   3.271  16.702  0.5083 -0.7577 -0.6092
 8751TIP3    H247669   4.957   3.281  16.552 -0.5959  0.8689 -0.3941
 8752TIP3   OH247670   4.395   0.598   5.568 -0.1889 -0.2660 -0.0986
 8752TIP3    H147671   4.393   0.504   5.549  0.5845 -0.2647 -0.2190
 8752TIP3    H247672   4.488   0.620   5.566 -0.4291  0.6827 -0.9682
 8753TIP3   OH247673   4.981   4.853  11.812  0.1963 -0.0078 -0.7880
 8753TIP3    H147674   5.022   4.771  11.838 -0.7152  0.0864  1.0619
 8753TIP3    H247675   5.005   4.864  11.720  0.0922 -2.4898 -1.1580
 8754TIP3   OH247676   5.544   5.916   2.521  0.1460  0.5417  0.9054
 8754TIP3    H147677   5.634   5.925   2.488 -0.2193  2.3772  0.3091
 8754TIP3    H247678   5.537   5.985   2.587 -0.9319  0.6666  0.6640
 8755TIP3   OH247679   3.273   3.404   1.295  0.0793 -0.7526  0.1472
 8755TIP3    H147680   3.198   3.346   1.287 -1.4420  0.9698  1.3677
 8755TIP3    H247681   3.333   3.358   1.354 -0.7377 -1.4476  0.4513
 8756TIP3   OH247682   4.245   0.177   1.228  0.6212  0.0336 -0.0490
 8756TIP3    H147683   4.241   0.215   1.316  1.2401  1.5692 -0.6607
 8756TIP3    H247684   4.181   0.227   1.178  0.3137 -0.7955 -0.4773
 8757TIP3   OH247685   0.220   6.730  11.584  0.0171 -0.9231  0.1788
 8757TIP3    H147686   0.273   6.794  11.632 -0.8651  0.4884 -0.6926
 8757TIP3    H247687   0.266   6.718  11.501 -0.5938 -0.2779 -0.2626
 8758TIP3   OH247688   1.556   1.721   3.072  0.6149  0.3516  0.2396
 8758TIP3    H147689   1.499   1.792   3.103 -0.0774 -1.1940  2.6044
 8758TIP3    H247690   1.605   1.693   3.149 -0.3044 -2.8522 -0.2753
 8759TIP3   OH247691   2.509   3.866   1.449 -0.1678  0.6128  0.1005
 8759TIP3    H147692   2.563   3.914   1.512 -0.1301  0.9807 -0.2107
 8759TIP3    H247693   2.473   3.934   1.392 -1.1387  0.4008  0.4398
 8760TIP3   OH247694   6.213   0.773  12.428 -0.4888  0.4207  0.3807
 8760TIP3    H147695   6.299   0.731  12.429 -2.2545 -3.4499  1.5425
 8760TIP3    H247696   6.203   0.810  12.515  0.0994  1.0736  0.1696
 8761TIP3   OH247697   1.732   3.664   6.350 -0.5021  0.1788 -0.0616
 8761TIP3    H147698   1.663   3.727   6.370 -1.0374 -0.2744 -0.4696
 8761TIP3    H247699   1.733   3.605   6.426 -2.2630 -1.3014 -1.1521
 8762TIP3   OH247700   6.353   4.956   3.488  0.0213 -0.1054 -0.0591
 8762TIP3    H147701   6.444   4.933   3.507  0.4569  0.7119 -1.1134
 8762TIP3    H247702   6.329   4.901   3.414 -0.8509 -1.4252  1.1701
 8763TIP3   OH247703   4.660   2.398  13.367  0.1384  0.1243 -0.0037
 8763TIP3    H147704   4.671   2.306  13.389 -2.2037 -0.0169  0.6476
 8763TIP3    H247705   4.748   2.427  13.341  1.6394 -1.3988  3.1182
 8764TIP3   OH247706   6.737   5.080  12.490 -0.3720 -0.8989 -0.1435
 8764TIP3    H147707   6.664   5.060  12.549 -0.4165  0.3570  0.2395
 8764TIP3    H247708   6.784   4.997  12.481 -1.1362 -1.4169  0.5941
 8765TIP3   OH247709   0.558   5.161  14.588 -0.5807 -0.1378 -0.6956
 8765TIP3    H147710   0.651   5.179  14.575 -0.1495 -0.9161  1.0521
 8765TIP3    H247711   0.520   5.246  14.609  0.3620 -0.2635  1.7586
 8766TIP3   OH247712   1.890   3.808   3.787  0.0768  0.0635 -0.1167
 8766TIP3    H147713   1.915   3.888   3.833  1.2110 -0.6823  0.5841
 8766TIP3    H247714   1.972   3.774   3.752 -0.1151 -1.7060  1.0631
 8767TIP3   OH247715   5.854   3.526   1.708  0.5753  0.4557 -0.0503
 8767TIP3    H147716   5.929   3.469   1.725 -1.3771 -1.5600  2.0580
 8767TIP3    H247717   5.781   3.483   1.751 -1.3770  3.5345 -0.1705
 8768TIP3   OH247718   4.075   5.842  15.705  0.2364  0.0901 -0.0815
 8768TIP3    H147719   4.078   5.813  15.796 -0.0429  2.0536  0.5753
 8768TIP3    H247720   4.158   5.813  15.668  0.3780 -0.6649  0.8137
 8769TIP3   OH247721   4.671   4.613  14.364  0.1186 -0.5600 -0.3629
 8769TIP3    H147722   4.633   4.588  14.448 -1.1143 -0.2178 -0.8164
 8769TIP3    H247723   4.639   4.702  14.349  0.8910 -0.3611 -0.8719
 8770TIP3   OH247724   6.172   5.066  11.271  0.2320 -0.5026  0.3688
 8770TIP3    H147725   6.170   5.119  11.191 -1.0026  0.8363  1.2663
 8770TIP3    H247726   6.133   4.982  11.245 -3.3597  1.0842  0.3570
 8771TIP3   OH247727   0.573   5.119   6.025 -0.2824  0.1602  0.0037
 8771TIP3    H147728   0.626   5.134   6.104  1.5430 -1.2308 -0.9131
 8771TIP3    H247729   0.533   5.034   6.038 -0.5568  0.2515 -0.2400
 8772TIP3   OH247730   2.143   1.998   5.118  0.1641  0.4381  0.1430
 8772TIP3    H147731   2.167   2.073   5.171  0.1633  1.2496 -1.0006
 8772TIP3    H247732   2.179   2.017   5.031 -0.2457 -0.6595 -0.2763
 8773TIP3   OH247733   5.549   6.518   5.422  0.1287  0.2828  0.3494
 8773TIP3    H147734   5.594   6.554   5.498 -2.2036  1.6647  1.1412
 8773TIP3    H247735   5.501   6.442   5.456  0.2351  0.0313 -0.0562
 8774TIP3   OH247736   1.863   6.282   2.136 -0.2704 -0.5030  0.2716
 8774TIP3    H147737   1.856   6.292   2.041  1.5324 -0.7527  0.0998
 8774TIP3    H247738   1.779   6.245   2.162  0.0193 -2.4974 -1.5056
 8775TIP3   OH247739   2.839   1.313   0.588  0.8054  0.0083 -0.4726
 8775TIP3    H147740   2.900   1.240   0.571 -0.7861 -1.3911 -0.3054
 8775TIP3    H247741   2.777   1.309   0.515 -0.8727 -0.5046  0.9452
 8776TIP3   OH247742   4.627   1.707  15.346 -0.0662 -0.3489 -0.1734
 8776TIP3    H147743   4.549   1.655  15.367 -0.5781  0.9777  1.4532
 8776TIP3    H247744   4.601   1.760  15.271 -0.1270 -1.2027 -0.7528
 8777TIP3   OH247745   3.720   0.539   5.974 -0.3255  0.1804 -0.3516
 8777TIP3    H147746   3.633   0.574   5.991 -0.5019 -0.7428  0.7025
 8777TIP3    H247747   3.722   0.525   5.879 -1.7721 -0.9200 -0.2428
 8778TIP3   OH247748   3.168   5.966   3.001 -0.1236 -0.1031 -0.3029
 8778TIP3    H147749   3.218   6.048   2.996 -0.3523 -0.1010 -2.9351
 8778TIP3    H247750   3.087   5.991   3.046  0.5531  0.7337  0.4766
 8779TIP3   OH247751   3.601   4.961   0.781 -0.1044  0.4351 -0.4109
 8779TIP3    H147752   3.556   4.881   0.753 -3.4302  2.3087 -0.6995
 8779TIP3    H247753   3.553   4.990   0.858  1.1747  2.0591 -0.1938
 8780TIP3   OH247754   3.900   5.424  11.494 -0.0895 -0.3796  0.2942
 8780TIP3    H147755   3.895   5.339  11.537 -0.6974 -1.1547 -1.2578
 8780TIP3    H247756   3.945   5.407  11.412 -0.7513  0.6811 -0.3034
 8781TIP3   OH247757   0.523   5.907   6.396 -0.2362 -0.2254  0.1403
 8781TIP3    H147758   0.588   5.852   6.353  0.2589 -1.0473  1.8771
 8781TIP3    H247759   0.554   5.996   6.383  1.7263 -0.6530  1.6787
 8782TIP3   OH247760   6.374   6.428  14.545 -0.7771  0.2236 -0.5219
 8782TIP3    H147761   6.397   6.337  14.560  1.2042  0.7629 -0.1057
 8782TIP3    H247762   6.289   6.439  14.587  0.3576 -0.6827  2.1207
 8783TIP3   OH247763   3.973   3.638  13.944  0.0392 -0.4367  0.6573
 8783TIP3    H147764   3.908   3.614  13.878  0.4475  0.1038  0.0514
 8783TIP3    H247765   3.922   3.677  14.015 -0.3984 -1.0024  0.6542
 8784TIP3   OH247766   3.181   5.030   4.841 -0.8470 -0.2197  0.0651
 8784TIP3    H147767   3.100   4.993   4.877  0.1691 -0.8941  1.6872
 8784TIP3    H247768   3.251   4.993   4.895  0.5906  0.0559 -1.5740
 8785TIP3   OH247769   1.662   5.826   5.464 -0.1221 -0.2681 -0.2304
 8785TIP3    H147770   1.633   5.735   5.471  2.9498 -1.3082 -0.2910
 8785TIP3    H247771   1.648   5.863   5.551 -2.0160 -0.5746 -0.3875
 8786TIP3   OH247772   1.078   3.716  14.152  0.1604 -0.3572  0.3127
 8786TIP3    H147773   1.094   3.732  14.245 -1.3084  0.8716  0.3715
 8786TIP3    H247774   1.011   3.781  14.128  2.6841  1.4104 -2.2939
 8787TIP3   OH247775   3.779   1.607  15.638  0.1370  0.0413 -0.1284
 8787TIP3    H147776   3.788   1.679  15.701 -0.7796 -1.0355  1.2686
 8787TIP3    H247777   3.702   1.559  15.668  0.4380 -1.2393 -1.3567
 8788TIP3   OH247778   0.762   3.522  16.719  0.2593 -0.4174 -0.2613
 8788TIP3    H147779   0.679   3.530  16.766  0.0826 -0.5805 -0.5420
 8788TIP3    H247780   0.829   3.527  16.788  0.1119  1.7410 -0.2483
 8789TIP3   OH247781   1.350   2.752  15.353  0.1564 -0.1356  0.0485
 8789TIP3    H147782   1.415   2.808  15.312  0.1900  0.7551  1.2971
 8789TIP3    H247783   1.289   2.730  15.282  0.9411  0.2906 -0.7653
 8790TIP3   OH247784   4.269   3.084   3.177  0.5630 -0.2076  0.0980
 8790TIP3    H147785   4.198   3.021   3.183  0.2340  0.2968  1.7062
 8790TIP3    H247786   4.234   3.164   3.217  1.1895  0.8209 -1.3251
 8791TIP3   OH247787   1.694   4.051   0.233  0.3832 -0.0125 -0.0569
 8791TIP3    H147788   1.699   4.045   0.328  0.1767  0.5480 -0.0057
 8791TIP3    H247789   1.611   4.011   0.211 -0.3007  1.2594  0.1452
 8792TIP3   OH247790   5.551   0.652   3.468  0.5758 -0.1721  0.3535
 8792TIP3    H147791   5.571   0.561   3.445 -0.1528 -0.4438  0.8038
 8792TIP3    H247792   5.637   0.690   3.487  0.7691 -1.1232  1.4623
 8793TIP3   OH247793   5.545   5.049   0.415 -0.1799  0.5248  0.5340
 8793TIP3    H147794   5.509   4.970   0.456  0.2985  0.4654  0.8488
 8793TIP3    H247795   5.469   5.095   0.381 -0.4501 -0.1772  0.1663
 8794TIP3   OH247796   1.821   3.604  10.723  0.2155 -0.7402  0.1534
 8794TIP3    H147797   1.749   3.561  10.677  1.0636 -2.3168  0.2908
 8794TIP3    H247798   1.848   3.541  10.789  2.5931 -0.7096 -0.7535
 8795TIP3   OH247799   2.146   5.091  12.935 -0.0928  0.5628  0.1264
 8795TIP3    H147800   2.069   5.038  12.914 -0.9962  2.2307 -0.8838
 8795TIP3    H247801   2.219   5.043  12.896 -0.6655 -0.8328  0.7489
 8796TIP3   OH247802   6.263   1.608  11.081 -0.2774  0.1379 -0.1169
 8796TIP3    H147803   6.324   1.547  11.123 -0.7719 -0.0049  0.4025
 8796TIP3    H247804   6.194   1.552  11.045  1.2552  0.0664 -3.0656
 8797TIP3   OH247805   4.156   3.963  11.764  0.0754 -0.4268  0.1677
 8797TIP3    H147806   4.242   4.005  11.757  0.2494 -0.3873  2.1922
 8797TIP3    H247807   4.176   3.872  11.789 -0.4909  0.1152  2.7689
 8798TIP3   OH247808   0.676   3.176   4.114 -0.2419  0.2856 -0.9118
 8798TIP3    H147809   0.739   3.247   4.117  1.6848 -1.4224  1.1236
 8798TIP3    H247810   0.710   3.117   4.045  0.6362 -0.8031  0.4192
 8799TIP3   OH247811   4.694   5.571  11.367 -0.0606  0.6288 -0.1958
 8799TIP3    H147812   4.672   5.661  11.342 -1.6076  0.0789 -0.8287
 8799TIP3    H247813   4.745   5.537  11.294  2.3401  1.6642  0.9544
 8800TIP3   OH247814   1.855   5.527   0.566  0.8712  0.3250  0.2160
 8800TIP3    H147815   1.927   5.473   0.531  1.0691  0.4640  0.4036
 8800TIP3    H247816   1.834   5.485   0.650  0.6574  0.2170  0.1073
 8801TIP3   OH247817   6.625   0.529  15.844 -0.0655 -0.2965  0.3301
 8801TIP3    H147818   6.640   0.446  15.800 -0.4881 -0.8462  1.2143
 8801TIP3    H247819   6.532   0.528  15.867 -0.4056  1.0414 -0.9181
 8802TIP3   OH247820   1.431   0.909  13.422 -0.3418 -0.5221  0.0242
 8802TIP3    H147821   1.507   0.964  13.408  0.7228 -1.7105  0.9503
 8802TIP3    H247822   1.366   0.967  13.463 -0.1643  0.6331 -1.2972
 8803TIP3   OH247823   0.977   6.662  14.685  0.5014  0.1789 -0.1642
 8803TIP3    H147824   0.942   6.737  14.734  0.3858 -0.4127  0.6729
 8803TIP3    H247825   1.033   6.701  14.618  1.6580  0.9563  1.2354
 8804TIP3   OH247826   6.647   5.809   0.647  0.0824 -0.1433  0.0628
 8804TIP3    H147827   6.582   5.811   0.576 -0.4657  0.2232  0.5733
 8804TIP3    H247828   6.629   5.727   0.692 -0.2919  0.1452  0.4459
 8805TIP3   OH247829   6.399   3.015   5.792 -0.2558  0.1130 -0.3290
 8805TIP3    H147830   6.436   3.021   5.704  0.8921  1.6021  0.2360
 8805TIP3    H247831   6.473   3.034   5.850 -0.9120 -1.1979  0.9760
 8806TIP3   OH247832   6.444   5.132   2.063 -0.3393 -0.0614  0.2240
 8806TIP3    H147833   6.404   5.128   1.976  0.6973 -1.1331 -0.2292
 8806TIP3    H247834   6.400   5.063   2.113 -0.3696  0.0147  0.3024
 8807TIP3   OH247835   5.170   4.510   5.415  0.1268  0.1911 -0.3287
 8807TIP3    H147836   5.134   4.529   5.328 -1.9729 -2.6845 -0.1878
 8807TIP3    H247837   5.247   4.456   5.397  0.7089  1.0428 -0.4330
 8808TIP3   OH247838   3.917   2.586   2.054  0.2725  0.4064  0.2569
 8808TIP3    H147839   3.994   2.575   1.998  1.4091 -1.0998  2.0457
 8808TIP3    H247840   3.953   2.607   2.140 -1.2343 -1.9921  1.5264
 8809TIP3   OH247841   1.748   0.817  14.367 -0.7317  0.0183  0.6336
 8809TIP3    H147842   1.786   0.743  14.415  0.1894  0.5549  0.7314
 8809TIP3    H247843   1.656   0.819  14.395 -0.3921 -0.1656  1.7631
 8810TIP3   OH247844   1.655   2.099   4.947 -0.1857  0.3138 -0.0180
 8810TIP3    H147845   1.695   2.033   4.891  0.6829  1.0421 -0.2771
 8810TIP3    H247846   1.703   2.180   4.927  0.7157  0.4090  2.3923
 8811TIP3   OH247847   6.634   2.500  15.453  0.1863 -0.4276  0.0936
 8811TIP3    H147848   6.608   2.531  15.540 -0.2983  0.6704 -0.4332
 8811TIP3    H247849   6.682   2.573  15.415  1.5445 -1.3851 -0.0701
 8812TIP3   OH247850   2.712   4.348   5.166 -0.4184  0.0129  0.9346
 8812TIP3    H147851   2.668   4.409   5.107 -2.2125 -1.4358  0.7445
 8812TIP3    H247852   2.642   4.294   5.202  1.0240 -1.2494  1.9128
 8813TIP3   OH247853   3.116   2.586  12.294 -0.2409  0.0505 -0.0590
 8813TIP3    H147854   3.069   2.523  12.239 -0.9698  0.8561 -0.3569
 8813TIP3    H247855   3.181   2.624  12.236  0.5667 -0.8167  0.2633
 8814TIP3   OH247856   1.903   1.958  12.206 -0.1615  0.1814 -0.1739
 8814TIP3    H147857   1.992   1.925  12.220  0.0859  1.0036  0.2267
 8814TIP3    H247858   1.853   1.882  12.175  0.1383 -0.8166  1.7526
 8815TIP3   OH247859   6.467   2.291  14.539 -0.5020  0.1407  0.6070
 8815TIP3    H147860   6.453   2.231  14.466 -0.6956 -0.4876  1.1510
 8815TIP3    H247861   6.422   2.371  14.513  2.1972  1.0637 -1.3889
 8816TIP3   OH247862   0.427   2.418   5.934  1.1285 -0.0466  0.2946
 8816TIP3    H147863   0.375   2.375   5.867 -0.9652  1.4131  0.9034
 8816TIP3    H247864   0.403   2.373   6.015 -1.3948  2.3865  1.0013
 8817TIP3   OH247865   3.233   1.685  13.790 -0.1080 -0.4204  0.0264
 8817TIP3    H147866   3.254   1.776  13.769  0.0095 -0.3345  0.5167
 8817TIP3    H247867   3.215   1.645  13.705  4.4711 -1.1440 -0.7451
 8818TIP3   OH247868   0.566   1.318   6.021 -0.1582  0.0572  0.7378
 8818TIP3    H147869   0.587   1.322   6.114 -0.2998  0.1193  0.7670
 8818TIP3    H247870   0.472   1.300   6.018 -0.2551  0.5853  0.6055
 8819TIP3   OH247871   0.275   3.709  17.008  0.3849  0.3451  0.4034
 8819TIP3    H147872   0.184   3.734  17.020  0.6945  1.4791  0.4908
 8819TIP3    H247873   0.320   3.792  16.991  1.8521  0.1272  3.0796
 8820TIP3   OH247874   1.667   6.772   0.711 -0.6151 -0.0932 -0.2095
 8820TIP3    H147875   1.659   6.714   0.786 -1.0244  0.7915  0.4352
 8820TIP3    H247876   1.657   6.860   0.747  0.3866  0.4055 -1.1158
 8821TIP3   OH247877   0.216   2.645   3.748 -0.2173  0.3514 -0.4365
 8821TIP3    H147878   0.222   2.551   3.733 -0.2635  0.2529  0.1607
 8821TIP3    H247879   0.123   2.665   3.747 -0.3419  0.0170  1.6651
 8822TIP3   OH247880   2.979   5.135   1.853 -0.6976  0.0002 -0.4214
 8822TIP3    H147881   2.922   5.205   1.821  2.2809  1.8628 -1.7888
 8822TIP3    H247882   3.021   5.171   1.931  2.0193  0.4033 -2.0009
 8823TIP3   OH247883   3.320   6.764  11.674 -0.3027 -0.0403  0.4876
 8823TIP3    H147884   3.234   6.807  11.672 -0.3122 -0.0793 -0.2968
 8823TIP3    H247885   3.314   6.698  11.604 -0.7317 -2.1603  2.4609
 8824TIP3   OH247886   3.073   4.429  16.834 -0.3429  0.0759 -0.3707
 8824TIP3    H147887   3.137   4.433  16.905 -0.5621  0.0751 -0.1701
 8824TIP3    H247888   3.124   4.407  16.756 -0.0039  0.7376 -0.3395
 8825TIP3   OH247889   0.796   1.903  11.530  0.2833  0.3905  0.0632
 8825TIP3    H147890   0.795   1.813  11.497 -0.2090  0.2736  0.3903
 8825TIP3    H247891   0.888   1.919  11.552  0.6361  0.5172 -1.4714
 8826TIP3   OH247892   6.153   1.023  11.699 -0.9480 -0.0467 -0.0149
 8826TIP3    H147893   6.062   0.995  11.698 -1.3212  1.1341 -1.2680
 8826TIP3    H247894   6.199   0.957  11.646 -0.9996 -0.8179  0.8828
 8827TIP3   OH247895   6.326   3.367   3.282  0.5466 -0.1305 -0.4752
 8827TIP3    H147896   6.315   3.462   3.277 -0.1713 -0.2586 -1.3660
 8827TIP3    H247897   6.277   3.332   3.208 -0.8586 -1.3238  0.9472
 8828TIP3   OH247898   4.670   4.639   0.818  0.0980  0.3609  0.4601
 8828TIP3    H147899   4.698   4.723   0.783 -2.0112  1.1463  0.5880
 8828TIP3    H247900   4.622   4.661   0.898 -0.5298 -0.9520  0.4598
 8829TIP3   OH247901   3.649   0.754  14.587 -0.0980  0.5285 -0.0495
 8829TIP3    H147902   3.644   0.680  14.527  0.3320  0.0469  0.5076
 8829TIP3    H247903   3.573   0.808  14.565 -1.1398 -0.7240  0.4002
 8830TIP3   OH247904   4.283   6.096   4.917  0.1783  0.2432  0.0516
 8830TIP3    H147905   4.207   6.111   4.973 -0.3811  2.0840 -1.1830
 8830TIP3    H247906   4.350   6.155   4.951  1.0867 -1.3144  1.0836
 8831TIP3   OH247907   3.530   6.564  14.831  0.1825 -0.3160  0.0914
 8831TIP3    H147908   3.546   6.482  14.877 -0.2259 -0.7407 -0.5149
 8831TIP3    H247909   3.524   6.630  14.901 -2.0260 -1.2016  0.7921
 8832TIP3   OH247910   0.688   5.552  14.712 -0.1545  0.2100  0.6493
 8832TIP3    H147911   0.662   5.576  14.623 -2.6202 -0.7238  1.0858
 8832TIP3    H247912   0.704   5.635  14.756 -1.6131  0.7924  0.1043
 8833TIP3   OH247913   1.075   0.436  12.729  0.0436  0.1899 -0.3898
 8833TIP3    H147914   1.061   0.342  12.744  2.3660  0.1535  2.0253
 8833TIP3    H247915   1.104   0.469  12.814  2.1682  2.4891 -1.9603
 8834TIP3   OH247916   4.612   5.843   2.167 -0.0413  0.5622  0.6691
 8834TIP3    H147917   4.672   5.770   2.162 -2.3865 -1.3559 -0.5470
 8834TIP3    H247918   4.662   5.913   2.208  3.0100 -0.9218 -0.4078
 8835TIP3   OH247919   1.953   2.837  17.192 -0.1463 -0.0184 -0.6466
 8835TIP3    H147920   1.896   2.914  17.198 -0.2484 -0.3396  3.2949
 8835TIP3    H247921   2.023   2.854  17.255  2.5993 -0.9615 -3.3073
 8836TIP3   OH247922   5.818   2.038  14.012  0.1508  0.8840  0.3138
 8836TIP3    H147923   5.826   2.122  13.967 -0.9376  0.8878  0.1245
 8836TIP3    H247924   5.743   1.996  13.972  0.0749  0.2449  1.1074
 8837TIP3   OH247925   0.773   0.618   3.196  0.0859  0.2729 -0.3495
 8837TIP3    H147926   0.840   0.648   3.134  0.0228  0.6015 -0.2590
 8837TIP3    H247927   0.805   0.534   3.227  0.7358  0.6810  0.1101
 8838TIP3   OH247928   6.118   2.108  15.014 -0.0422  0.4166  0.4582
 8838TIP3    H147929   6.207   2.127  15.044  0.9589 -0.4178 -1.7882
 8838TIP3    H247930   6.122   2.121  14.919 -1.8943 -1.2265  0.1186
 8839TIP3   OH247931   0.301   2.210  12.213 -0.3808 -0.2082 -0.1961
 8839TIP3    H147932   0.250   2.134  12.241 -1.5865  0.6540 -0.0015
 8839TIP3    H247933   0.375   2.173  12.166 -1.4154 -1.4780 -0.8664
 8840TIP3   OH247934   4.980   0.738  14.045  0.9935  0.1566 -0.2085
 8840TIP3    H147935   4.942   0.794  14.112  1.9358  0.0459  0.4404
 8840TIP3    H247936   5.070   0.723  14.075  0.4582 -2.5418  0.1763
 8841TIP3   OH247937   4.123   4.535  13.637 -0.2729  0.2855 -0.0039
 8841TIP3    H147938   4.062   4.600  13.602 -3.2426 -1.0010  2.4682
 8841TIP3    H247939   4.208   4.578  13.634 -2.2547  4.7766  2.5557
 8842TIP3   OH247940   0.946   4.636  12.848  0.3675 -0.2638  0.0144
 8842TIP3    H147941   0.988   4.721  12.860 -1.1262  0.5021 -0.0033
 8842TIP3    H247942   0.916   4.637  12.757  1.7246 -1.4637 -0.4682
 8843TIP3   OH247943   1.066   6.778   5.929 -0.2582 -0.2441 -0.6820
 8843TIP3    H147944   1.033   6.773   5.839  0.1863 -0.1741 -0.8498
 8843TIP3    H247945   1.089   6.870   5.941  1.9717 -0.6855 -1.3254
 8844TIP3   OH247946   0.462   3.785  16.031  0.3404  0.0855 -0.4316
 8844TIP3    H147947   0.396   3.787  16.100 -2.6958  0.0699 -3.2054
 8844TIP3    H247948   0.488   3.876  16.019  0.2163  0.1925  0.1216
 8845TIP3   OH247949   2.129   0.333   5.089 -0.4698 -0.1966 -1.2623
 8845TIP3    H147950   2.129   0.239   5.076 -1.3428 -0.5110  0.7702
 8845TIP3    H247951   2.210   0.350   5.138 -0.8504 -0.0504 -0.6767
 8846TIP3   OH247952   3.935   1.294   0.276 -0.6478  0.3125  0.2477
 8846TIP3    H147953   3.953   1.223   0.215  0.3776  0.5222  0.2887
 8846TIP3    H247954   3.953   1.256   0.362  0.4554  0.7650  0.2349
 8847TIP3   OH247955   3.191   1.005   4.258 -0.4655 -0.2200 -0.0752
 8847TIP3    H147956   3.096   1.016   4.257 -0.3690  0.5129 -0.6653
 8847TIP3    H247957   3.206   0.937   4.324 -1.1888  1.6524  2.0771
 8848TIP3   OH247958   0.215   3.101   3.931  0.5373 -0.1485 -0.4057
 8848TIP3    H147959   0.144   3.122   3.992  0.4297  0.8818 -0.8753
 8848TIP3    H247960   0.175   3.107   3.844  0.5368 -2.2178 -0.5782
 8849TIP3   OH247961   1.101   5.770   5.512  0.1149 -0.0226 -0.9304
 8849TIP3    H147962   1.100   5.675   5.501 -1.8892 -0.1354  0.0596
 8849TIP3    H247963   1.166   5.785   5.581 -1.3786 -0.8919  0.6776
 8850TIP3   OH247964   0.898   6.050  16.966  0.7258  0.0771  0.0241
 8850TIP3    H147965   0.940   6.127  17.005  1.2052  0.2826 -0.8802
 8850TIP3    H247966   0.963   6.017  16.905  0.8005 -1.4758  0.9290
 8851TIP3   OH247967   3.906   4.829  16.787 -0.0911 -0.1653 -0.1440
 8851TIP3    H147968   4.001   4.837  16.782 -0.1316  1.5658  1.6489
 8851TIP3    H247969   3.885   4.759  16.724  2.2583  0.0066 -1.1667
 8852TIP3   OH247970   4.151   2.358   0.622  0.8518 -0.0352 -0.0035
 8852TIP3    H147971   4.104   2.386   0.544 -0.1720  2.4159  1.4348
 8852TIP3    H247972   4.243   2.375   0.602  0.8567 -1.7342 -1.5687
 8853TIP3   OH247973   4.436   6.302  16.061 -0.0074  0.5486 -0.1903
 8853TIP3    H147974   4.395   6.253  15.990 -0.4954 -0.1868  0.5828
 8853TIP3    H247975   4.367   6.308  16.128  0.5842  0.8532  0.3935
 8854TIP3   OH247976   1.558   5.141  11.713 -0.4113  0.2713  0.1068
 8854TIP3    H147977   1.653   5.141  11.725 -0.5081  0.2341  0.9642
 8854TIP3    H247978   1.525   5.183  11.793 -1.2176 -1.4628  0.7170
 8855TIP3   OH247979   5.040   2.690   5.907  0.5732 -0.1361 -0.2257
 8855TIP3    H147980   5.025   2.596   5.895  0.5875 -0.1786  0.1029
 8855TIP3    H247981   4.993   2.731   5.834  1.4030 -0.4568 -0.9419
 8856TIP3   OH247982   3.934   0.399  13.301  0.5065  0.5176  0.3766
 8856TIP3    H147983   3.904   0.391  13.210  2.2116  1.2493 -0.2804
 8856TIP3    H247984   3.855   0.416  13.351 -0.2609  1.7460 -1.1985
 8857TIP3   OH247985   1.283   6.075   1.977  0.1652 -0.3514  0.0752
 8857TIP3    H147986   1.224   6.036   2.042  0.6228 -0.5858  0.3568
 8857TIP3    H247987   1.363   6.022   1.984  0.7938  0.6414  0.4704
 8858TIP3   OH247988   1.610   1.411  13.121 -0.3400  0.2671  0.6984
 8858TIP3    H147989   1.650   1.385  13.038 -0.8036 -1.7918  1.0917
 8858TIP3    H247990   1.518   1.425  13.099 -0.5535 -0.7065  0.9201
 8859TIP3   OH247991   1.668   2.079  16.124 -0.0675 -0.4596 -0.5209
 8859TIP3    H147992   1.604   2.010  16.144 -0.5464 -0.5045 -2.1748
 8859TIP3    H247993   1.700   2.058  16.037  1.1663  0.3754 -0.2825
 8860TIP3   OH247994   5.697   4.272   6.178  0.5095  0.5219  0.3200
 8860TIP3    H147995   5.763   4.204   6.188 -0.5227 -0.3904  1.0247
 8860TIP3    H247996   5.660   4.282   6.265 -1.3023 -0.0268 -0.3618
 8861TIP3   OH247997   6.089   1.790   0.390  0.0205  0.2324 -0.2244
 8861TIP3    H147998   6.099   1.696   0.406  0.2252  0.4099  0.7234
 8861TIP3    H247999   5.997   1.808   0.411  0.1781  0.3850  0.3467
 8862TIP3   OH248000   2.253   3.981   4.410  0.1150 -0.3200  0.1688
 8862TIP3    H148001   2.298   4.065   4.405 -1.5041  0.5540 -0.2578
 8862TIP3    H248002   2.164   4.000   4.380  0.0106 -2.4081 -0.9091
 8863TIP3   OH248003   6.683   4.237   6.334  0.7803 -0.5868  0.9049
 8863TIP3    H148004   6.592   4.240   6.306  1.3750  0.5007 -1.0001
 8863TIP3    H248005   6.704   4.144   6.338  0.4738 -0.7999 -1.6801
 8864TIP3   OH248006   3.337   6.185  16.027 -0.1657 -0.2329  0.0166
 8864TIP3    H148007   3.312   6.198  15.935 -0.2145 -0.0599  0.0518
 8864TIP3    H248008   3.432   6.172  16.025 -0.0746  0.3998 -0.0015
 8865TIP3   OH248009   0.002   3.998   2.310 -0.4521 -0.4339  0.3154
 8865TIP3    H148010   0.036   4.086   2.290  1.9760 -1.3191  0.4640
 8865TIP3    H248011  -0.084   4.015   2.350 -0.0800  1.8644  0.2358
 8866TIP3   OH248012   6.702   2.602   1.602 -0.4642  0.2038 -0.5000
 8866TIP3    H148013   6.746   2.641   1.527  0.8273  1.2119  0.7717
 8866TIP3    H248014   6.653   2.674   1.642  1.6688  0.5095  1.6641
 8867TIP3   OH248015   4.829   6.555   1.585  0.3628  0.5891 -0.2782
 8867TIP3    H148016   4.795   6.507   1.510 -2.1314  0.1351  1.0745
 8867TIP3    H248017   4.900   6.500   1.619 -1.2135 -1.2612  0.1154
 8868TIP3   OH248018   3.171   0.130  11.484  0.3171 -0.3536  0.4022
 8868TIP3    H148019   3.099   0.085  11.440 -0.4013  0.6051  0.5850
 8868TIP3    H248020   3.249   0.100  11.438 -0.4801  1.3300 -2.1839
 8869TIP3   OH248021   1.221   4.291   2.691 -0.1484 -0.0995  0.2065
 8869TIP3    H148022   1.137   4.331   2.668 -0.3034 -0.1903  0.5946
 8869TIP3    H248023   1.208   4.258   2.780  1.0020  1.9114  1.1537
 8870TIP3   OH248024   6.134   0.583  11.608  0.2096  0.1277 -0.3678
 8870TIP3    H148025   6.131   0.536  11.525 -1.3579  0.1091 -0.3100
 8870TIP3    H248026   6.163   0.518  11.672  0.5381 -0.0852 -0.7329
 8871TIP3   OH248027   2.020   2.040  11.326  0.0374  0.2275  0.4887
 8871TIP3    H148028   2.010   2.089  11.408 -0.5683 -0.4887  0.8606
 8871TIP3    H248029   2.076   1.966  11.350  0.5788  0.4904  0.0397
 8872TIP3   OH248030   6.576   6.636   6.428 -0.0819 -0.0621 -0.1087
 8872TIP3    H148031   6.633   6.713   6.435 -0.5914  0.3580 -0.5767
 8872TIP3    H248032   6.496   6.668   6.388  0.3998 -1.1896 -2.0703
 8873TIP3   OH248033   4.697   6.689  12.302  0.1732  0.2002 -0.3231
 8873TIP3    H148034   4.747   6.620  12.346  1.5965  1.3178 -0.1354
 8873TIP3    H248035   4.648   6.732  12.372  0.7856  0.6071 -0.1364
 8874TIP3   OH248036   1.575   3.749  16.827  0.4784  0.3520  0.1904
 8874TIP3    H148037   1.492   3.789  16.854  0.9502  1.1185  0.5278
 8874TIP3    H248038   1.640   3.818  16.840  1.0084  0.0987 -1.0914
 8875TIP3   OH248039   2.534   5.854  13.088 -0.0247  0.1378  0.0523
 8875TIP3    H148040   2.489   5.934  13.116  0.2006  0.1732  0.3177
 8875TIP3    H248041   2.475   5.783  13.113  0.3964  0.1398  1.0628
 8876TIP3   OH248042   2.347   0.429  16.005  0.3353 -0.0421  0.1214
 8876TIP3    H148043   2.267   0.457  16.050  0.1936  0.4801 -0.4451
 8876TIP3    H248044   2.316   0.380  15.929  0.4942  2.2421 -1.4537
 8877TIP3   OH248045   5.853   4.507  15.406 -0.2100 -0.8534  0.1632
 8877TIP3    H148046   5.830   4.568  15.336  1.6357 -0.3633 -0.0163
 8877TIP3    H248047   5.775   4.451  15.415 -1.2104  0.3380 -0.9090
 8878TIP3   OH248048   5.261   4.029   2.537 -0.2700  0.8187  0.1506
 8878TIP3    H148049   5.232   4.119   2.546 -1.2437  0.7410 -1.8910
 8878TIP3    H248050   5.250   4.009   2.444 -0.3033 -1.4769  0.6029
 8879TIP3   OH248051   0.442   4.937   0.303  0.0071  0.2407 -0.8000
 8879TIP3    H148052   0.398   4.872   0.248 -1.2206 -0.3286  0.8042
 8879TIP3    H248053   0.374   5.003   0.321 -0.9830 -1.8324  3.6243
 8880TIP3   OH248054   6.277   4.153   3.252  0.2793 -0.1693 -0.6119
 8880TIP3    H148055   6.273   4.149   3.347  0.7000  0.8616 -0.5473
 8880TIP3    H248056   6.185   4.160   3.224  0.1618 -0.3854 -0.2830
 8881TIP3   OH248057   1.552   1.207  17.015 -0.7196 -0.1219  0.6454
 8881TIP3    H148058   1.558   1.119  17.052  1.7832 -0.1835  0.2240
 8881TIP3    H248059   1.624   1.255  17.057  2.6398 -0.3600 -4.4436
 8882TIP3   OH248060   4.688   5.674  13.706  0.0211  0.4620  0.0100
 8882TIP3    H148061   4.720   5.757  13.742  2.0816 -0.5539  0.5993
 8882TIP3    H248062   4.651   5.627  13.781 -0.6823  0.6185 -0.2316
 8883TIP3   OH248063   3.160   0.115  16.253 -0.0281  0.1031 -0.3361
 8883TIP3    H148064   3.086   0.058  16.234 -1.6119  1.8094  0.6106
 8883TIP3    H248065   3.210   0.069  16.320 -1.1388 -0.3136  0.2123
 8884TIP3   OH248066   5.169   0.236  13.441 -0.4286 -0.1421  0.7739
 8884TIP3    H148067   5.111   0.193  13.503  0.0798  0.0408  1.3950
 8884TIP3    H248068   5.165   0.183  13.362  0.4910 -1.5700  1.6499
 8885TIP3   OH248069   3.985   2.349   5.236 -0.5337  0.2547 -0.3253
 8885TIP3    H148070   4.074   2.368   5.265  0.2398 -2.5424 -0.6757
 8885TIP3    H248071   3.974   2.402   5.157  0.0744  2.1402  0.8213
 8886TIP3   OH248072   0.811   4.241  16.724 -0.4733 -0.0497  0.4643
 8886TIP3    H148073   0.790   4.159  16.679  0.3144 -0.6147  1.1140
 8886TIP3    H248074   0.765   4.308  16.674  0.6470 -0.6251 -1.3874
 8887TIP3   OH248075   5.582   3.182  11.660 -0.0870  0.3353 -0.4460
 8887TIP3    H148076   5.549   3.112  11.716  0.1596 -0.4959 -1.3294
 8887TIP3    H248077   5.524   3.181  11.584  0.1105  0.8871 -0.6057
 8888TIP3   OH248078   1.460   2.530   1.435  0.8443  0.6798 -0.2787
 8888TIP3    H148079   1.436   2.613   1.475 -0.6721 -0.1267  0.5270
 8888TIP3    H248080   1.463   2.468   1.507  0.8955 -0.2026 -1.0264
 8889TIP3   OH248081   3.115   4.179  12.564  0.4003 -0.2969  0.2831
 8889TIP3    H148082   3.207   4.173  12.538  0.0167  0.7824 -1.3702
 8889TIP3    H248083   3.088   4.266  12.535 -1.0537 -0.4786  1.0745
 8890TIP3   OH248084   0.862   3.380   6.812 -0.1642  0.7583 -0.1258
 8890TIP3    H148085   0.908   3.390   6.729 -2.0141  2.4187 -0.9769
 8890TIP3    H248086   0.923   3.331   6.867  1.6262  0.8095 -2.0066
 8891TIP3   OH248087   2.855   3.510  11.009 -0.1533 -0.3332  0.2855
 8891TIP3    H148088   2.797   3.570  11.056 -0.4844 -0.1403 -0.3628
 8891TIP3    H248089   2.940   3.554  11.010 -0.8734  1.2324 -2.1274
 8892TIP3   OH248090   4.811   0.855  14.659 -0.6941  0.0835  0.0238
 8892TIP3    H148091   4.759   0.816  14.729  0.7027  0.7142  1.4232
 8892TIP3    H248092   4.788   0.948  14.661  0.3712  0.3345  0.5444
 8893TIP3   OH248093   5.028   4.207  15.129 -0.3735 -0.3989  0.9311
 8893TIP3    H148094   4.965   4.199  15.057  0.8460  1.1745 -0.3483
 8893TIP3    H248095   5.075   4.288  15.110  0.6888 -0.5267  2.9513
 8894TIP3   OH248096   6.774   2.226  11.570  0.0613  0.7307 -0.5807
 8894TIP3    H148097   6.767   2.232  11.666  3.2629 -0.1494 -0.2447
 8894TIP3    H248098   6.687   2.199  11.542  0.3547 -4.2333  2.6253
 8895TIP3   OH248099   6.198   0.240  14.375 -0.0501  0.3018 -0.4875
 8895TIP3    H148100   6.146   0.225  14.296 -0.1424 -0.4161 -0.2914
 8895TIP3    H248101   6.286   0.210  14.352  0.3139  1.5903 -0.8484
 8896TIP3   OH248102   1.329   1.561  15.691 -0.6587 -0.1938  0.0788
 8896TIP3    H148103   1.289   1.496  15.748 -0.0622  0.6821  1.5414
 8896TIP3    H248104   1.371   1.623  15.751 -0.5043  1.0770 -1.2940
 8897TIP3   OH248105   5.766   5.374   6.337 -0.0921 -0.0245  0.9334
 8897TIP3    H148106   5.789   5.287   6.369  0.8409 -0.2821 -0.3753
 8897TIP3    H248107   5.673   5.368   6.316  0.1145 -0.9175  0.2318
 8898TIP3   OH248108   0.674   2.751  13.038 -0.0161  0.0558  0.2865
 8898TIP3    H148109   0.590   2.708  13.022  0.0307  0.4646 -1.2220
 8898TIP3    H248110   0.697   2.790  12.953  0.4432  2.1307  1.3255
 8899TIP3   OH248111   0.966   6.387   5.055 -0.5090 -0.5013 -0.5821
 8899TIP3    H148112   0.949   6.476   5.087 -1.8160 -0.1324 -2.2174
 8899TIP3    H248113   0.881   6.358   5.019 -0.3719 -2.7889  0.8270
 8900TIP3   OH248114   5.193   1.454   0.260 -0.3602  0.2281 -0.2617
 8900TIP3    H148115   5.137   1.447   0.182  0.7405  0.5065 -1.0838
 8900TIP3    H248116   5.277   1.416   0.233 -0.4765 -1.1946  1.3006
 8901TIP3   OH248117   0.237   0.639   5.895  0.0506 -0.2818  0.0166
 8901TIP3    H148118   0.270   0.722   5.928 -0.2950 -0.2229  0.2119
 8901TIP3    H248119   0.160   0.662   5.843 -1.1102 -0.6487  1.5511
 8902TIP3   OH248120   0.748   6.104  14.994 -0.0313 -0.1495  0.3592
 8902TIP3    H148121   0.793   6.049  14.930 -2.4873 -1.2550 -0.4697
 8902TIP3    H248122   0.768   6.194  14.968 -0.9619 -0.5931 -1.9309
 8903TIP3   OH248123   2.456   2.865  11.242  0.1452  0.4854  0.1051
 8903TIP3    H148124   2.538   2.864  11.193  1.3125 -0.6074  2.0281
 8903TIP3    H248125   2.404   2.795  11.202  0.4111  0.7248 -0.6717
 8904TIP3   OH248126   3.035   1.173   1.815  0.2010 -0.0170 -0.4608
 8904TIP3    H148127   2.949   1.213   1.810 -0.0855 -0.6976 -1.1892
 8904TIP3    H248128   3.037   1.129   1.900 -0.1948 -0.0552 -0.4710
 8905TIP3   OH248129   2.659   4.778  14.309 -1.0370 -0.5165  0.5129
 8905TIP3    H148130   2.604   4.789  14.386 -0.2427 -0.7679  1.1129
 8905TIP3    H248131   2.667   4.684  14.298  1.5446 -0.5243  2.0629
 8906TIP3   OH248132   5.567   2.988   2.811  0.2079  0.0078 -0.1519
 8906TIP3    H148133   5.646   2.966   2.762  1.0588  2.6113 -0.0345
 8906TIP3    H248134   5.527   2.904   2.832  3.2712 -1.4043  0.3172
 8907TIP3   OH248135   0.678   3.147  15.450  0.1127  0.0835  0.2210
 8907TIP3    H148136   0.755   3.113  15.496 -0.8688 -0.7843  1.2180
 8907TIP3    H248137   0.621   3.180  15.519 -0.6905  0.1593 -0.4756
 8908TIP3   OH248138   2.632   4.118  14.250 -0.0677  0.0992 -0.0003
 8908TIP3    H148139   2.601   4.032  14.277 -0.6527  0.3091  0.0129
 8908TIP3    H248140   2.598   4.129  14.161  0.0865  0.2771 -0.0394
 8909TIP3   OH248141   4.846   4.404   4.058 -0.3631 -0.6056 -0.8449
 8909TIP3    H148142   4.934   4.369   4.070 -0.1368  0.3122  0.2724
 8909TIP3    H248143   4.812   4.359   3.982  0.3624 -2.3877 -0.1311
 8910TIP3   OH248144   1.997   3.134   0.050  0.3602  0.6787  0.4857
 8910TIP3    H148145   2.049   3.154  -0.028 -1.2372  0.1214 -0.7313
 8910TIP3    H248146   1.907   3.157   0.027 -0.5309 -1.8761  1.2529
 8911TIP3   OH248147   2.937   0.002   0.411 -0.5575  0.0334 -0.3155
 8911TIP3    H148148   2.863   0.058   0.386 -0.5575  0.0251 -0.3335
 8911TIP3    H248149   3.003   0.063   0.444 -0.4755  0.0626 -0.5342
 8912TIP3   OH248150   2.323   4.119   4.677 -0.1072  0.4333 -0.2689
 8912TIP3    H148151   2.398   4.171   4.706  0.1108 -0.3595  0.6312
 8912TIP3    H248152   2.250   4.150   4.731 -0.8085  2.2712 -2.1938
 8913TIP3   OH248153   1.833   0.456  12.709 -0.0853  0.0447  0.1668
 8913TIP3    H148154   1.880   0.473  12.790  1.2482  0.2434 -0.6336
 8913TIP3    H248155   1.870   0.374  12.676 -1.4730 -0.6767  0.3678
 8914TIP3   OH248156   4.489   6.660   1.649  0.4406  0.6596 -0.1087
 8914TIP3    H148157   4.435   6.737   1.630  1.6882  0.8026 -3.3710
 8914TIP3    H248158   4.560   6.693   1.704  0.4058  1.6451 -0.6538
 8915TIP3   OH248159   3.507   5.930  11.461 -0.0862 -0.4912 -0.2600
 8915TIP3    H148160   3.560   5.878  11.400 -2.0388 -1.0198 -1.5276
 8915TIP3    H248161   3.520   5.888  11.546 -0.1071 -1.8740 -0.9268
 8916TIP3   OH248162   6.643   2.107   6.292  0.0863  0.0578  0.1542
 8916TIP3    H148163   6.641   2.203   6.286 -1.9652  0.0274  0.0312
 8916TIP3    H248164   6.551   2.081   6.287  0.7229 -2.0201 -1.4287
 8917TIP3   OH248165   5.969   2.642  13.321 -0.3592  0.0585 -0.2300
 8917TIP3    H148166   5.903   2.595  13.269  1.5632 -2.4305 -0.5068
 8917TIP3    H248167   5.947   2.620  13.412  0.3665 -1.2074 -0.3470
 8918TIP3   OH248168   2.839   0.191  11.954 -0.0983 -0.3058 -0.2974
 8918TIP3    H148169   2.805   0.125  12.014 -0.5239  0.4398  0.2933
 8918TIP3    H248170   2.779   0.188  11.879 -0.2909 -0.3968 -0.1398
 8919TIP3   OH248171   6.567   0.557  14.024  0.2844  0.7339  0.3248
 8919TIP3    H148172   6.600   0.600  14.102  0.8251  1.7073 -0.4233
 8919TIP3    H248173   6.522   0.627  13.976 -1.5710 -0.2293  0.5978
 8920TIP3   OH248174   2.745   3.149  16.281  0.2952  0.2502  0.5220
 8920TIP3    H148175   2.738   3.153  16.185  1.0019 -1.6665  0.3809
 8920TIP3    H248176   2.816   3.209  16.302  0.5740  0.1899 -0.2207
 8921TIP3   OH248177   6.280   1.721  17.208  0.2734 -0.3766 -0.6911
 8921TIP3    H148178   6.313   1.740  17.120  1.2470 -0.7802 -0.4161
 8921TIP3    H248179   6.282   1.805  17.254  0.7228 -0.3587 -0.7413
 8922TIP3   OH248180   2.919   0.750   4.099 -0.5549  0.0456  0.0417
 8922TIP3    H148181   2.959   0.801   4.168 -1.0649  0.7794 -0.2020
 8922TIP3    H248182   2.956   0.662   4.109  0.0506  0.3742  0.6746
 8923TIP3   OH248183   6.275   6.366  11.922 -0.1234  0.1004 -0.2584
 8923TIP3    H148184   6.252   6.277  11.895  1.0901  0.2036 -1.7180
 8923TIP3    H248185   6.193   6.415  11.913 -0.5061 -0.5991 -0.6344
 8924TIP3   OH248186   3.545   0.851  14.903 -0.0692 -0.4048  0.7224
 8924TIP3    H148187   3.629   0.868  14.862 -0.2511  0.0667  0.5443
 8924TIP3    H248188   3.514   0.937  14.932 -1.5134 -0.2548 -1.2104
 8925TIP3   OH248189   0.368   6.379  15.715 -0.0462  0.8212  0.3380
 8925TIP3    H148190   0.311   6.455  15.707 -0.0531  0.6217 -1.7697
 8925TIP3    H248191   0.383   6.351  15.625  0.6033 -1.1914  1.0510
 8926TIP3   OH248192   6.428   1.766   4.461 -0.2983 -0.5882 -0.5297
 8926TIP3    H148193   6.398   1.734   4.376  0.7738 -1.9957 -0.3904
 8926TIP3    H248194   6.478   1.693   4.498 -1.0629 -0.1234  1.4722
 8927TIP3   OH248195   5.984   4.643   1.787 -0.1922 -0.3352 -0.4691
 8927TIP3    H148196   5.969   4.672   1.698 -0.3237 -0.2474 -0.4186
 8927TIP3    H248197   5.896   4.625   1.822 -0.2095  0.4832 -0.0690
 8928TIP3   OH248198   6.171   0.438   0.361  0.3542  0.0149 -0.1411
 8928TIP3    H148199   6.113   0.366   0.387 -0.0009 -0.0454 -1.0799
 8928TIP3    H248200   6.259   0.405   0.378  0.2235 -0.9175 -1.2273
 8929TIP3   OH248201   0.037   4.139   0.952  0.1134  0.1353 -0.6764
 8929TIP3    H148202   0.019   4.216   0.898  1.7276  1.1191  0.1366
 8929TIP3    H248203   0.122   4.158   0.993 -0.0270 -1.5659  0.4565
 8930TIP3   OH248204   1.646   1.143  11.273  0.0530 -0.0564  0.4248
 8930TIP3    H148205   1.657   1.104  11.359 -0.3242 -0.3758  0.3310
 8930TIP3    H248206   1.700   1.089  11.215  0.4355  0.2578  0.4905
 8931TIP3   OH248207   0.922   2.581   3.960 -0.0370 -0.3328 -0.2326
 8931TIP3    H148208   0.939   2.601   3.868  0.7160 -0.8118 -0.1951
 8931TIP3    H248209   0.907   2.487   3.962  2.2606 -0.7003  0.4740
 8932TIP3   OH248210   6.403   1.443  14.429  0.1921 -0.6300 -0.0232
 8932TIP3    H148211   6.468   1.484  14.486  0.1303  1.0020 -1.1108
 8932TIP3    H248212   6.319   1.478  14.460  0.0965 -0.3092 -0.6464
 8933TIP3   OH248213   6.716   5.135   1.993 -0.1795 -0.2735 -0.2332
 8933TIP3    H148214   6.724   5.186   1.913 -0.9521 -0.4690 -0.4418
 8933TIP3    H248215   6.621   5.128   2.008 -0.0670 -1.0191  0.1850
 8934TIP3   OH248216   5.938   5.780  15.130 -0.0870  0.2106 -0.3301
 8934TIP3    H148217   6.031   5.789  15.149 -0.4782 -1.7279  2.8949
 8934TIP3    H248218   5.929   5.691  15.096 -0.5794  0.8922 -2.0255
 8935TIP3   OH248219   6.665   2.844  14.591 -0.1080 -0.2468 -0.2075
 8935TIP3    H148220   6.719   2.797  14.655 -2.6978 -0.7618  1.6778
 8935TIP3    H248221   6.672   2.793  14.511  1.6292 -0.6920  0.2114
 8936TIP3   OH248222   2.386   1.028   4.480 -0.3125 -0.7423 -0.4091
 8936TIP3    H148223   2.447   1.100   4.466 -0.9821  0.0202  0.5248
 8936TIP3    H248224   2.413   0.960   4.418  1.0424 -0.1395 -0.4768
 8937TIP3   OH248225   0.718   1.241   0.526  0.5106 -0.0971  0.5258
 8937TIP3    H148226   0.631   1.228   0.564  0.5662 -0.9068  0.3814
 8937TIP3    H248227   0.712   1.325   0.481 -0.3864 -0.4353 -0.0053
 8938TIP3   OH248228   6.596   5.130  14.676 -0.0389 -0.2885  0.5345
 8938TIP3    H148229   6.619   5.212  14.720  1.2706 -0.7977  0.8222
 8938TIP3    H248230   6.569   5.072  14.747  2.7307 -1.3330  0.8029
 8939TIP3   OH248231   5.141   5.346  12.005 -0.2890  0.1925 -0.5009
 8939TIP3    H148232   5.185   5.300  12.076 -2.0462 -0.2284  0.3591
 8939TIP3    H248233   5.209   5.362  11.940  0.5155 -3.0512 -0.5487
 8940TIP3   OH248234   2.955   6.626   4.776  0.6076  0.4575  0.4065
 8940TIP3    H148235   3.013   6.583   4.840  1.6373 -0.5784 -1.1860
 8940TIP3    H248236   2.928   6.556   4.717  0.7826  1.6410 -1.1169
 8941TIP3   OH248237   4.804   1.354  11.309 -0.2139  0.3829  0.3154
 8941TIP3    H148238   4.817   1.284  11.373 -0.3418  0.1736  0.1128
 8941TIP3    H248239   4.781   1.431  11.362 -0.2016  0.2400  0.5283
 8942TIP3   OH248240   3.131   3.529  14.831  0.4094 -0.0431  0.1964
 8942TIP3    H148241   3.084   3.466  14.885 -0.1573  0.7440  0.6348
 8942TIP3    H248242   3.071   3.549  14.760  0.3590  0.4310  0.3712
 8943TIP3   OH248243   6.591   2.310   2.368 -0.1941 -0.4281 -0.7437
 8943TIP3    H148244   6.541   2.361   2.431 -1.2060 -0.8020 -1.2257
 8943TIP3    H248245   6.680   2.308   2.404 -0.6416 -0.2156  0.4082
 8944TIP3   OH248246   2.601   4.151   2.022 -0.5895 -0.2415 -0.0338
 8944TIP3    H148247   2.690   4.170   2.051 -0.1838 -1.0097 -0.7468
 8944TIP3    H248248   2.578   4.070   2.067 -0.6186 -0.4837 -0.4801
 8945TIP3   OH248249   5.844   3.597  15.805 -0.3489  0.5307  0.1150
 8945TIP3    H148250   5.882   3.682  15.830  2.5336 -0.8761  0.7363
 8945TIP3    H248251   5.854   3.543  15.883  1.1798 -1.4493 -1.3872
 8946TIP3   OH248252   4.901   1.174   0.341 -0.7156 -0.1804  0.0508
 8946TIP3    H148253   4.914   1.251   0.397 -1.6730 -0.7093  1.0275
 8946TIP3    H248254   4.955   1.106   0.381 -2.1763 -0.8460  0.9484
 8947TIP3   OH248255   3.402   5.445   1.205  0.6040 -0.3752  0.0844
 8947TIP3    H148256   3.334   5.394   1.250 -1.3034  0.2813 -1.9884
 8947TIP3    H248257   3.356   5.520   1.168  2.7625  0.9639  0.0141
 8948TIP3   OH248258   6.699   0.125   6.506  0.5341 -0.4174 -0.3553
 8948TIP3    H148259   6.776   0.182   6.510  1.0619 -0.9084 -2.5752
 8948TIP3    H248260   6.626   0.181   6.534  1.0248  1.4293 -2.5431
 8949TIP3   OH248261   2.625   6.487  15.404  0.3042 -0.2567  0.2163
 8949TIP3    H148262   2.719   6.504  15.406  0.3483 -0.2914 -1.2106
 8949TIP3    H248263   2.612   6.429  15.330 -0.8210 -0.4239  0.5290
 8950TIP3   OH248264   3.128   6.591   2.220 -0.1285 -0.0184 -0.8706
 8950TIP3    H148265   3.105   6.534   2.294  1.6105  1.7793  1.1158
 8950TIP3    H248266   3.062   6.571   2.153 -1.2318 -2.3080  0.8153
 8951TIP3   OH248267   2.291   0.683  15.378  0.2842 -0.4217 -0.6881
 8951TIP3    H148268   2.217   0.630  15.410  0.8581 -0.7962  0.0393
 8951TIP3    H248269   2.347   0.620  15.334  0.1042 -0.1110 -1.3616
 8952TIP3   OH248270   1.243   5.974  14.603 -0.2700 -0.1735  0.3772
 8952TIP3    H148271   1.302   6.041  14.639 -0.2359  0.2388 -0.4175
 8952TIP3    H248272   1.296   5.895  14.601 -0.5180 -0.3883  1.9419
 8953TIP3   OH248273   6.786   6.657   1.274 -0.2538 -0.4231 -0.4800
 8953TIP3    H148274   6.842   6.601   1.220 -0.9600 -0.0906 -1.5861
 8953TIP3    H248275   6.779   6.611   1.357  0.5682 -1.1297 -0.7924
 8954TIP3   OH248276   5.331   5.985  11.436  0.0202  0.0983  0.2642
 8954TIP3    H148277   5.365   5.948  11.355  2.0551 -1.0951  1.6127
 8954TIP3    H248278   5.239   5.960  11.437 -0.0622  0.2644 -1.7355
 8955TIP3   OH248279   4.328   1.316  17.067 -0.2211  0.2142  0.0301
 8955TIP3    H148280   4.246   1.361  17.089  0.2210  1.3403 -0.5916
 8955TIP3    H248281   4.395   1.384  17.071  0.4059 -0.3100 -1.2338
 8956TIP3   OH248282   5.462   6.036  11.670 -0.1864 -0.0053 -0.0499
 8956TIP3    H148283   5.464   6.023  11.575 -1.1162 -1.3605  0.1005
 8956TIP3    H248284   5.524   5.973  11.705 -1.0811 -0.6790  0.3498
 8957TIP3   OH248285   5.179   0.097  15.261 -0.3959  0.2154 -0.1831
 8957TIP3    H148286   5.148   0.069  15.175 -0.7903  0.2010 -0.0370
 8957TIP3    H248287   5.222   0.180  15.245 -0.7967  0.3958 -0.3407
 8958TIP3   OH248288   1.341   3.588   0.681 -0.1241 -0.0190  0.9088
 8958TIP3    H148289   1.426   3.598   0.638  0.6747  1.0341  2.6584
 8958TIP3    H248290   1.286   3.657   0.643  0.3254  0.3656  0.9491
 8959TIP3   OH248291   5.831   4.398  15.141  0.4040 -0.1561  0.0747
 8959TIP3    H148292   5.793   4.482  15.167 -0.8873 -0.2415 -1.4261
 8959TIP3    H248293   5.757   4.338  15.139  0.9193 -0.7790 -1.0910
 8960TIP3   OH248294   1.102   4.509  13.054  0.1706  0.1298 -0.1775
 8960TIP3    H148295   1.149   4.526  12.973 -0.2145  1.1135 -0.1984
 8960TIP3    H248296   1.027   4.567  13.051 -0.6083 -0.8396  0.2413
 8961TIP3   OH248297   6.461   1.766  12.382  0.0429 -0.0039 -0.4887
 8961TIP3    H148298   6.454   1.783  12.288  1.5194  0.4968 -0.5314
 8961TIP3    H248299   6.478   1.672  12.388  1.2972  0.1906 -0.8173
 8962TIP3   OH248300   2.291   1.478   3.519 -0.6953 -0.1828  0.6744
 8962TIP3    H148301   2.319   1.457   3.430 -2.6608  2.8015 -0.7205
 8962TIP3    H248302   2.356   1.541   3.551 -1.1322  0.3493  0.5371
 8963TIP3   OH248303   3.134   3.907  12.203  0.7800 -0.4828  0.3171
 8963TIP3    H148304   3.198   3.960  12.250  1.3672 -1.2189  0.3640
 8963TIP3    H248305   3.071   3.970  12.167  0.1529  0.0721  2.3389
 8964TIP3   OH248306   2.205   6.257   1.083  0.5032 -0.0941  0.4466
 8964TIP3    H148307   2.289   6.236   1.124  0.0404  0.1409  1.5154
 8964TIP3    H248308   2.218   6.345   1.046  1.4501 -0.9787 -1.3589
 8965TIP3   OH248309   3.137   4.328  16.107 -0.1477 -0.0830  0.0447
 8965TIP3    H148310   3.170   4.411  16.073 -2.3016  0.2828 -1.2556
 8965TIP3    H248311   3.130   4.342  16.202 -0.1888  1.1082 -0.1233
 8966TIP3   OH248312   2.653   5.092   0.945 -0.3870  0.9998  0.0015
 8966TIP3    H148313   2.582   5.045   0.989 -0.9565  0.3835 -1.5387
 8966TIP3    H248314   2.611   5.134   0.869  0.3497  2.9880  0.6468
 8967TIP3   OH248315   3.408   3.238  16.674 -0.2192 -0.5203  0.4163
 8967TIP3    H148316   3.364   3.159  16.642 -0.8301 -0.8659  2.0905
 8967TIP3    H248317   3.337   3.294  16.706  0.2225  0.6536 -0.6198
 8968TIP3   OH248318   0.876   0.176  10.294 -0.3277  0.2976 -0.0722
 8968TIP3    H148319   0.845   0.263  10.268 -1.5230 -0.3640 -0.9008
 8968TIP3    H248320   0.797   0.130  10.323  0.5829  0.1328  2.2803
 8969TIP3   OH248321   5.298   3.632   3.424  0.4016  0.3055 -0.1907
 8969TIP3    H148322   5.295   3.717   3.379  0.3369 -1.2492 -3.2135
 8969TIP3    H248323   5.340   3.573   3.361 -0.0797 -2.0499  1.6476
 8970TIP3   OH248324   1.164   6.393   2.946  1.1074  0.1702  0.0101
 8970TIP3    H148325   1.211   6.420   3.025  0.7089  0.8476  0.0195
 8970TIP3    H248326   1.075   6.378   2.976  1.0968 -0.1662 -0.1947
 8971TIP3   OH248327   1.350   1.203  11.785 -0.3537  0.3584 -0.0530
 8971TIP3    H148328   1.405   1.244  11.717 -0.6746 -1.4391 -1.4486
 8971TIP3    H248329   1.329   1.116  11.749 -2.2017  0.1423  1.4825
 8972TIP3   OH248330   5.938   3.743  12.048  0.1418  0.1293  0.4010
 8972TIP3    H148331   6.003   3.813  12.055  1.1290 -0.5608 -1.5792
 8972TIP3    H248332   5.964   3.680  12.116  2.0106 -0.4868 -0.8432
 8973TIP3   OH248333   4.728   5.306   2.032  0.4994  0.3716 -0.0922
 8973TIP3    H148334   4.676   5.332   1.955 -0.1292  2.2929  0.9557
 8973TIP3    H248335   4.809   5.271   1.995 -0.0581  0.6933 -1.6652
 8974TIP3   OH248336   6.011   6.574  14.853  0.0528 -0.4841 -0.1050
 8974TIP3    H148337   6.002   6.666  14.829 -2.9095 -0.6472  0.2759
 8974TIP3    H248338   6.012   6.574  14.949 -0.7318 -0.9195 -0.0960
 8975TIP3   OH248339   2.901   4.109   5.521 -0.2797 -0.4312 -0.4412
 8975TIP3    H148340   2.931   4.093   5.431 -1.0542  2.6877 -1.3231
 8975TIP3    H248341   2.841   4.183   5.513 -1.3925 -0.9642  2.4972
 8976TIP3   OH248342   2.117   6.262  12.278  0.6963  0.3752  0.0304
 8976TIP3    H148343   2.189   6.199  12.270  0.7708  0.5837 -1.0488
 8976TIP3    H248344   2.128   6.320  12.203  1.2103  2.2894  1.5413
 8977TIP3   OH248345   6.234   2.519  14.280 -0.5407 -0.3926 -0.3674
 8977TIP3    H148346   6.320   2.483  14.258 -0.8314 -1.5159  0.3066
 8977TIP3    H248347   6.186   2.518  14.198 -0.1819 -0.5242 -0.5788
 8978TIP3   OH248348   2.296   1.874  16.929  0.4848 -0.0965  0.4099
 8978TIP3    H148349   2.277   1.964  16.902  1.5938 -0.1915 -0.6965
 8978TIP3    H248350   2.361   1.843  16.867 -1.4614 -2.4196 -0.5709
 8979TIP3   OH248351   5.418   2.686  16.164  0.1748 -0.0728 -0.2917
 8979TIP3    H148352   5.493   2.704  16.107  0.0104 -1.3993 -0.9723
 8979TIP3    H248353   5.423   2.591  16.178 -0.7646  0.0026  0.5333
 8980TIP3   OH248354   0.492   5.388   3.591  0.3923 -0.2722  0.7274
 8980TIP3    H148355   0.479   5.304   3.636  0.9574 -0.6334  0.2221
 8980TIP3    H248356   0.479   5.369   3.499  2.4603 -0.2324  0.4065
 8981TIP3   OH248357   4.133   2.383   2.702 -0.5675 -0.5080 -0.5986
 8981TIP3    H148358   4.225   2.377   2.677 -0.9855 -0.2896 -2.3106
 8981TIP3    H248359   4.095   2.299   2.675 -0.6986 -0.9290  0.8731
 8982TIP3   OH248360   1.734   2.491   1.033 -0.1665 -0.9634  0.0832
 8982TIP3    H148361   1.807   2.501   1.094 -1.1644 -2.5845  1.6029
 8982TIP3    H248362   1.750   2.556   0.965  1.5716  0.1368  1.5012
 8983TIP3   OH248363   3.187   5.953   5.524 -0.2042  0.6299 -0.2288
 8983TIP3    H148364   3.282   5.963   5.523  0.1327 -2.0469 -0.3672
 8983TIP3    H248365   3.169   5.891   5.454 -1.8547 -0.2991  0.9741
 8984TIP3   OH248366   0.222   5.224  13.659  0.1832  0.3076  0.7775
 8984TIP3    H148367   0.200   5.302  13.711  1.1898  0.2825  1.2487
 8984TIP3    H248368   0.273   5.169  13.718 -1.6826 -1.3499  0.8880
 8985TIP3   OH248369   6.051   4.189   3.110 -0.9300 -0.1362 -0.3640
 8985TIP3    H148370   6.069   4.165   3.019 -1.1130 -0.4248 -0.3261
 8985TIP3    H248371   5.969   4.143   3.131  0.2435 -1.8504  0.6152
 8986TIP3   OH248372   6.659   1.622   5.267  0.3681  0.0053  0.0857
 8986TIP3    H148373   6.698   1.590   5.186  0.3988  0.1559  0.0386
 8986TIP3    H248374   6.623   1.708   5.244 -0.1687 -0.2199  0.0780
 8987TIP3   OH248375   2.129   1.394  13.464 -0.2563 -0.0370  0.3303
 8987TIP3    H148376   2.044   1.403  13.422 -0.6033 -1.7367  0.6211
 8987TIP3    H248377   2.135   1.301  13.486  2.6519 -0.4010 -1.7671
 8988TIP3   OH248378   0.117   5.460  14.689 -0.0626  0.4357  0.2263
 8988TIP3    H148379   0.168   5.507  14.755 -0.7994  0.0429  1.0938
 8988TIP3    H248380   0.035   5.509  14.682 -0.2378  0.1250  0.0685
 8989TIP3   OH248381   0.599   4.674  12.219  0.3118 -0.7233  0.1397
 8989TIP3    H148382   0.543   4.618  12.165 -1.3331  0.7358  0.2952
 8989TIP3    H248383   0.666   4.706  12.158 -0.3934 -0.6259 -0.5985
 8990TIP3   OH248384   1.713   1.650  14.859  0.5654  0.1138 -0.5002
 8990TIP3    H148385   1.693   1.557  14.859  1.3021 -0.0692  1.8056
 8990TIP3    H248386   1.807   1.655  14.847  0.8035  0.4759  1.4659
 8991TIP3   OH248387   4.157   5.752  17.119 -0.5121 -0.7406  0.0529
 8991TIP3    H148388   4.132   5.805  17.195 -0.1727  1.2105 -1.1717
 8991TIP3    H248389   4.252   5.740  17.129 -0.5005 -0.6674  0.0239
 8992TIP3   OH248390   1.416   3.312  16.990 -0.6653 -0.4709 -0.0453
 8992TIP3    H148391   1.483   3.285  16.928 -1.0033 -0.7181 -0.3116
 8992TIP3    H248392   1.334   3.309  16.939 -0.7011  1.1853 -0.1102
 8993TIP3   OH248393   1.790   6.727  15.116  0.8003  0.1987 -0.5263
 8993TIP3    H148394   1.779   6.793  15.186  0.5796 -0.6220  0.2198
 8993TIP3    H248395   1.702   6.711  15.084  0.4136 -2.2491  1.6378
 8994TIP3   OH248396   4.969   3.411  13.212  0.8003  0.6020 -0.1597
 8994TIP3    H148397   4.920   3.346  13.162 -0.0521  1.2554 -0.1802
 8994TIP3    H248398   5.034   3.444  13.151  0.4882  0.5964 -0.4969
 8995TIP3   OH248399   5.112   3.969  12.675 -0.1971 -0.4955 -0.7500
 8995TIP3    H148400   5.131   4.003  12.588 -0.0839 -0.4535 -0.7111
 8995TIP3    H248401   5.017   3.963  12.680 -0.2061 -0.4279 -0.8499
 8996TIP3   OH248402   1.707   2.266  17.084 -0.1773  0.0086 -0.6475
 8996TIP3    H148403   1.784   2.307  17.046  0.8374 -1.3140 -0.0810
 8996TIP3    H248404   1.653   2.242  17.008 -0.2972  1.4075 -1.0211
 8997TIP3   OH248405   4.635   2.206   3.015  0.5085 -0.5318  0.0476
 8997TIP3    H148406   4.545   2.191   3.044  0.5567  1.7062  1.4563
 8997TIP3    H248407   4.662   2.286   3.060  2.8091 -0.5195 -1.2736
 8998TIP3   OH248408   2.303   3.912  16.676  0.0544 -0.0444  0.2736
 8998TIP3    H148409   2.244   3.943  16.744 -0.0236 -0.6188  0.4647
 8998TIP3    H248410   2.249   3.910  16.597  0.3018  1.2095  0.0548
 8999TIP3   OH248411   4.991   1.260  13.547  0.1340  0.2698 -0.5047
 8999TIP3    H148412   5.013   1.190  13.485  0.9385  0.6124 -0.6117
 8999TIP3    H248413   4.999   1.219  13.633  0.4979  0.1991 -0.5719
 9000TIP3   OH248414   5.119   5.386   3.344  0.2055  0.4097  0.0332
 9000TIP3    H148415   5.113   5.415   3.253 -0.1560 -2.2430 -0.8596
 9000TIP3    H248416   5.166   5.455   3.390 -0.8760  2.4409 -1.8773
 9001TIP3   OH248417   1.840   5.275  16.138  0.4307 -0.0702  0.1311
 9001TIP3    H148418   1.871   5.363  16.160  0.2634  0.4019 -1.4522
 9001TIP3    H248419   1.821   5.235  16.223  2.4697  0.6882  0.9977
 9002TIP3   OH248420   1.561   2.142  16.468 -0.2585  0.1887 -0.6990
 9002TIP3    H148421   1.519   2.197  16.533  0.1524  0.8456 -0.9750
 9002TIP3    H248422   1.492   2.085  16.435 -0.8877  1.1143 -1.0051
 9003TIP3   OH248423   2.397   4.689  15.022  0.2589  0.2441  0.1706
 9003TIP3    H148424   2.416   4.781  15.004  2.9092 -0.6958 -2.1417
 9003TIP3    H248425   2.331   4.665  14.956  1.0410 -0.0135 -0.5283
 9004TIP3   OH248426   2.375   6.191   3.076  0.1472  0.3542 -0.5270
 9004TIP3    H148427   2.418   6.277   3.076  0.8383  0.0143  0.2309
 9004TIP3    H248428   2.282   6.211   3.072  0.3030  1.1411 -0.4103
 9005TIP3   OH248429   2.790   0.955  11.212 -0.1120  1.0373 -0.8279
 9005TIP3    H148430   2.701   0.956  11.179  0.1955  0.8090 -1.6877
 9005TIP3    H248431   2.798   1.035  11.265 -0.9887  0.7675 -0.2852
 9006TIP3   OH248432   3.985   1.996   0.164 -0.1108 -0.1932  0.3626
 9006TIP3    H148433   3.975   1.924   0.226  1.2669 -0.5479  0.2031
 9006TIP3    H248434   4.080   2.000   0.147 -0.3761  0.4069 -1.0976
 9007TIP3   OH248435   0.393   0.565   5.106  0.5763 -0.4334 -0.5369
 9007TIP3    H148436   0.479   0.561   5.147 -0.4615  0.9401  1.8390
 9007TIP3    H248437   0.398   0.639   5.046  1.8321 -1.9377 -2.3506
 9008TIP3   OH248438   5.070   1.989  15.248  0.5210 -0.2261  0.2283
 9008TIP3    H148439   5.102   1.933  15.320 -0.4975 -0.1864  0.7134
 9008TIP3    H248440   4.975   1.992  15.260  0.2900 -0.6257 -1.4247
 9009TIP3   OH248441   4.647   5.396  15.239 -0.1753 -0.2901 -0.4867
 9009TIP3    H148442   4.554   5.378  15.223 -0.1854  0.1517 -0.9302
 9009TIP3    H248443   4.693   5.328  15.191 -0.2279  0.4849 -1.6454
 9010TIP3   OH248444   1.381   2.038   0.956  0.3174 -0.0423  0.1232
 9010TIP3    H148445   1.364   2.094   0.880 -1.1077 -0.9101 -0.2226
 9010TIP3    H248446   1.324   2.072   1.024 -1.3810 -1.7186 -0.4186
 9011TIP3   OH248447   0.712   1.535  12.901 -0.6446 -0.1419 -0.6854
 9011TIP3    H148448   0.699   1.627  12.881 -3.0583 -0.0993  0.8820
 9011TIP3    H248449   0.752   1.534  12.988 -1.5213 -0.5676 -0.2736
 9012TIP3   OH248450   1.147   2.788   2.481 -0.5748 -0.4843 -0.9059
 9012TIP3    H148451   1.211   2.721   2.504 -1.1132 -0.2570  1.3375
 9012TIP3    H248452   1.196   2.851   2.428  1.4896  0.4745  2.0364
 9013TIP3   OH248453   0.502   1.270   3.590  0.0414  0.0502 -0.3055
 9013TIP3    H148454   0.591   1.305   3.599  0.2105 -0.5291  0.3174
 9013TIP3    H248455   0.488   1.263   3.495 -0.1448  2.1749 -0.4587
 9014TIP3   OH248456   2.251   4.434  16.209  0.5924 -0.1191 -0.2022
 9014TIP3    H148457   2.176   4.419  16.267 -1.2392  0.1532 -2.4186
 9014TIP3    H248458   2.308   4.492  16.259 -1.1975  0.5426  1.1477
 9015TIP3   OH248459   5.731   6.167  16.884  0.4824 -0.4854  0.1738
 9015TIP3    H148460   5.795   6.100  16.856 -1.1607 -1.8954 -0.3201
 9015TIP3    H248461   5.721   6.152  16.978  0.7736 -0.3680  0.2212
 9016TIP3   OH248462   6.530   5.673   1.094 -0.3032 -0.5657 -0.4166
 9016TIP3    H148463   6.444   5.708   1.117 -0.5110 -0.8717 -0.7255
 9016TIP3    H248464   6.556   5.622   1.171 -0.9021 -1.4086 -0.7694
 9017TIP3   OH248465   2.114   3.768   1.514 -0.6930 -0.2452  0.1799
 9017TIP3    H148466   2.162   3.690   1.542  0.5882  1.0657  1.6886
 9017TIP3    H248467   2.146   3.785   1.425  1.8943  0.7797  1.2677
 9018TIP3   OH248468   3.218   6.751   6.471 -0.4338 -0.5250  0.3055
 9018TIP3    H148469   3.269   6.813   6.522 -1.5315 -0.3921  1.2560
 9018TIP3    H248470   3.229   6.779   6.380  1.0803 -0.4382  0.4994
 9019TIP3   OH248471   2.557   6.480   4.750 -0.9892  0.2107 -0.3579
 9019TIP3    H148472   2.544   6.471   4.656 -0.5525 -1.8853 -0.2389
 9019TIP3    H248473   2.496   6.417   4.789  1.3733 -1.5714  0.6122
 9020TIP3   OH248474   0.431   3.335  12.439 -0.2784 -0.2099 -0.3248
 9020TIP3    H148475   0.427   3.327  12.344 -1.5000  1.4779 -0.4501
 9020TIP3    H248476   0.340   3.323  12.467 -0.2715  1.3048  0.4222
 9021TIP3   OH248477   4.194   6.108  10.398  0.0797 -0.1382  0.5109
 9021TIP3    H148478   4.241   6.060  10.467  0.9561  0.5931  0.4381
 9021TIP3    H248479   4.135   6.043  10.360 -0.8220 -0.4027  2.3200
 9022TIP3   OH248480   3.150   6.328  11.907 -0.1013 -0.4366 -0.0034
 9022TIP3    H148481   3.199   6.344  11.826 -0.7143  0.2902 -0.2320
 9022TIP3    H248482   3.079   6.392  11.905 -0.1141 -0.4084  1.1160
 9023TIP3   OH248483   1.791   6.034   1.886  0.1587  0.0700  0.1042
 9023TIP3    H148484   1.846   6.055   1.962  0.2818 -0.4448  0.1589
 9023TIP3    H248485   1.814   5.943   1.865  0.7513  0.4877 -1.0730
 9024TIP3   OH248486   1.121   0.098  14.535 -0.4086  0.0080  0.4680
 9024TIP3    H148487   1.214   0.077  14.543 -0.2916  0.8802  1.5176
 9024TIP3    H248488   1.116   0.153  14.456 -0.5216 -2.6850 -1.4704
 9025TIP3   OH248489   0.422   1.705  14.018 -0.1794 -0.3922  0.2113
 9025TIP3    H148490   0.440   1.784  14.069  0.2591 -1.5612  1.9038
 9025TIP3    H248491   0.447   1.728  13.928  0.4493  1.2087  0.7855
 9026TIP3   OH248492   3.864   1.219   3.481 -0.3353 -0.0108 -0.4964
 9026TIP3    H148493   3.897   1.215   3.392  0.8555 -1.4022 -0.0233
 9026TIP3    H248494   3.878   1.130   3.516 -1.8546  0.1962  0.6823
 9027TIP3   OH248495   4.431   1.584   3.316 -0.2030 -0.0472  0.0542
 9027TIP3    H148496   4.397   1.570   3.405 -1.6225 -0.6374 -0.5638
 9027TIP3    H248497   4.427   1.498   3.275  0.4176  0.2310 -0.6009
 9028TIP3   OH248498   3.435   2.527  12.548  0.5661 -0.7675 -0.2782
 9028TIP3    H148499   3.361   2.468  12.540  0.2930 -0.6055  1.0296
 9028TIP3    H248500   3.504   2.475  12.589 -0.2457  0.2896  2.5028
 9029TIP3   OH248501   6.756   0.195   2.049 -0.6173  0.4975 -0.4719
 9029TIP3    H148502   6.674   0.242   2.064 -0.0177  1.0250  1.2372
 9029TIP3    H248503   6.812   0.219   2.123  0.1532 -1.8868 -0.2347
 9030TIP3   OH248504   1.495   3.579   5.926 -0.6226 -0.0552 -0.2024
 9030TIP3    H148505   1.564   3.518   5.951 -0.7470  0.0195  0.3461
 9030TIP3    H248506   1.425   3.561   5.989 -0.1274  1.6114  0.8402
 9031TIP3   OH248507   5.470   1.324  12.260 -0.3257 -0.1964 -0.0631
 9031TIP3    H148508   5.456   1.282  12.175  0.7083  1.3260 -1.0032
 9031TIP3    H248509   5.395   1.296  12.313 -0.7629 -1.4968 -1.3310
 9032TIP3   OH248510   5.289   0.355  14.951  0.0581  0.3090  0.2429
 9032TIP3    H148511   5.384   0.351  14.961  0.1322  1.0076 -0.1554
 9032TIP3    H248512   5.273   0.335  14.859 -0.0406  1.9958 -0.1263
 9033TIP3   OH248513   0.596   2.168   1.720 -0.4933  0.5587  0.4173
 9033TIP3    H148514   0.505   2.188   1.739 -0.6030 -1.0366  1.6068
 9033TIP3    H248515   0.623   2.236   1.658 -1.9254  2.1611  1.5170
 9034TIP3   OH248516   4.779   5.863  13.013  0.1377 -0.4002 -0.2214
 9034TIP3    H148517   4.715   5.934  13.017  1.1179  0.3846  3.3574
 9034TIP3    H248518   4.726   5.785  12.993 -2.0505  0.2203  2.6711
 9035TIP3   OH248519   5.253   5.902  13.476 -0.6469 -0.2178  0.3232
 9035TIP3    H148520   5.181   5.931  13.420 -0.0229  0.4784 -0.1286
 9035TIP3    H248521   5.288   5.825  13.431  0.1636  0.6267 -0.5153
 9036TIP3   OH248522   2.990   4.939   5.005  0.3289 -0.0045 -0.0820
 9036TIP3    H148523   2.929   5.004   5.039 -2.2598 -1.0900 -2.3975
 9036TIP3    H248524   2.994   4.872   5.073 -1.3908 -0.0979 -0.0499
 9037TIP3   OH248525   1.863   1.021   0.927 -0.0343  1.4486  0.5020
 9037TIP3    H148526   1.818   1.106   0.923  0.3947  1.7859  2.1836
 9037TIP3    H248527   1.953   1.041   0.899  0.2788  1.7312  1.6685
 9038TIP3   OH248528   1.657   6.306  15.928 -0.4894  0.3845  0.0806
 9038TIP3    H148529   1.737   6.334  15.973 -0.2334 -2.6214  1.6598
 9038TIP3    H248530   1.669   6.332  15.837  3.1886 -1.7549 -0.1217
 9039TIP3   OH248531   5.305   3.056  12.751  0.0705 -0.0534 -0.1707
 9039TIP3    H148532   5.316   2.971  12.709 -0.6817  0.0015 -0.4890
 9039TIP3    H248533   5.292   3.117  12.678  2.3958  0.6204 -0.0453
 9040TIP3   OH248534   1.380   1.759   2.675  0.4641  0.5744 -0.1200
 9040TIP3    H148535   1.350   1.811   2.750  0.6777 -0.1802  0.4990
 9040TIP3    H248536   1.475   1.766   2.679  0.5139 -0.3051  0.2884
 9041TIP3   OH248537   5.654   4.488  11.256  0.3646  0.0219 -0.4748
 9041TIP3    H148538   5.597   4.439  11.316  0.9897 -1.4541 -1.0634
 9041TIP3    H248539   5.709   4.421  11.215  1.4301  1.2596 -1.0963
 9042TIP3   OH248540   3.683   3.312  13.739  0.5475 -0.4536  0.6089
 9042TIP3    H148541   3.633   3.319  13.820 -0.1225  0.1931  0.1513
 9042TIP3    H248542   3.759   3.369  13.752  0.3474 -0.2123  0.7104
 9043TIP3   OH248543   4.632   0.017  11.841 -0.3479  0.0483  0.1889
 9043TIP3    H148544   4.619   0.061  11.925 -1.2030  0.3069 -0.0638
 9043TIP3    H248545   4.722   0.038  11.817  0.8792 -2.4855  2.4203
 9044TIP3   OH248546   2.795   3.612  12.625  0.0559 -0.3730 -0.6454
 9044TIP3    H148547   2.826   3.674  12.559  0.7673  0.9580  0.9089
 9044TIP3    H248548   2.869   3.600  12.684 -0.5798 -1.5269 -0.0735
 9045TIP3   OH248549   6.067   2.390   0.304 -0.3385 -0.3300  0.1792
 9045TIP3    H148550   6.101   2.384   0.394 -0.3602 -0.0543  0.2073
 9045TIP3    H248551   6.123   2.456   0.262 -0.7508  0.0323  0.1878
 9046TIP3   OH248552   3.577   1.679   6.585 -0.3934  0.0065 -0.0943
 9046TIP3    H148553   3.646   1.613   6.589  0.4537  0.9097  0.4508
 9046TIP3    H248554   3.557   1.687   6.492  2.0325  1.5348 -0.5491
 9047TIP3   OH248555   5.987   2.655  17.057  0.5393 -0.0136  0.2371
 9047TIP3    H148556   5.934   2.711  17.114 -0.8003  0.1011 -1.0933
 9047TIP3    H248557   5.967   2.566  17.085  0.0411  0.0525  0.0970
 9048TIP3   OH248558   2.017   5.606  14.482 -0.4939 -0.6496 -0.5671
 9048TIP3    H148559   1.952   5.545  14.448 -1.1195 -1.2008  1.5452
 9048TIP3    H248560   2.043   5.569  14.566 -0.1631  1.5022  0.3113
 9049TIP3   OH248561   1.893   3.768  11.741 -0.0617  0.2201 -0.2423
 9049TIP3    H148562   1.943   3.849  11.749 -0.3266  0.4869 -1.2974
 9049TIP3    H248563   1.891   3.750  11.647  0.7994 -1.5204  0.0597
 9050TIP3   OH248564   0.013   5.828  15.502 -0.1434  0.1768  0.4693
 9050TIP3    H148565   0.042   5.765  15.436 -0.6557  2.0569 -1.6279
 9050TIP3    H248566   0.088   5.887  15.512 -0.3810  0.3960  0.9615
 9051TIP3   OH248567   2.567   3.900   4.472  0.2483  0.4992 -0.3442
 9051TIP3    H148568   2.587   3.939   4.387 -1.8063  0.2326 -0.9668
 9051TIP3    H248569   2.471   3.898   4.477  0.3202 -0.7360  1.3935
 9052TIP3   OH248570   4.168   5.223   5.511  0.1883 -0.5500  0.5044
 9052TIP3    H148571   4.114   5.300   5.496  2.0772  0.3758 -1.7581
 9052TIP3    H248572   4.225   5.248   5.584  0.7154  0.1641 -0.1438
 9053TIP3   OH248573   0.978   3.782   5.471 -0.5698  0.1235  0.2411
 9053TIP3    H148574   0.900   3.779   5.416 -1.1693  2.2446  0.9180
 9053TIP3    H248575   0.944   3.782   5.561  0.2423 -0.0669  0.5556
 9054TIP3   OH248576   4.859   4.421   0.842  0.6018  0.1686  0.2237
 9054TIP3    H148577   4.899   4.478   0.776 -0.0582  0.7665  0.3433
 9054TIP3    H248578   4.806   4.479   0.896  0.6828 -0.4116  0.9341
 9055TIP3   OH248579   6.636   1.868   4.869  0.3828 -0.0402  0.0966
 9055TIP3    H148580   6.571   1.820   4.919  1.0787 -1.8262 -0.7003
 9055TIP3    H248581   6.594   1.952   4.849 -0.8077 -0.2810  1.5217
 9056TIP3   OH248582   1.822   2.818   4.550  0.3172 -0.0667  1.3805
 9056TIP3    H148583   1.875   2.766   4.489 -0.5507  2.4509 -1.6490
 9056TIP3    H248584   1.732   2.802   4.523  0.0495  3.3760 -0.0329
 9057TIP3   OH248585   5.858   1.236  11.862  0.3468  0.5355 -0.4812
 9057TIP3    H148586   5.805   1.251  11.784 -1.0728  0.8422  0.5050
 9057TIP3    H248587   5.869   1.141  11.866 -1.0000  0.3805 -0.1676
 9058TIP3   OH248588   1.544   5.644  15.747  0.4307 -0.2648 -0.0448
 9058TIP3    H148589   1.564   5.595  15.827 -1.2559 -0.3696  0.3369
 9058TIP3    H248590   1.630   5.666  15.710  1.2425 -0.2113  1.7924
 9059TIP3   OH248591   1.285   1.247   5.550  0.4100 -0.3959  0.4145
 9059TIP3    H148592   1.229   1.186   5.502  0.7154  0.6070 -1.2494
 9059TIP3    H248593   1.265   1.231   5.642 -2.9962  0.2621 -0.1477
 9060TIP3   OH248594   2.593   5.534   4.669 -0.0953  0.3044 -0.2335
 9060TIP3    H148595   2.605   5.439   4.673  1.3797  0.4931  0.1589
 9060TIP3    H248596   2.523   5.547   4.605 -0.0644 -1.0294 -0.5479
 9061TIP3   OH248597   1.238   5.726  11.920 -0.5888 -0.0568  0.0777
 9061TIP3    H148598   1.174   5.755  11.855  0.3200  1.1024 -0.3262
 9061TIP3    H248599   1.192   5.730  12.003 -0.7285  1.8628 -0.0635
 9062TIP3   OH248600   2.014   6.277  11.475 -0.1135  0.4533  0.3679
 9062TIP3    H148601   1.946   6.257  11.539 -1.9395  1.4290 -1.2112
 9062TIP3    H248602   1.968   6.320  11.403  2.3541  2.2444 -0.2259
 9063TIP3   OH248603   4.598   5.388   3.066 -0.0191 -0.2668  0.5159
 9063TIP3    H148604   4.648   5.464   3.035 -2.6588  0.8505 -1.1871
 9063TIP3    H248605   4.582   5.406   3.158  0.4236  0.6524  0.4164
 9064TIP3   OH248606   2.424   0.678  12.967 -0.4198  0.4808  0.5534
 9064TIP3    H148607   2.509   0.687  12.924  0.1883  0.4076  1.7236
 9064TIP3    H248608   2.370   0.747  12.928 -0.2126 -0.2744 -1.1044
 9065TIP3   OH248609   6.433   5.019  12.622  0.5234 -0.1809 -0.4003
 9065TIP3    H148610   6.480   4.989  12.699  0.9606 -0.1611 -0.6586
 9065TIP3    H248611   6.342   5.029  12.651  0.9076  0.9540  0.4275
 9066TIP3   OH248612   2.359   4.800   3.219  0.1402 -0.3624  0.1171
 9066TIP3    H148613   2.445   4.797   3.178  1.3074  0.4022  2.4097
 9066TIP3    H248614   2.348   4.713   3.258 -0.4257 -0.6808 -0.7456
 9067TIP3   OH248615   4.420   4.307   4.366  0.0802  0.0651  0.3589
 9067TIP3    H148616   4.442   4.214   4.374  1.0699  0.1562 -1.0259
 9067TIP3    H248617   4.363   4.311   4.289  2.3589  0.9301 -1.3546
 9068TIP3   OH248618   1.210   5.243   2.157 -0.2119 -0.2251 -0.4580
 9068TIP3    H148619   1.214   5.285   2.071  1.5747  0.3044 -0.1299
 9068TIP3    H248620   1.117   5.246   2.181 -0.3238  2.3017 -1.0568
 9069TIP3   OH248621   1.816   6.086  12.995  0.4254  0.1041  0.4873
 9069TIP3    H148622   1.868   6.144  12.940  0.4564  0.2775  0.6993
 9069TIP3    H248623   1.880   6.033  13.042  0.4199  0.7084  1.1691
 9070TIP3   OH248624   2.763   3.067   5.432  0.3900 -0.1037  0.1801
 9070TIP3    H148625   2.753   3.001   5.363  1.7363  2.6376 -2.7292
 9070TIP3    H248626   2.674   3.099   5.448  0.2381  0.1839 -1.2271
 9071TIP3   OH248627   4.304   1.951  14.942 -0.1770 -0.5520 -0.0054
 9071TIP3    H148628   4.208   1.948  14.938 -0.1633  0.0980 -1.0088
 9071TIP3    H248629   4.327   2.031  14.896  0.9515 -1.7667 -1.6253
 9072TIP3   OH248630   0.158   6.152  13.984 -0.2589 -0.5339  0.3481
 9072TIP3    H148631   0.069   6.140  13.951 -0.4513 -0.2044  0.7504
 9072TIP3    H248632   0.214   6.113  13.916 -0.6336  0.4248 -0.5123
 9073TIP3   OH248633   6.579   1.271  15.326 -0.6770  0.0063  0.0713
 9073TIP3    H148634   6.620   1.186  15.337  0.1344  0.5386  1.1912
 9073TIP3    H248635   6.507   1.271  15.388 -1.3380 -0.2596 -0.6800
 9074TIP3   OH248636   2.712   3.249   4.782 -0.6845  0.1155  0.2111
 9074TIP3    H148637   2.631   3.204   4.808  0.0569 -1.6086 -0.3929
 9074TIP3    H248638   2.780   3.211   4.837 -0.1464  0.9697  0.1406
 9075TIP3   OH248639   4.980   0.466   0.516 -0.0699  0.6144 -0.4180
 9075TIP3    H148640   5.006   0.378   0.487 -0.4539  0.4186 -0.1719
 9075TIP3    H248641   4.983   0.519   0.436 -1.8322 -0.0888 -0.9754
 9076TIP3   OH248642   4.731   5.424  13.584  0.6712 -0.4484 -0.4769
 9076TIP3    H148643   4.672   5.359  13.622  0.6370 -1.3571 -2.0315
 9076TIP3    H248644   4.736   5.494  13.649 -0.2846 -1.4394  0.6688
 9077TIP3   OH248645   3.570   3.776   5.799 -0.2861  0.4494  0.5550
 9077TIP3    H148646   3.475   3.766   5.785  0.1210 -1.5951 -0.9848
 9077TIP3    H248647   3.578   3.794   5.893 -2.1480 -0.3116  0.8843
 9078TIP3   OH248648   6.109   2.589   5.414 -0.2486  0.0806 -0.5739
 9078TIP3    H148649   6.082   2.598   5.506 -0.5951 -0.6650 -0.6028
 9078TIP3    H248650   6.171   2.515   5.414  0.3866  0.6061 -0.8076
 9079TIP3   OH248651   1.967   3.530   5.294 -0.5474 -0.3811 -0.3541
 9079TIP3    H148652   2.060   3.554   5.283 -0.5532 -0.3704 -0.3814
 9079TIP3    H248653   1.926   3.611   5.326 -0.1843 -0.9444  1.6158
 9080TIP3   OH248654   5.864   0.492   1.077 -0.7507 -0.1301  0.2576
 9080TIP3    H148655   5.816   0.539   1.145  1.3650 -1.7183  2.9780
 9080TIP3    H248656   5.807   0.420   1.053 -1.5414  0.4740  0.3207
 9081TIP3   OH248657   4.334   6.062  16.525  0.0811 -0.3244 -0.0498
 9081TIP3    H148658   4.359   6.052  16.433 -0.7701 -0.5171 -0.2647
 9081TIP3    H248659   4.296   6.149  16.530 -0.7995 -0.6978 -0.1060
 9082TIP3   OH248660   4.749   3.640   4.220 -0.2132 -0.3191 -0.5416
 9082TIP3    H148661   4.813   3.583   4.260 -1.2539 -1.3317 -0.3035
 9082TIP3    H248662   4.711   3.690   4.292  0.1743  0.1563 -0.6613
 9083TIP3   OH248663   2.842   2.798   6.196  0.8036 -0.1560  0.4387
 9083TIP3    H148664   2.846   2.779   6.103 -1.3781 -0.8990  0.4641
 9083TIP3    H248665   2.748   2.810   6.214  1.2168  0.2610  2.4775
 9084TIP3   OH248666   5.969   0.092   0.942  0.3548 -0.2299 -0.0526
 9084TIP3    H148667   5.919   0.020   0.981 -1.0752  0.6317 -0.2780
 9084TIP3    H248668   6.043   0.105   1.002  1.5707 -2.9794 -0.8742
 9085TIP3   OH248669   6.343   4.303  10.468 -0.2978  0.1073  0.6296
 9085TIP3    H148670   6.300   4.228  10.427 -0.4320  0.0647  0.8508
 9085TIP3    H248671   6.277   4.340  10.526  0.7689 -1.4670  2.8944
 9086TIP3   OH248672   6.336   4.013   0.510 -0.5540 -0.2463 -0.0038
 9086TIP3    H148673   6.407   4.055   0.461 -0.6746 -0.1021 -0.0576
 9086TIP3    H248674   6.355   4.034   0.602 -2.6045  3.0686 -0.2716
 9087TIP3   OH248675   0.703   6.405  12.379 -0.0462  0.2025 -0.2995
 9087TIP3    H148676   0.723   6.497  12.396 -0.0872  0.1181  0.2117
 9087TIP3    H248677   0.701   6.364  12.465 -1.4444  0.0097 -0.4023
 9088TIP3   OH248678   3.181   6.665  13.727 -0.4732  0.2812  0.3699
 9088TIP3    H148679   3.209   6.730  13.791  2.3486 -1.1361  0.6329
 9088TIP3    H248680   3.119   6.610  13.774  0.2668  0.2989  1.3704
 9089TIP3   OH248681   4.219   6.249  12.385  0.3172  0.0819 -0.0725
 9089TIP3    H148682   4.175   6.216  12.307 -0.0765 -1.0072  0.6032
 9089TIP3    H248683   4.148   6.289  12.437  0.7346  1.7078 -0.7295
 9090TIP3   OH248684   4.038   3.007   4.648  0.1936 -0.0357 -0.2562
 9090TIP3    H148685   3.952   3.040   4.675  0.6155  1.8782 -1.1175
 9090TIP3    H248686   4.053   2.931   4.703 -0.6925  1.4529  2.1335
 9091TIP3   OH248687   1.084   3.081  16.494  0.3082 -0.1793 -0.4978
 9091TIP3    H148688   1.134   3.056  16.417  3.0047 -1.0131  1.4548
 9091TIP3    H248689   1.059   2.999  16.535  2.2159  0.1868  1.5379
 9092TIP3   OH248690   2.190   5.965   0.358  0.3569  0.4403  0.0084
 9092TIP3    H148691   2.145   6.011   0.287  0.8956  2.6690  1.0539
 9092TIP3    H248692   2.188   6.027   0.431  1.0416 -1.2620  1.5129
 9093TIP3   OH248693   2.478   3.850   1.095  0.2097  0.1766 -0.1328
 9093TIP3    H148694   2.460   3.887   1.009  0.8018 -0.2988 -0.4601
 9093TIP3    H248695   2.460   3.921   1.156 -1.2754  0.1952 -0.5626
 9094TIP3   OH248696   0.995   6.136  13.001 -0.2796  0.3439  0.0069
 9094TIP3    H148697   1.038   6.221  12.993 -0.1408  0.1574 -1.2770
 9094TIP3    H248698   1.054   6.075  12.958 -1.9998  0.1368 -2.1260
 9095TIP3   OH248699   5.839   1.940  15.192  0.1230 -0.2267 -0.3182
 9095TIP3    H148700   5.784   1.926  15.270  2.5585 -0.7813  1.3480
 9095TIP3    H248701   5.881   1.856  15.177  3.0066  1.0341  0.4304
 9096TIP3   OH248702   4.167   5.525   0.453 -0.1202  0.3625  0.0898
 9096TIP3    H148703   4.257   5.493   0.440  0.2758  0.9198  1.3772
 9096TIP3    H248704   4.141   5.559   0.368 -0.4704 -3.1387 -1.2829
 9097TIP3   OH248705   5.565   1.037  12.978 -0.3051  0.2171  0.1214
 9097TIP3    H148706   5.553   0.951  13.018  0.9725  1.0229  2.3351
 9097TIP3    H248707   5.647   1.030  12.928 -1.0839 -0.3292 -1.0963
 9098TIP3   OH248708   1.748   6.746   2.580  0.2035 -0.0592 -0.2233
 9098TIP3    H148709   1.789   6.676   2.528  1.5123 -0.0027  0.7124
 9098TIP3    H248710   1.672   6.704   2.620  1.1613 -1.0427  0.5931
 9099TIP3   OH248711   5.806   1.580   6.000  0.0519  0.3658 -0.0110
 9099TIP3    H148712   5.842   1.638   5.933  0.5341  1.5014  1.2020
 9099TIP3    H248713   5.759   1.513   5.951 -1.3077  2.2838 -1.4338
 9100TIP3   OH248714   5.711   2.148   0.548 -0.4981  0.0416 -0.1650
 9100TIP3    H148715   5.770   2.152   0.472 -0.5159 -0.4156 -0.2065
 9100TIP3    H248716   5.630   2.110   0.513 -0.9011  0.8792 -0.1597
 9101TIP3   OH248717   0.623   0.109  10.401 -0.2197 -0.5170  0.2710
 9101TIP3    H148718   0.627   0.101  10.497 -0.5506  0.2375  0.3515
 9101TIP3    H248719   0.533   0.087  10.379 -0.8518  1.7779  0.3941
 9102TIP3   OH248720   3.528   1.171   1.298 -0.2757 -0.1542 -0.1938
 9102TIP3    H148721   3.455   1.170   1.360  0.5954 -2.2254  0.8848
 9102TIP3    H248722   3.487   1.173   1.212 -1.6667 -2.9733  0.3531
 9103TIP3   OH248723   5.410   1.325   0.138  0.3014 -0.1810  0.6759
 9103TIP3    H148724   5.442   1.353   0.052 -0.1754  1.4716  1.0066
 9103TIP3    H248725   5.489   1.298   0.185  0.7787  0.5268  0.2970
 9104TIP3   OH248726   5.563   4.716  16.002  0.8312  0.0058 -0.0505
 9104TIP3    H148727   5.523   4.665  15.932  2.2574  3.2226 -3.3706
 9104TIP3    H248728   5.654   4.726  15.975  1.5759  0.8844  2.5940
 9105TIP3   OH248729   0.924   1.615   2.598  0.0367  0.3660  0.1679
 9105TIP3    H148730   0.953   1.583   2.512  1.4889  2.2278 -0.0651
 9105TIP3    H248731   0.828   1.611   2.593  0.1219 -0.3721 -1.2202
 9106TIP3   OH248732   2.991   1.840   0.796 -0.3331  0.3383  0.5014
 9106TIP3    H148733   2.965   1.798   0.714 -1.9881 -0.4567  1.4044
 9106TIP3    H248734   3.080   1.871   0.780 -0.6468  0.2319 -1.6093
 9107TIP3   OH248735   5.176   5.414  13.104  0.1362 -0.7114 -0.4960
 9107TIP3    H148736   5.209   5.361  13.177 -0.6926 -1.5134 -0.6898
 9107TIP3    H248737   5.239   5.485  13.096  0.6600 -1.0440  0.5041
 9108TIP3   OH248738   3.216   3.472   5.895  1.0149 -0.3580  0.0910
 9108TIP3    H148739   3.240   3.505   5.809  1.0372 -1.2578 -0.2568
 9108TIP3    H248740   3.129   3.508   5.912  1.8183  1.3858  0.5415
 9109TIP3   OH248741   4.414   4.236  13.237 -0.2282 -0.2258 -0.1767
 9109TIP3    H148742   4.319   4.228  13.237 -0.3183  0.5870 -1.4158
 9109TIP3    H248743   4.439   4.234  13.329 -1.6290  1.4997  0.2662
 9110TIP3   OH248744   2.148   5.446  10.930  0.3893  0.3598  0.2501
 9110TIP3    H148745   2.197   5.447  11.013  0.6180  0.5879  0.1139
 9110TIP3    H248746   2.209   5.485  10.867  0.8671 -1.3890 -0.3960
 9111TIP3   OH248747   3.033   2.882  14.063 -0.3736  0.3829 -0.1843
 9111TIP3    H148748   3.050   2.794  14.096 -0.9400  0.1853 -0.4093
 9111TIP3    H248749   3.051   2.940  14.137  0.6797  0.1408 -0.2397
 9112TIP3   OH248750   5.389   1.621  16.584 -0.3796 -0.1533 -0.4342
 9112TIP3    H148751   5.436   1.702  16.604  1.6343 -1.0607 -1.3012
 9112TIP3    H248752   5.297   1.647  16.579  0.0543  1.7427  0.9601
 9113TIP3   OH248753   4.069   4.837   5.623 -0.0161 -0.7509 -0.0401
 9113TIP3    H148754   4.085   4.808   5.533  0.6013  0.3553 -0.2972
 9113TIP3    H248755   3.975   4.830   5.634 -0.0211 -1.5722 -0.5309
 9114TIP3   OH248756   1.911   4.450   1.953  0.4932  0.0222 -0.8138
 9114TIP3    H148757   1.950   4.422   1.870 -0.3280  2.1126 -1.9317
 9114TIP3    H248758   1.816   4.451   1.935  0.4227  2.1698 -0.3941
 9115TIP3   OH248759   1.477   2.201  16.910 -0.2403  0.1660  0.4042
 9115TIP3    H148760   1.426   2.242  16.979 -0.6052  0.9802 -0.3379
 9115TIP3    H248761   1.433   2.227  16.829 -0.0277 -1.0612 -0.1180
 9116TIP3   OH248762   4.407   6.462  13.268  0.0088  0.3438 -0.3398
 9116TIP3    H148763   4.326   6.412  13.261  0.3411 -0.1066 -1.0155
 9116TIP3    H248764   4.474   6.405  13.231  0.7380  0.4943  0.7333
 9117TIP3   OH248765   1.666   6.634   5.315  0.1254  0.2341 -0.2888
 9117TIP3    H148766   1.737   6.592   5.267 -0.1110  1.0823 -1.4114
 9117TIP3    H248767   1.589   6.620   5.260 -0.6529 -0.9931  1.0938
 9118TIP3   OH248768   6.206   3.188   4.109 -0.9716 -0.1837  0.3132
 9118TIP3    H148769   6.225   3.126   4.178 -0.4130  0.7939  1.0568
 9118TIP3    H248770   6.203   3.273   4.153 -0.2099  0.4958 -0.9111
 9119TIP3   OH248771   5.346   4.399   1.730 -0.1381 -0.4906 -0.1536
 9119TIP3    H148772   5.423   4.346   1.752  2.0075  1.3289 -2.9197
 9119TIP3    H248773   5.345   4.468   1.796  0.9067 -0.2522 -0.3667
 9120TIP3   OH248774   3.459   1.206  11.746 -0.2932  0.2528  0.4778
 9120TIP3    H148775   3.434   1.296  11.724 -2.0797  0.0517  1.5743
 9120TIP3    H248776   3.511   1.177  11.672 -0.3541  1.9384 -0.2470
 9121TIP3   OH248777   5.364   6.322   5.917  0.2417  0.1914 -0.6167
 9121TIP3    H148778   5.342   6.361   6.002  0.2695 -1.7817  0.3261
 9121TIP3    H248779   5.295   6.259   5.900  0.8409 -0.2445 -1.5238
 9122TIP3   OH248780   4.764   3.299   3.043  0.1041 -0.1992  0.1470
 9122TIP3    H148781   4.732   3.376   2.997 -0.7392 -0.6291  0.0136
 9122TIP3    H248782   4.771   3.327   3.134 -0.3029 -0.0043  0.1174
 9123TIP3   OH248783   2.280   1.567   1.516  0.6174  0.0347  0.0651
 9123TIP3    H148784   2.347   1.635   1.503  1.6720 -0.7340  1.3596
 9123TIP3    H248785   2.235   1.594   1.596 -1.4119  1.1576 -1.4082
 9124TIP3   OH248786   5.214   2.314  11.486 -0.7466 -0.5946  0.0700
 9124TIP3    H148787   5.296   2.271  11.460  0.3817  0.4159  1.8249
 9124TIP3    H248788   5.186   2.267  11.564 -1.1561 -0.1400  0.1983
 9125TIP3   OH248789   6.689   5.319   4.640 -0.1757  0.0374  0.1087
 9125TIP3    H148790   6.759   5.327   4.575 -0.8806  1.1278 -0.5339
 9125TIP3    H248791   6.609   5.312   4.589 -0.6130 -0.3661  0.8494
 9126TIP3   OH248792   0.780   2.620  11.754 -0.2280  0.0682 -0.1608
 9126TIP3    H148793   0.728   2.661  11.823 -1.1602 -0.1271 -0.7369
 9126TIP3    H248794   0.721   2.555  11.716  2.1774 -4.0861  2.7882
 9127TIP3   OH248795   0.217   3.020  16.930  0.4322 -0.3942 -0.8036
 9127TIP3    H148796   0.210   3.111  16.958 -1.6865 -0.9490  0.5733
 9127TIP3    H248797   0.132   3.000  16.891  0.6669 -1.9560 -0.5498
 9128TIP3   OH248798   0.986   2.891   0.894  0.8901  0.2242 -0.0178
 9128TIP3    H148799   0.913   2.943   0.862  0.9205  1.2199  1.4803
 9128TIP3    H248800   0.952   2.802   0.900  0.0665  0.5316 -0.1696
 9129TIP3   OH248801   2.397   6.196   5.404  0.6599 -0.9279 -0.4296
 9129TIP3    H148802   2.323   6.206   5.345 -0.5018 -0.5088  1.0682
 9129TIP3    H248803   2.460   6.142   5.356 -0.4052 -0.8806 -1.8934
 9130TIP3   OH248804   6.072   5.342  14.350  0.5695  0.4083  1.1915
 9130TIP3    H148805   5.977   5.348  14.339  0.7319  1.3799  0.2009
 9130TIP3    H248806   6.101   5.283  14.280  0.9797  2.2492 -0.2488
 9131TIP3   OH248807   0.260   3.664  11.761 -0.3773  1.2940  0.1193
 9131TIP3    H148808   0.269   3.638  11.670  1.2714 -0.8014  0.8395
 9131TIP3    H248809   0.201   3.599  11.799  0.5366  0.9628  0.9973
 9132TIP3   OH248810   1.406   2.750   4.770 -0.2551 -0.5966  0.4611
 9132TIP3    H148811   1.384   2.657   4.759  0.8592 -0.9575  1.2369
 9132TIP3    H248812   1.497   2.750   4.798 -0.1843  0.7530  0.2617
 9133TIP3   OH248813   0.728   6.604   1.284  0.6430 -0.7981  0.5007
 9133TIP3    H148814   0.668   6.626   1.356  1.0252 -1.3122  0.9786
 9133TIP3    H248815   0.792   6.544   1.323  1.8052  0.1884  0.1385
 9134TIP3   OH248816   0.097   5.397  10.757 -0.0825 -0.5951  0.3883
 9134TIP3    H148817   0.022   5.359  10.712  0.5025 -2.5679  1.0113
 9134TIP3    H248818   0.173   5.363  10.711  0.4501  1.6289 -0.4187
 9135TIP3   OH248819   2.537   3.629  13.980 -0.3015  0.7010 -0.0382
 9135TIP3    H148820   2.463   3.653  13.923  0.1443  0.6274 -0.6560
 9135TIP3    H248821   2.512   3.546  14.019 -0.6516  0.7983 -0.0530
 9136TIP3   OH248822   2.579   3.623   1.362  0.5553  0.2521  0.4296
 9136TIP3    H148823   2.499   3.628   1.309  1.2712 -0.6107 -0.7700
 9136TIP3    H248824   2.585   3.708   1.405  0.0744  1.0717 -1.0801
 9137TIP3   OH248825   1.833   1.054  17.162  0.6511 -0.3180 -0.2377
 9137TIP3    H148826   1.892   1.129  17.161 -1.7669  1.6619 -0.8204
 9137TIP3    H248827   1.793   1.054  17.075 -0.8319 -1.0858  0.4284
 9138TIP3   OH248828   0.191   4.727   4.255 -0.0692  0.4921 -0.6407
 9138TIP3    H148829   0.173   4.817   4.282 -1.5001  1.0544 -3.3658
 9138TIP3    H248830   0.249   4.693   4.324  2.1871  4.1439 -0.5990
 9139TIP3   OH248831   1.311   0.956  11.635  0.3932  0.4716  0.2634
 9139TIP3    H148832   1.295   0.985  11.545 -0.5599 -1.2284 -0.1315
 9139TIP3    H248833   1.392   0.907  11.630  1.5699  2.3268  0.7811
 9140TIP3   OH248834   2.187   4.865   6.622 -0.2927 -0.0779  0.4373
 9140TIP3    H148835   2.241   4.806   6.569 -0.6635 -0.8884  0.9729
 9140TIP3    H248836   2.247   4.936   6.645  0.0669 -0.0660 -0.4752
 9141TIP3   OH248837   3.941   1.136  12.930 -0.9685  0.4089  0.1063
 9141TIP3    H148838   4.033   1.160  12.924 -0.7652  0.0049  1.4887
 9141TIP3    H248839   3.912   1.128  12.839  0.6478 -0.5744 -0.3362
 9142TIP3   OH248840   0.551   4.146  16.566  0.0443  0.2805 -0.4767
 9142TIP3    H148841   0.554   4.067  16.620 -2.3516 -0.0189 -0.7357
 9142TIP3    H248842   0.599   4.124  16.487  0.3615 -0.5182 -0.0630
 9143TIP3   OH248843   3.809   2.048  11.538 -0.5990 -0.3723  0.3115
 9143TIP3    H148844   3.868   2.030  11.611  0.6954  2.6259  0.0654
 9143TIP3    H248845   3.744   2.108  11.574 -0.5888  0.2607 -0.7211
 9144TIP3   OH248846   5.289   2.771  17.113 -0.2432  0.2028 -0.6556
 9144TIP3    H148847   5.315   2.835  17.179 -0.5912 -0.8277  0.4930
 9144TIP3    H248848   5.371   2.745  17.071  0.3462 -1.2802  1.3488
 9145TIP3   OH248849   0.996   3.296   4.647  0.0305 -0.5580 -0.6536
 9145TIP3    H148850   0.901   3.298   4.650 -0.0009 -0.6802 -1.5046
 9145TIP3    H248851   1.024   3.347   4.723 -0.7259  2.3952 -2.2610
 9146TIP3   OH248852   2.516   3.729  14.795 -0.1565 -0.1006 -0.3396
 9146TIP3    H148853   2.429   3.708  14.830  0.5396 -0.6763  1.0642
 9146TIP3    H248854   2.499   3.755  14.704 -1.8527  0.3581  0.0949
 9147TIP3   OH248855   5.878   5.207   5.026  0.8741 -0.1234 -0.4228
 9147TIP3    H148856   5.936   5.132   5.039 -0.6463 -1.2281  0.0224
 9147TIP3    H248857   5.834   5.189   4.943 -1.1673 -0.8415  0.7992
 9148TIP3   OH248858   5.653   1.782  16.381  0.6014  0.1515  0.2278
 9148TIP3    H148859   5.683   1.870  16.361  1.2454 -0.2063 -0.3855
 9148TIP3    H248860   5.601   1.792  16.461 -0.2277  1.2459 -0.4415
 9149TIP3   OH248861   4.374   2.387   3.989  0.2979 -0.0975 -0.4330
 9149TIP3    H148862   4.295   2.402   4.042  1.5611  1.8944  0.9731
 9149TIP3    H248863   4.349   2.318   3.928 -2.0324 -0.6284  1.0422
 9150TIP3   OH248864   2.381   2.943  14.259 -0.0429 -0.0847  0.1545
 9150TIP3    H148865   2.293   2.930  14.296  0.1815 -1.5613  0.1879
 9150TIP3    H248866   2.411   3.025  14.297 -1.5699  0.6273 -0.1444
 9151TIP3   OH248867   4.847   6.065  13.421 -0.2512  0.4304  0.4402
 9151TIP3    H148868   4.853   6.083  13.327 -0.3601  0.3184  0.4113
 9151TIP3    H248869   4.787   6.131  13.454  0.7868  1.2851  0.6545
 9152TIP3   OH248870   3.511   4.910   0.484  0.1704  0.6090 -0.8963
 9152TIP3    H148871   3.425   4.869   0.493  0.1772  0.5962 -0.8889
 9152TIP3    H248872   3.572   4.836   0.479  0.0493  0.5895 -2.3769
 9153TIP3   OH248873   5.387   5.611   1.108 -0.0654  0.0354  0.2799
 9153TIP3    H148874   5.365   5.701   1.084 -0.0832  0.0126  0.2119
 9153TIP3    H248875   5.325   5.590   1.178 -0.4134 -0.1087 -0.0705
 9154TIP3   OH248876   6.380   2.919  16.162  0.2285  0.0835 -0.4601
 9154TIP3    H148877   6.346   2.957  16.243  0.9362  0.6576 -0.4238
 9154TIP3    H248878   6.317   2.851  16.139 -1.3994  1.6961 -0.8572
 9155TIP3   OH248879   5.356   1.347  16.812 -0.8203 -0.7140 -0.0607
 9155TIP3    H148880   5.450   1.342  16.826 -1.0245  1.7970  2.7466
 9155TIP3    H248881   5.346   1.349  16.717  1.9618 -0.8988 -0.4007
 9156TIP3   OH248882   1.628   2.906   1.011  0.7996 -0.1075 -0.0778
 9156TIP3    H148883   1.590   2.873   1.092  1.3914  1.8485  1.0284
 9156TIP3    H248884   1.553   2.942   0.962  0.5737 -0.4543  0.0156
 9157TIP3   OH248885   2.210   4.373   1.380  0.4547  0.4044  0.3271
 9157TIP3    H148886   2.122   4.360   1.414 -0.1794 -0.4354 -1.5297
 9157TIP3    H248887   2.266   4.374   1.457 -0.8803 -1.7274  1.3722
 9158TIP3   OH248888   1.792   3.474   5.060 -0.0176 -0.2903  0.1402
 9158TIP3    H148889   1.841   3.437   4.987 -0.7832  0.6222 -0.8750
 9158TIP3    H248890   1.849   3.465   5.136  2.2348  1.8158 -1.2149
 9159TIP3   OH248891   3.428   0.033   3.273  0.1411 -0.3595 -0.1935
 9159TIP3    H148892   3.447   0.099   3.207 -0.4150 -1.1916 -1.1880
 9159TIP3    H248893   3.423   0.082   3.355  1.5601  0.5720 -0.6571
 9160TIP3   OH248894   1.836   5.120  15.904  0.8278  0.3573  0.1786
 9160TIP3    H148895   1.893   5.171  15.847  0.4206  1.0400  0.3770
 9160TIP3    H248896   1.868   5.137  15.992  2.2888 -1.7443  0.0671
 9161TIP3   OH248897   3.328   2.225   2.343  0.0890 -0.2825 -0.3564
 9161TIP3    H148898   3.388   2.256   2.411 -1.1122 -1.0069  1.0513
 9161TIP3    H248899   3.385   2.182   2.280  1.2333  0.4620  0.1334
 9162TIP3   OH248900   3.646   1.788  15.171  0.0638  0.3812  0.6470
 9162TIP3    H148901   3.719   1.830  15.215  0.5519  0.0505  0.1623
 9162TIP3    H248902   3.575   1.787  15.236 -0.3062  2.9057  0.3091
 9163TIP3   OH248903   2.271   2.343   0.835  0.0231  0.2959  0.0409
 9163TIP3    H148904   2.293   2.394   0.758 -1.2699  0.9610  0.1133
 9163TIP3    H248905   2.217   2.401   0.888  0.8948 -0.1550  1.4522
 9164TIP3   OH248906   2.017   5.452  12.536  0.3006  0.2985 -0.3322
 9164TIP3    H148907   1.983   5.384  12.593 -0.6809 -0.6909 -2.0628
 9164TIP3    H248908   2.111   5.435  12.532 -0.0307 -1.3718 -1.2847
 9165TIP3   OH248909   4.260   1.818   0.756 -0.7271 -0.4333 -0.3897
 9165TIP3    H148910   4.273   1.826   0.850  0.7174  2.4338 -0.7701
 9165TIP3    H248911   4.348   1.804   0.721 -1.0211  0.3016 -1.4456
 9166TIP3   OH248912   1.584   2.475  12.674  0.2462  0.5104 -0.3408
 9166TIP3    H148913   1.647   2.515  12.735  0.0519 -0.6106  0.6247
 9166TIP3    H248914   1.621   2.388  12.657 -0.0103  0.6051 -1.3661
 9167TIP3   OH248915   2.555   6.065   0.228 -0.0474  0.2965  0.4314
 9167TIP3    H148916   2.480   6.022   0.186 -0.2067  0.8646  0.1383
 9167TIP3    H248917   2.627   6.003   0.217 -0.3709 -0.0670  0.3460
 9168TIP3   OH248918   5.252   5.992  15.715  0.1012 -0.0208 -0.3920
 9168TIP3    H148919   5.243   5.937  15.637  1.4082  0.4894 -0.9282
 9168TIP3    H248920   5.315   5.946  15.771 -0.8089 -0.3681  0.3506
 9169TIP3   OH248921   1.393   5.494   1.101  0.7731  0.5423  0.2018
 9169TIP3    H148922   1.410   5.571   1.046  0.2598  0.2480 -0.3763
 9169TIP3    H248923   1.302   5.506   1.131  0.0007 -0.7999 -1.4861
 9170TIP3   OH248924   1.694   5.665  14.284 -0.8063 -0.0013  0.2035
 9170TIP3    H148925   1.731   5.579  14.301 -2.3561 -0.5903  0.5675
 9170TIP3    H248926   1.765   5.726  14.308  1.2523 -1.2089 -2.5182
 9171TIP3   OH248927   1.520   2.894   5.876 -0.1070 -0.0273 -0.0779
 9171TIP3    H148928   1.457   2.829   5.845  1.2044 -0.3563 -2.1222
 9171TIP3    H248929   1.504   2.900   5.970 -1.2806 -2.1842 -0.1133
 9172TIP3   OH248930   0.775   2.069   6.418 -0.1974 -0.5101  0.0935
 9172TIP3    H148931   0.724   2.031   6.347 -0.3352 -1.3315  0.6247
 9172TIP3    H248932   0.761   2.163   6.410 -2.0699 -0.7397  0.4210
 9173TIP3   OH248933   2.908   4.909  12.820 -0.3853 -0.0890 -0.5145
 9173TIP3    H148934   2.819   4.908  12.854 -0.0954  0.8710  0.3010
 9173TIP3    H248935   2.927   5.002  12.805  0.8004 -0.2087  0.1821
 9174TIP3   OH248936   2.739   6.524  16.577  0.1885 -0.4245  0.3433
 9174TIP3    H148937   2.818   6.482  16.543  0.3176  0.2464 -0.2022
 9174TIP3    H248938   2.769   6.608  16.610 -0.5761  0.6254 -1.5276
 9175TIP3   OH248939   3.309   0.879  15.157  0.1209  0.5457 -0.2016
 9175TIP3    H148940   3.355   0.830  15.226 -1.9471  1.2701  1.7414
 9175TIP3    H248941   3.378   0.933  15.117  1.6302 -0.9192  0.3441
 9176TIP3   OH248942   1.533   3.580   0.971  0.4917  0.1524  0.2929
 9176TIP3    H148943   1.598   3.510   0.963  1.1958  0.7551  0.6733
 9176TIP3    H248944   1.532   3.623   0.885  1.5127  0.9275  0.6518
 9177TIP3   OH248945   2.852   6.782   5.057 -0.1892 -0.2060  0.7983
 9177TIP3    H148946   2.779   6.732   5.021 -0.5589  1.2054 -0.4988
 9177TIP3    H248947   2.811   6.843   5.118 -0.0136  0.1000  0.6107
 9178TIP3   OH248948   4.214   1.696  13.063  0.1044  0.2823 -0.0891
 9178TIP3    H148949   4.290   1.755  13.054  1.5346 -1.0206  2.8340
 9178TIP3    H248950   4.243   1.615  13.021 -0.5372  0.5217 -0.9915
 9179TIP3   OH248951   3.968   0.463  11.346 -0.3450 -0.5937  0.5368
 9179TIP3    H148952   3.900   0.478  11.411 -0.3568  0.5166  0.2898
 9179TIP3    H248953   4.009   0.549  11.335  0.8871 -1.1919  0.4577
 9180TIP3   OH248954   2.173   2.622   3.331  0.3131  0.1736 -0.3982
 9180TIP3    H148955   2.138   2.535   3.352  2.2524 -0.5429  0.0329
 9180TIP3    H248956   2.214   2.611   3.245  0.5294  0.6522 -0.3558
 9181TIP3   OH248957   0.157   1.387  12.878 -0.2401  0.0392  0.0409
 9181TIP3    H148958   0.249   1.412  12.863 -0.7289  0.5694 -2.3472
 9181TIP3    H248959   0.132   1.343  12.797 -2.4234  0.8171  0.2817
 9182TIP3   OH248960   2.245   1.885   1.627  0.3156  0.1304 -0.6475
 9182TIP3    H148961   2.287   1.966   1.653 -0.8541  0.5092  0.1293
 9182TIP3    H248962   2.170   1.912   1.574 -0.2549 -0.4156 -0.1376
 9183TIP3   OH248963   5.298   5.272   1.832  0.4834 -0.1596  0.3447
 9183TIP3    H148964   5.335   5.360   1.826  2.9239 -1.3302 -5.2853
 9183TIP3    H248965   5.209   5.282   1.800 -0.0813  0.6132  2.0933
 9184TIP3   OH248966   1.522   4.776   1.298 -0.3300  0.1074  0.2342
 9184TIP3    H148967   1.457   4.709   1.275  0.6845 -0.4541 -1.1177
 9184TIP3    H248968   1.491   4.855   1.254 -0.8902  0.2231  0.8321
 9185TIP3   OH248969   0.740   3.449   4.877 -0.0189  0.2610 -0.1198
 9185TIP3    H148970   0.652   3.486   4.879 -0.6659 -1.0894 -1.9328
 9185TIP3    H248971   0.733   3.368   4.928  0.4972  0.7687  0.7769
 9186TIP3   OH248972   4.435   5.467   0.403  0.8491 -1.1170  0.1560
 9186TIP3    H148973   4.523   5.505   0.405 -0.5195  2.3524 -1.2670
 9186TIP3    H248974   4.430   5.421   0.319  0.0142  2.2454 -1.7466
 9187TIP3   OH248975   2.568   0.997  11.958 -0.5224  0.1209 -0.2211
 9187TIP3    H148976   2.571   1.047  11.876 -1.9450  0.2012 -0.2399
 9187TIP3    H248977   2.645   0.941  11.955  0.2666  1.2273 -0.9108
 9188TIP3   OH248978   1.862   0.956   5.291 -0.5206  0.0788  0.3117
 9188TIP3    H148979   1.888   0.984   5.204 -1.8400  0.8544  0.1510
 9188TIP3    H248980   1.780   1.003   5.308  0.6780  1.4112  2.7174
 9189TIP3   OH248981   0.703   4.030  16.350  0.3567  0.1997 -0.0454
 9189TIP3    H148982   0.723   4.079  16.270  1.2573 -0.6990 -0.3760
 9189TIP3    H248983   0.679   3.943  16.320 -2.0061  0.6047  0.4819
 9190TIP3   OH248984   4.627   5.081  13.344  0.4592 -0.3615  0.0861
 9190TIP3    H148985   4.710   5.080  13.296  0.7836  1.7139  0.5750
 9190TIP3    H248986   4.594   4.991  13.336  1.8782 -0.7633 -1.6176
 9191TIP3   OH248987   2.216   2.217   3.145  0.2095 -0.3877 -0.0223
 9191TIP3    H148988   2.212   2.146   3.081  0.2338  0.1168 -0.5890
 9191TIP3    H248989   2.288   2.193   3.203  0.4740 -0.6219 -0.4489
 9192TIP3   OH248990   2.969   3.575  14.581 -0.4383 -0.4931  0.3243
 9192TIP3    H148991   3.032   3.515  14.540 -0.2929 -0.1583  0.0545
 9192TIP3    H248992   2.983   3.659  14.536 -0.4315 -0.1800  0.9073
 9193TIP3   OH248993   6.030   3.521   6.441 -0.3438 -0.2584  0.7958
 9193TIP3    H148994   6.039   3.437   6.488  0.6765 -0.5914  0.0302
 9193TIP3    H248995   6.120   3.547   6.421 -0.6196  1.3602  1.5930
 9194TIP3   OH248996   6.562   5.627  13.315  0.2442  0.0495 -0.0226
 9194TIP3    H148997   6.523   5.573  13.246  0.5636  1.7059 -1.5249
 9194TIP3    H248998   6.647   5.585  13.331 -0.3476 -1.0740  0.2733
 9195TIP3   OH248999   6.147   4.217   0.473 -0.1176 -0.1569 -0.1584
 9195TIP3    H149000   6.195   4.145   0.514  0.1615  0.8437  1.2917
 9195TIP3    H249001   6.055   4.199   0.491  0.0871  1.2178  2.5525
 9196TIP3   OH249002   6.265   0.520   4.490  1.2423  0.2643  0.9512
 9196TIP3    H149003   6.260   0.463   4.414  2.2677  1.1993  0.1599
 9196TIP3    H249004   6.202   0.484   4.552  0.2836 -0.4261 -0.4020
 9197TIP3   OH249005   4.114   2.621  16.818 -0.5960  0.1175  0.2173
 9197TIP3    H149006   4.121   2.624  16.913 -0.1483 -2.7930  0.3403
 9197TIP3    H249007   4.041   2.679  16.797 -0.0642  1.5659  2.2307
 9198TIP3   OH249008   5.451   0.749   4.671  0.8501  0.1377 -0.1045
 9198TIP3    H149009   5.482   0.790   4.591  0.4666 -1.8223 -1.2971
 9198TIP3    H249010   5.468   0.655   4.658 -2.2079 -0.5930  0.6941
 9199TIP3   OH249011   4.953   4.732  15.576  0.1086  0.0432  0.2614
 9199TIP3    H149012   4.865   4.697  15.579  0.0377  0.1134 -0.8492
 9199TIP3    H249013   5.000   4.687  15.646 -0.4020 -1.1055 -0.1327
 9200TIP3   OH249014   0.264   4.624   6.040  0.3277  0.2945  0.0142
 9200TIP3    H149015   0.217   4.696   6.082  0.3417  0.8407 -0.8995
 9200TIP3    H249016   0.325   4.593   6.107 -1.7179 -0.8112  1.4211
 9201TIP3   OH249017   5.981   2.159   5.952 -0.3844  0.0977  0.0207
 9201TIP3    H149018   6.042   2.171   6.024  0.2054  0.0927 -0.4717
 9201TIP3    H249019   5.909   2.108   5.989  0.5289 -1.0218  0.2726
 9202TIP3   OH249020   4.256   0.531   1.036 -0.3980  0.3455 -0.2292
 9202TIP3    H149021   4.298   0.510   1.119  1.1960 -0.7183 -1.2903
 9202TIP3    H249022   4.281   0.461   0.977 -1.6238  1.0150 -1.5971
 9203TIP3   OH249023   2.306   4.428  16.543  0.2275 -0.3177  0.3395
 9203TIP3    H149024   2.344   4.382  16.619  0.8685  1.6821  1.2676
 9203TIP3    H249025   2.241   4.487  16.581 -0.6680 -0.5311 -0.8475
 9204TIP3   OH249026   6.427   3.035   3.978  0.2506  0.0588 -0.5370
 9204TIP3    H149027   6.467   3.063   4.061  0.4110 -1.8293  0.0417
 9204TIP3    H249028   6.343   3.082   3.975  0.3150  0.2599  0.6162
 9205TIP3   OH249029   1.403   2.404   4.326  0.2797 -0.4089 -0.0817
 9205TIP3    H149030   1.447   2.324   4.297 -0.1686 -0.3720 -0.8760
 9205TIP3    H249031   1.310   2.389   4.305 -0.0174 -0.2738  1.0974
 9206TIP3   OH249032   4.464   3.050  10.940 -0.1547 -0.6370  0.0700
 9206TIP3    H149033   4.511   2.968  10.926 -1.0976 -0.9277 -1.4563
 9206TIP3    H249034   4.508   3.113  10.884  1.2875  0.1991  2.0941
 9207TIP3   OH249035   4.890   2.330   1.458 -0.0394  0.2054 -0.2209
 9207TIP3    H149036   4.844   2.252   1.430 -1.3893  1.8866 -2.8429
 9207TIP3    H249037   4.833   2.370   1.523  0.5609 -0.8513  0.9743
 9208TIP3   OH249038   1.718   6.335  13.128  0.4255  0.1824 -0.0269
 9208TIP3    H149039   1.744   6.245  13.110  2.0145 -0.0364  2.9318
 9208TIP3    H249040   1.683   6.332  13.217  0.4858  2.4818  0.1016
 9209TIP3   OH249041   5.764   1.032   2.723 -0.2933 -0.1391 -0.3309
 9209TIP3    H149042   5.845   1.057   2.679 -0.8976 -0.6746 -1.7749
 9209TIP3    H249043   5.701   1.100   2.697  0.1856  1.4571  2.4495
 9210TIP3   OH249044   0.553   6.516  13.133 -0.4126 -0.3801  0.2070
 9210TIP3    H149045   0.570   6.605  13.162 -1.6380 -0.3302  0.7964
 9210TIP3    H249046   0.589   6.512  13.044 -1.4948  1.0827 -0.3195
 9211TIP3   OH249047   6.214   0.930  16.283  0.1620  0.2929  0.3354
 9211TIP3    H149048   6.256   0.970  16.359  1.2322  0.9270 -0.5666
 9211TIP3    H249049   6.281   0.872  16.246  1.0099  2.8026 -2.2612
 9212TIP3   OH249050   1.695   5.502  11.347  0.4215 -0.2749  0.2671
 9212TIP3    H149051   1.644   5.449  11.409  0.3491  0.8084  1.1344
 9212TIP3    H249052   1.629   5.537  11.287  0.4229 -0.7941 -0.0492
 9213TIP3   OH249053   3.909   1.839   3.460  0.1985  0.1490  0.5359
 9213TIP3    H149054   3.982   1.859   3.518  1.2819 -0.8691 -0.4615
 9213TIP3    H249055   3.909   1.743   3.453 -1.5832  0.0877  0.9667
 9214TIP3   OH249056   4.411   6.781   0.665 -0.1201 -0.0881  0.5723
 9214TIP3    H149057   4.325   6.817   0.688 -0.1927  1.0234 -1.2846
 9214TIP3    H249058   4.391   6.706   0.608  0.1472  1.1193 -1.1403
 9215TIP3   OH249059   1.837   2.201   2.763 -0.4507 -0.3133  0.0763
 9215TIP3    H149060   1.883   2.223   2.682 -0.1843  0.2715  0.3879
 9215TIP3    H249061   1.838   2.105   2.765 -0.4561 -0.3311 -0.6114
 9216TIP3   OH249062   0.103   5.244   4.192 -0.1631  0.3846  0.3030
 9216TIP3    H149063   0.156   5.307   4.144  0.3261 -0.9493 -0.9447
 9216TIP3    H249064   0.024   5.234   4.139 -0.0030 -0.4530  0.2151
 9217TIP3   OH249065   4.756   2.813   6.225 -0.5160 -0.1751  0.3280
 9217TIP3    H149066   4.677   2.824   6.278  1.4996  0.2440  3.3781
 9217TIP3    H249067   4.786   2.902   6.208 -1.0970 -0.3065 -1.5647
 9218TIP3   OH249068   0.724   0.561   5.865  0.1566  0.4720 -0.0508
 9218TIP3    H149069   0.700   0.470   5.882  0.5942  0.6856  1.8702
 9218TIP3    H249070   0.742   0.597   5.952 -1.0227  2.6795 -0.6888
 9219TIP3   OH249071   5.016   3.892  15.014 -0.5620 -0.4366 -0.1526
 9219TIP3    H149072   5.067   3.863  14.939  0.5704  1.3294 -0.1063
 9219TIP3    H249073   4.997   3.985  14.997  1.1241  0.4651  2.4463
 9220TIP3   OH249074   0.582   6.157  14.131  0.5256 -0.4814  0.2524
 9220TIP3    H149075   0.589   6.062  14.130  2.0292 -0.3786  0.0393
 9220TIP3    H249076   0.542   6.177  14.216 -2.1672 -1.4352 -0.7530
 9221TIP3   OH249077   0.913   4.271  13.086 -0.2163 -0.3059 -0.0734
 9221TIP3    H149078   0.991   4.327  13.083 -0.2438 -0.2676 -0.0763
 9221TIP3    H249079   0.894   4.262  13.180 -0.7628  0.4482 -0.1048
 9222TIP3   OH249080   2.265   0.641   1.942 -0.5814  0.0546 -0.5023
 9222TIP3    H149081   2.232   0.563   1.897 -0.7411 -0.2399  0.1264
 9222TIP3    H249082   2.235   0.632   2.032 -1.0076  1.0798 -0.5270
 9223TIP3   OH249083   3.118   5.523  12.390 -0.4030  0.2375  0.5454
 9223TIP3    H149084   3.194   5.531  12.447  0.3119  0.2801 -0.3911
 9223TIP3    H249085   3.057   5.590  12.421  0.1474  0.5274  0.9951
 9224TIP3   OH249086   1.540   0.535  16.850  0.3071  0.7627 -0.1764
 9224TIP3    H149087   1.561   0.628  16.845  0.9540  0.6408  0.1829
 9224TIP3    H249088   1.522   0.510  16.760  3.2049  0.5512 -0.7420
 9225TIP3   OH249089   0.801   5.659  12.216  0.4162  0.1352  0.1758
 9225TIP3    H149090   0.849   5.714  12.278 -0.6406 -0.0087  1.1194
 9225TIP3    H249091   0.866   5.596  12.184  1.0091  0.3399  0.9785
 9226TIP3   OH249092   4.409   5.048  16.965 -0.2217 -0.2253  0.3860
 9226TIP3    H149093   4.445   4.961  16.986 -1.2963 -0.6427  0.5442
 9226TIP3    H249094   4.315   5.038  16.977 -0.4667  0.6618 -0.7088
 9227TIP3   OH249095   4.107   2.968  16.133 -1.0981 -0.4351  0.2120
 9227TIP3    H149096   4.049   2.921  16.194 -1.5525  0.6241  0.6134
 9227TIP3    H249097   4.157   3.027  16.189  0.6405 -1.5900 -0.1025
 9228TIP3   OH249098   5.934   2.116   1.146  0.1073 -0.1705  0.3855
 9228TIP3    H149099   5.867   2.113   1.078 -0.9448  0.5804  1.3722
 9228TIP3    H249100   5.890   2.152   1.223  1.7191  0.6661  0.9601
 9229TIP3   OH249101   3.975   6.194  14.702 -0.5219 -0.1685  0.0105
 9229TIP3    H149102   4.061   6.231  14.721 -0.8588  1.5208 -1.6820
 9229TIP3    H249103   3.990   6.099  14.698  1.4346  0.1628 -1.1218
 9230TIP3   OH249104   1.054   5.682  16.306  0.4872  0.2568 -0.2712
 9230TIP3    H149105   0.979   5.655  16.253  1.0665 -1.1718 -0.3839
 9230TIP3    H249106   1.022   5.680  16.396 -0.2464  1.8299 -0.4924
 9231TIP3   OH249107   6.588   1.901  16.917 -0.2071 -0.0610 -0.0770
 9231TIP3    H149108   6.608   1.914  17.009  2.1774 -0.5500 -0.4834
 9231TIP3    H249109   6.643   1.826  16.891 -3.0331 -1.8110 -1.1902
 9232TIP3   OH249110   1.170   2.228   3.488 -0.9119 -0.2288  0.8218
 9232TIP3    H149111   1.109   2.160   3.461 -1.2559  0.2348  0.4216
 9232TIP3    H249112   1.160   2.297   3.422 -0.1542 -0.0334  0.9010
 9233TIP3   OH249113   4.102   2.542   0.391 -0.5767  0.5068  0.1745
 9233TIP3    H149114   4.098   2.484   0.315 -0.5061  0.4504  0.2134
 9233TIP3    H249115   4.055   2.621   0.363 -1.4086  0.0973  0.4206
 9234TIP3   OH249116   2.926   3.837   0.314  0.1952 -0.3761 -0.0422
 9234TIP3    H149117   2.928   3.885   0.396 -1.0714 -0.3672 -0.0152
 9234TIP3    H249118   2.983   3.761   0.329  0.9056  0.2430  0.4422
 9235TIP3   OH249119   4.114   3.061   1.037 -0.2114 -0.6608  0.4174
 9235TIP3    H149120   4.120   3.010   1.118 -0.2476 -2.6011 -0.7588
 9235TIP3    H249121   4.078   2.999   0.973 -2.4019  1.4910 -0.5218
 9236TIP3   OH249122   2.041   2.247   1.902 -0.0204 -0.1573  0.6519
 9236TIP3    H149123   2.022   2.191   1.826 -0.0577  0.1881  0.4047
 9236TIP3    H249124   2.046   2.335   1.865 -1.5357  0.2032  1.2875
 9237TIP3   OH249125   2.692   0.111  11.743  0.3350  0.1761  0.3559
 9237TIP3    H149126   2.618   0.058  11.774  1.5735  0.3730  3.7620
 9237TIP3    H249127   2.697   0.091  11.649 -4.1050  0.2861 -0.0077
 9238TIP3   OH249128   0.345   1.949   5.010  0.4762  0.2849  0.0327
 9238TIP3    H149129   0.287   1.953   5.086  2.9031  2.3767  1.8512
 9238TIP3    H249130   0.399   1.872   5.024  1.3937  1.0523  0.8446
 9239TIP3   OH249131   6.384   2.254   3.475 -0.2937  0.1428 -0.2172
 9239TIP3    H149132   6.335   2.270   3.556  1.8813  1.6551  0.8676
 9239TIP3    H249133   6.320   2.267   3.405 -2.0675 -0.5814  1.2269
 9240TIP3   OH249134   0.414   0.202   2.230  0.1798  0.2324 -0.5841
 9240TIP3    H149135   0.379   0.117   2.205 -0.6632  0.7082 -1.0316
 9240TIP3    H249136   0.379   0.263   2.165 -2.2879  1.5379  1.8786
 9241TIP3   OH249137   4.476   0.002  16.294  0.1731  0.6916  0.3176
 9241TIP3    H149138   4.437   0.064  16.356 -0.9341  0.9903 -0.6650
 9241TIP3    H249139   4.486   0.052  16.213 -0.1691 -0.2394 -0.3063
 9242TIP3   OH249140   1.735   4.765  11.999  0.1178 -0.1749 -0.1382
 9242TIP3    H149141   1.750   4.673  11.978 -0.9940 -0.3060 -0.3928
 9242TIP3    H249142   1.649   4.784  11.962 -0.5927  0.3898  1.7592
 9243TIP3   OH249143   3.452   5.751   1.102 -0.4443  0.6121 -0.2414
 9243TIP3    H149144   3.490   5.826   1.056  2.8849  0.3307  1.8976
 9243TIP3    H249145   3.430   5.689   1.033  1.1581  1.6367 -1.7100
 9244TIP3   OH249146   3.609   2.211  11.606 -0.0896 -0.2974 -0.2217
 9244TIP3    H149147   3.567   2.292  11.636  1.0969  0.2899 -0.0968
 9244TIP3    H249148   3.538   2.159  11.568 -0.8119  0.9434 -0.5906
 9245TIP3   OH249149   1.216   2.825  12.534 -0.8275 -0.1512  0.2074
 9245TIP3    H149150   1.250   2.882  12.465 -2.4046 -0.4236 -0.8319
 9245TIP3    H249151   1.253   2.739  12.515  1.3422  0.4433  1.6251
 9246TIP3   OH249152   1.165   0.432  15.367 -0.0119  0.0089  0.0413
 9246TIP3    H149153   1.090   0.379  15.393  0.4654 -0.4790  0.4413
 9246TIP3    H249154   1.173   0.498  15.436 -0.6667  0.6684 -0.5091
 9247TIP3   OH249155   2.078   3.930   4.663 -0.0575  0.1285  0.4809
 9247TIP3    H149156   2.118   3.962   4.744  0.6539  1.1271 -0.2476
 9247TIP3    H249157   2.122   3.980   4.593 -1.4869  0.1450 -0.4332
 9248TIP3   OH249158   0.565   1.815   0.866 -0.4623  0.1921  0.1532
 9248TIP3    H149159   0.477   1.824   0.827 -1.4172 -0.3220  2.1409
 9248TIP3    H249160   0.603   1.902   0.858 -1.3660  0.5654 -0.2362
 9249TIP3   OH249161   3.151   2.546  11.145 -0.1321  0.2088  0.3721
 9249TIP3    H149162   3.095   2.503  11.211  0.7656 -0.4589  0.7036
 9249TIP3    H249163   3.100   2.623  11.118 -0.6124  0.3819  1.6895
 9250TIP3   OH249164   0.855   1.036  12.283  0.0730  0.3727 -0.7477
 9250TIP3    H149165   0.912   0.992  12.221 -1.5202 -0.3892 -1.6904
 9250TIP3    H249166   0.915   1.076  12.347  1.6319 -0.4910 -1.6549
 9251TIP3   OH249167   4.818   5.460  15.446 -0.1975 -0.0941 -0.3824
 9251TIP3    H149168   4.836   5.370  15.474  0.3883 -0.0501 -0.6336
 9251TIP3    H249169   4.733   5.454  15.403 -0.9809 -0.2220  1.1298
 9252TIP3   OH249170   5.942   1.233  11.003  0.3308 -0.1857  0.1629
 9252TIP3    H149171   5.860   1.196  10.971  0.1192  0.0161  0.4785
 9252TIP3    H249172   5.966   1.177  11.076  0.3626 -0.1089  0.2104
 9253TIP3   OH249173   3.853   1.133  17.155 -0.6234 -0.0527  0.0403
 9253TIP3    H149174   3.926   1.124  17.217 -0.2405  1.8075 -0.1107
 9253TIP3    H249175   3.776   1.109  17.206 -0.5145  3.0544  1.7959
 9254TIP3   OH249176   6.188   3.335  13.295 -0.3015  0.5284 -0.3923
 9254TIP3    H149177   6.181   3.264  13.231  1.0775 -0.6008  0.6921
 9254TIP3    H249178   6.198   3.291  13.379  0.2327  2.0201  0.3392
 9255TIP3   OH249179   0.476   1.720   5.139 -0.5673  0.1380  0.5768
 9255TIP3    H149180   0.545   1.655   5.155  0.6855  1.0262 -1.0058
 9255TIP3    H249181   0.406   1.671   5.096  0.8301  0.0073 -1.6294
 9256TIP3   OH249182   4.465   6.304  15.280  0.0152  0.3951 -0.4429
 9256TIP3    H149183   4.550   6.262  15.294 -1.8458 -2.3639  3.3260
 9256TIP3    H249184   4.430   6.263  15.202  0.8297 -0.7106 -0.2344
 9257TIP3   OH249185   4.428   0.775  16.697  0.4791  0.1581 -0.8313
 9257TIP3    H149186   4.459   0.838  16.763  0.8914  1.3483 -2.1317
 9257TIP3    H249187   4.494   0.705  16.699  1.5876  1.1665 -1.3839
 9258TIP3   OH249188   1.803   5.024   6.059 -0.5257 -0.0349 -0.0570
 9258TIP3    H149189   1.877   4.962   6.059  0.4583  1.1086  1.7939
 9258TIP3    H249190   1.763   5.013   6.145 -1.1217  1.0128 -0.2015
 9259TIP3   OH249191   6.729   2.950  16.827 -0.3086 -0.4731 -0.0712
 9259TIP3    H149192   6.665   2.911  16.885 -0.1427 -0.3759  0.1816
 9259TIP3    H249193   6.726   2.897  16.748 -1.7971  0.4560 -0.6520
 9260TIP3   OH249194   2.074   4.489  13.516  0.1503  0.3569 -0.6080
 9260TIP3    H149195   1.998   4.479  13.459 -0.9404  1.5495  0.5716
 9260TIP3    H249196   2.117   4.404  13.515 -1.7867 -0.6488 -0.5050
 9261TIP3   OH249197   5.637   6.500   0.771 -0.1499 -0.4482 -0.2947
 9261TIP3    H149198   5.710   6.547   0.810  0.1042  1.3926 -2.8824
 9261TIP3    H249199   5.663   6.408   0.775  1.8644  0.1090 -0.3272
 9262TIP3   OH249200   2.531   4.512   5.002 -0.6050  0.6862  0.3365
 9262TIP3    H149201   2.596   4.582   5.016 -0.2043  0.0297  1.8469
 9262TIP3    H249202   2.447   4.558   5.001 -0.2269  1.3801 -0.2729
 9263TIP3   OH249203   5.390   5.431   0.243  0.1613 -0.3202  0.3711
 9263TIP3    H149204   5.461   5.470   0.193 -0.1425  0.3077  0.4203
 9263TIP3    H249205   5.310   5.469   0.205 -0.2998 -2.8658 -1.3368
 9264TIP3   OH249206   0.377   3.591   3.584  0.0429 -0.2424  0.2110
 9264TIP3    H149207   0.394   3.563   3.494 -1.7591  0.4940 -0.3865
 9264TIP3    H249208   0.299   3.543   3.610 -0.2246  0.5528  0.9022
 9265TIP3   OH249209   4.923   5.496   1.877 -0.1399 -0.0170  0.0685
 9265TIP3    H149210   4.951   5.430   1.940 -1.3660 -0.0316  0.6072
 9265TIP3    H249211   4.897   5.446   1.800  0.6048 -0.0464 -0.1702
 9266TIP3   OH249212   3.238   3.009   1.867 -0.0211  0.4553 -0.0247
 9266TIP3    H149213   3.223   2.929   1.818 -0.6057  1.3067 -1.2610
 9266TIP3    H249214   3.332   3.025   1.858  0.2696 -0.6353  1.0806
 9267TIP3   OH249215   5.946   0.406   5.841  0.3519 -0.5329 -0.1818
 9267TIP3    H149216   5.917   0.476   5.899  0.4854 -0.6486  0.0246
 9267TIP3    H249217   5.919   0.434   5.754  0.6664 -0.0816 -0.1368
 9268TIP3   OH249218   1.591   0.543   3.530  0.2012  0.2821 -0.7050
 9268TIP3    H149219   1.593   0.447   3.527 -0.4045  0.1504  1.9185
 9268TIP3    H249220   1.546   0.569   3.449 -0.0462 -1.6448 -1.2119
 9269TIP3   OH249221   0.345   5.049   0.805  0.2900  0.4045 -0.6181
 9269TIP3    H149222   0.385   5.046   0.891 -1.8110 -0.2102  0.3870
 9269TIP3    H249223   0.271   5.109   0.815 -3.0232 -3.4723 -0.5717
 9270TIP3   OH249224   6.670   2.356  14.722  0.2070  0.0142 -0.1093
 9270TIP3    H149225   6.607   2.333  14.653  0.4342 -0.7917 -0.0585
 9270TIP3    H249226   6.701   2.272  14.754 -0.1593  0.3823  1.2351
 9271TIP3   OH249227   6.176   4.806   5.950  0.4145  0.6390 -0.1372
 9271TIP3    H149228   6.210   4.886   5.990  1.4143  0.2950 -0.2882
 9271TIP3    H249229   6.082   4.809   5.966  0.4350  1.9042 -0.2582
 9272TIP3   OH249230   0.778   5.735   1.830 -0.1359 -0.6319  0.4157
 9272TIP3    H149231   0.772   5.652   1.783  0.2456 -1.2556  1.4449
 9272TIP3    H249232   0.779   5.801   1.761  3.3400 -1.6602 -0.6322
 9273TIP3   OH249233   2.420   6.257  13.993 -0.4060 -0.3997  0.1764
 9273TIP3    H149234   2.477   6.282  14.065 -0.1734 -0.9690  0.1891
 9273TIP3    H249235   2.360   6.331  13.983  1.2508  0.8410 -0.7921
 9274TIP3   OH249236   6.644   3.936   1.901 -0.6048 -0.2797  0.2696
 9274TIP3    H149237   6.710   3.875   1.932 -1.6829 -0.7453  1.7008
 9274TIP3    H249238   6.590   3.954   1.978 -2.0944  0.1555 -0.8548
 9275TIP3   OH249239   4.176   0.157   0.755 -0.3059  0.3306 -0.1923
 9275TIP3    H149240   4.244   0.218   0.784  1.3507 -1.5819  0.0152
 9275TIP3    H249241   4.137   0.123   0.836  0.1877 -0.4408 -0.2735
 9276TIP3   OH249242   2.792   5.477  14.591  0.0315 -0.4503 -0.4423
 9276TIP3    H149243   2.817   5.501  14.502  3.2574 -2.6656 -0.2263
 9276TIP3    H249244   2.838   5.539  14.648 -1.5595  0.5957 -0.2669
 9277TIP3   OH249245   3.789   4.889  12.725  0.3007  0.1273  0.9850
 9277TIP3    H149246   3.823   4.827  12.661  1.7100  1.7903  0.0758
 9277TIP3    H249247   3.701   4.911  12.693  0.8047  0.5612 -0.1267
 9278TIP3   OH249248   5.470   4.570  14.478  0.1662  0.0895  0.0736
 9278TIP3    H149249   5.401   4.504  14.470 -0.6106  1.0399 -1.0560
 9278TIP3    H249250   5.546   4.520  14.508 -1.9023 -0.4180  5.0042
 9279TIP3   OH249251   1.921   3.784  12.034  0.8267  0.5698 -0.4042
 9279TIP3    H149252   1.890   3.695  12.015 -2.4600  1.7201 -0.7540
 9279TIP3    H249253   1.942   3.821  11.949 -3.1834  1.9303 -0.9306
 9280TIP3   OH249254   4.304   5.617  15.658 -0.0738  0.8062 -0.0527
 9280TIP3    H149255   4.237   5.615  15.590 -0.1385  0.5776  0.0158
 9280TIP3    H249256   4.383   5.585  15.616  0.0476  1.2797 -0.1904
 9281TIP3   OH249257   6.042   6.653   4.372 -0.1671 -0.5663  0.6948
 9281TIP3    H149258   6.081   6.626   4.289 -1.8388 -1.1516  0.0879
 9281TIP3    H249259   6.045   6.749   4.369  1.5863 -0.6008  0.8473
 9282TIP3   OH249260   4.599   6.146   5.703  0.3266  0.1097 -0.5689
 9282TIP3    H149261   4.646   6.162   5.785 -0.7707 -2.1198  0.5316
 9282TIP3    H249262   4.507   6.150   5.727 -0.0243  1.0829 -2.0380
 9283TIP3   OH249263   0.296   6.405  12.409 -0.5471  0.0050  0.4483
 9283TIP3    H149264   0.325   6.357  12.331 -3.2476 -2.5078  0.9090
 9283TIP3    H249265   0.358   6.378  12.478 -2.0432 -2.9965  0.7217
 9284TIP3   OH249266   4.434   2.447   0.328 -0.4003 -0.1044 -0.2151
 9284TIP3    H149267   4.513   2.468   0.278 -0.9544 -1.0501 -1.5375
 9284TIP3    H249268   4.395   2.373   0.280 -0.2896 -1.8652  2.3240
 9285TIP3   OH249269   0.460   3.891  14.971 -0.2941 -0.3849  0.0779
 9285TIP3    H149270   0.517   3.842  14.912 -0.4664  0.9848 -1.2547
 9285TIP3    H249271   0.518   3.924  15.039  0.4154  0.4565 -0.9176
 9286TIP3   OH249272   3.802   5.635  14.591 -0.1182 -0.3391 -0.1588
 9286TIP3    H149273   3.717   5.680  14.600 -0.7928 -1.5263 -0.5477
 9286TIP3    H249274   3.797   5.592  14.506 -0.4016 -3.0892  1.2132
 9287TIP3   OH249275   4.081   6.356  10.472  0.1473 -0.0158  0.1729
 9287TIP3    H149276   4.164   6.401  10.486  0.6502 -1.0750  0.6002
 9287TIP3    H249277   4.105   6.268  10.446 -0.8430 -0.1994 -0.1618
 9288TIP3   OH249278   6.174   0.792  12.707 -0.3656 -0.8528  0.1330
 9288TIP3    H149279   6.081   0.813  12.711 -0.5813 -1.0807 -2.7430
 9288TIP3    H249280   6.209   0.825  12.790 -2.5682  1.4543  0.2230
 9289TIP3   OH249281   2.712   0.723  11.728 -0.0780 -0.0734  0.3723
 9289TIP3    H149282   2.684   0.753  11.642  0.3229  0.0684  0.2925
 9289TIP3    H249283   2.756   0.798  11.767 -2.0101  0.5217  1.5069
 9290TIP3   OH249284   1.570   3.780   1.316  0.1941  0.1280 -0.5479
 9290TIP3    H149285   1.575   3.847   1.248 -0.0808  0.3597 -0.3377
 9290TIP3    H249286   1.661   3.768   1.345  0.4320 -0.6391 -1.6024
 9291TIP3   OH249287   3.979   2.856  12.619 -0.1659 -0.3551  0.1206
 9291TIP3    H149288   3.911   2.788  12.613 -0.7044  0.1158  0.8283
 9291TIP3    H249289   3.999   2.861  12.712  1.2893 -0.9160 -0.1443
 9292TIP3   OH249290   0.042   5.644   3.956  0.8403  0.3553 -0.2785
 9292TIP3    H149291  -0.041   5.615   3.993  0.6194  0.5938 -0.5842
 9292TIP3    H249292   0.055   5.731   3.993 -0.0655  1.1673 -1.8219
 9293TIP3   OH249293   4.916   1.389  11.799  0.9151 -0.4898 -0.1723
 9293TIP3    H149294   4.863   1.413  11.875  1.8558  2.2268 -0.3227
 9293TIP3    H249295   4.852   1.367  11.731  0.0147  0.4387  0.3595
 9294TIP3   OH249296   0.808   2.498  15.467  0.1960 -0.1574  0.3394
 9294TIP3    H149297   0.819   2.559  15.394  0.7173  2.3184  2.4530
 9294TIP3    H249298   0.895   2.460  15.480  0.9134  1.9612  1.8672
 9295TIP3   OH249299   2.745   4.932   1.906 -0.3721 -0.0026  0.0511
 9295TIP3    H149300   2.796   4.892   1.836 -1.5039 -0.3196 -0.6075
 9295TIP3    H249301   2.719   5.017   1.871 -3.4773 -1.3475 -1.1648
 9296TIP3   OH249302   0.860   3.811   0.045  0.1463 -0.3074  0.1851
 9296TIP3    H149303   0.944   3.840   0.080  0.4379 -1.8402  0.8023
 9296TIP3    H249304   0.864   3.833  -0.048  2.2073 -2.5107 -0.2932
 9297TIP3   OH249305   6.135   2.420   0.569  0.4558 -0.2519 -0.2909
 9297TIP3    H149306   6.059   2.412   0.627 -0.2591  1.0869 -1.0366
 9297TIP3    H249307   6.197   2.473   0.619 -0.7766  2.2560 -1.3197
 9298TIP3   OH249308   4.067   3.103  12.209  0.0023  0.0826  0.5401
 9298TIP3    H149309   4.090   3.066  12.294 -0.5056  1.0232  1.0948
 9298TIP3    H249310   3.973   3.117  12.214  0.3403  2.4599  0.7494
 9299TIP3   OH249311   0.268   5.898   5.541 -0.0401 -0.1404  0.5534
 9299TIP3    H149312   0.195   5.926   5.596  0.6336  1.4261  0.6818
 9299TIP3    H249313   0.279   5.968   5.478 -1.1236 -2.1590 -1.9442
 9300TIP3   OH249314   4.341   6.383  13.737  0.0710 -0.2005 -0.4121
 9300TIP3    H149315   4.281   6.440  13.690 -0.5536 -1.0101 -0.6201
 9300TIP3    H249316   4.403   6.442  13.779 -1.0219  0.6671  0.0128
 9301TIP3   OH249317   1.969   0.652  11.015 -0.1033  0.5256 -0.1026
 9301TIP3    H149318   1.992   0.574  10.964  0.4671  1.2943 -1.0374
 9301TIP3    H249319   1.964   0.621  11.105  0.7901 -0.4558 -0.3789
 9302TIP3   OH249320   0.738   2.261  15.742  0.0892  0.5913  0.6575
 9302TIP3    H149321   0.698   2.222  15.664 -1.8667 -1.5549  2.6283
 9302TIP3    H249322   0.832   2.249  15.729 -0.2338 -0.1090 -1.1920
 9303TIP3   OH249323   1.088   3.326   2.432  0.3721  0.4362  0.7009
 9303TIP3    H149324   1.133   3.392   2.486  0.3917  1.0126 -0.0057
 9303TIP3    H249325   1.029   3.282   2.492 -1.1913  2.5397  0.7612
 9304TIP3   OH249326   4.589   3.308   0.591  0.8407 -0.0550  0.1616
 9304TIP3    H149327   4.682   3.324   0.606  0.6263 -0.3022  1.8113
 9304TIP3    H249328   4.551   3.300   0.678 -1.2952  3.1428 -0.4006
 9305TIP3   OH249329   6.770   2.908  15.385 -0.2471  0.0792  0.8363
 9305TIP3    H149330   6.735   2.827  15.421 -2.1037 -0.5427 -2.1923
 9305TIP3    H249331   6.863   2.891  15.373 -0.3465 -1.0753  1.6599
 9306TIP3   OH249332   4.119   5.968   0.094 -0.5549  0.4029 -0.2851
 9306TIP3    H149333   4.167   5.923   0.163 -2.1126  0.0205  0.5812
 9306TIP3    H249334   4.172   6.044   0.072  0.8200 -0.4347  0.0891
 9307TIP3   OH249335   0.259   5.366   4.861  0.4147  0.2127 -0.2096
 9307TIP3    H149336   0.241   5.421   4.937  0.9756 -1.0468  0.8400
 9307TIP3    H249337   0.354   5.351   4.864  0.2083 -1.1087 -0.2922
 9308TIP3   OH249338   2.210   4.962  14.719 -0.0476  0.5810 -0.0701
 9308TIP3    H149339   2.231   4.911  14.641 -0.5081 -2.2580  1.5986
 9308TIP3    H249340   2.121   4.993  14.703 -0.2381 -0.1996 -0.5668
 9309TIP3   OH249341   1.617   1.632  10.969  0.3952  0.9386  0.0446
 9309TIP3    H149342   1.608   1.538  10.983  1.9979  0.8967  0.8784
 9309TIP3    H249343   1.530   1.660  10.939 -0.7293 -0.4175  1.9570
 9310TIP3   OH249344   2.261   1.874   1.129 -0.5381  0.0462 -0.1763
 9310TIP3    H149345   2.204   1.904   1.058 -1.4020  1.8180  1.2236
 9310TIP3    H249346   2.267   1.949   1.188  1.7894 -0.7387  0.6227
 9311TIP3   OH249347   4.285   5.199   1.590 -0.0048 -0.4411 -0.5142
 9311TIP3    H149348   4.261   5.281   1.547 -0.6559 -0.4318 -0.1303
 9311TIP3    H249349   4.238   5.200   1.673 -1.8132 -2.2660 -1.4815
 9312TIP3   OH249350   5.463   1.993   1.796 -0.2374  0.3520 -0.1174
 9312TIP3    H149351   5.398   2.032   1.855  0.6004  0.9805  0.3923
 9312TIP3    H249352   5.547   2.028   1.826  0.3983 -0.8590 -0.4564
 9313TIP3   OH249353   4.795   3.925   4.092  0.5580  0.5943  0.5130
 9313TIP3    H149354   4.815   3.916   3.999  1.6400 -0.0251  0.7952
 9313TIP3    H249355   4.775   3.836   4.121  0.2954  0.7723  0.8894
 9314TIP3   OH249356   5.128   3.204  11.117  0.2827 -0.3442 -0.1203
 9314TIP3    H149357   5.218   3.208  11.148  0.5185 -2.0870 -0.5453
 9314TIP3    H249358   5.133   3.155  11.035 -0.9216  0.4087 -0.6522
 9315TIP3   OH249359   4.868   3.835  10.839 -0.4071 -0.2293 -0.2473
 9315TIP3    H149360   4.911   3.920  10.841  0.5867 -0.7687  2.8049
 9315TIP3    H249361   4.926   3.780  10.786 -0.1141  0.4621 -0.6517
 9316TIP3   OH249362   5.783   0.700   5.455  0.2190 -0.4927 -0.2491
 9316TIP3    H149363   5.809   0.786   5.423  0.4278 -0.9091 -1.1903
 9316TIP3    H249364   5.695   0.713   5.491  0.1062  0.0258 -0.7206
 9317TIP3   OH249365   4.840   4.052  12.716  0.3221  0.2500 -0.0852
 9317TIP3    H149366   4.760   4.077  12.670  0.3696  1.6980  0.5759
 9317TIP3    H249367   4.812   4.035  12.806  0.5219 -0.7350 -0.2055
 9318TIP3   OH249368   4.593   6.418   2.867  0.0389  0.5020 -0.5030
 9318TIP3    H149369   4.599   6.487   2.934 -0.4313  2.1129 -2.1045
 9318TIP3    H249370   4.671   6.364   2.883  0.0147  0.9357  1.2531
 9319TIP3   OH249371   2.353   0.643   5.179 -0.5177  0.4589 -0.2995
 9319TIP3    H149372   2.275   0.605   5.220 -0.0244 -0.1876  0.0355
 9319TIP3    H249373   2.337   0.738   5.181 -2.1387  0.2481 -1.9256
 9320TIP3   OH249374   1.908   2.124  11.581 -0.1185 -0.2747  0.6966
 9320TIP3    H149375   1.949   2.083  11.656  1.1513 -0.1990  0.0512
 9320TIP3    H249376   1.904   2.217  11.603  1.0781 -0.1248  0.3002
 9321TIP3   OH249377   0.396   2.197   3.152  0.3460  0.1783  0.5018
 9321TIP3    H149378   0.445   2.279   3.162  2.2774 -0.9982  0.8762
 9321TIP3    H249379   0.463   2.129   3.152 -1.2643 -1.4331  0.4594
 9322TIP3   OH249380   1.443   5.045   0.407 -0.1019  0.2294  0.4442
 9322TIP3    H149381   1.527   5.068   0.448 -0.0119  1.7411 -0.5658
 9322TIP3    H249382   1.452   5.074   0.317 -1.1055 -1.1295 -0.1079
 9323TIP3   OH249383   3.833   5.442   3.800 -0.3658 -0.4449 -0.1469
 9323TIP3    H149384   3.884   5.450   3.880 -0.2199  0.5502 -0.3326
 9323TIP3    H249385   3.747   5.411   3.829 -0.6200  0.8453  0.5111
 9324TIP3   OH249386   5.098   3.040  13.009 -0.4643  0.2911  0.3077
 9324TIP3    H149387   5.100   3.127  13.050 -0.3592  1.0915 -1.3227
 9324TIP3    H249388   5.158   3.049  12.934 -0.1560 -1.3116  0.3603
 9325TIP3   OH249389   5.689   3.755   3.384  0.8401 -0.2276  0.7228
 9325TIP3    H149390   5.722   3.671   3.415  1.2923 -0.0635  0.6789
 9325TIP3    H249391   5.619   3.777   3.446  0.5902 -0.7236  0.6229
 9326TIP3   OH249392   2.471   5.797  17.007  0.3182 -0.3806 -0.0012
 9326TIP3    H149393   2.508   5.874  16.964 -3.9970  0.9246 -1.6068
 9326TIP3    H249394   2.509   5.723  16.960  2.2894  0.8089 -0.3467
 9327TIP3   OH249395   1.152   4.781   5.739  0.2348 -0.0727  0.2081
 9327TIP3    H149396   1.156   4.828   5.656  0.8684 -1.1787 -0.4116
 9327TIP3    H249397   1.156   4.849   5.806  0.2758  0.7954 -0.6655
 9328TIP3   OH249398   4.692   6.779   0.406  0.2738 -0.1537 -0.3020
 9328TIP3    H149399   4.732   6.792   0.320 -1.2241  0.6311 -0.8879
 9328TIP3    H249400   4.746   6.712   0.447  1.7429  0.3429 -1.3723
 9329TIP3   OH249401   1.864   3.164  12.136 -0.0018 -0.2796  0.1323
 9329TIP3    H149402   1.903   3.186  12.051  1.7135  0.5570  1.1213
 9329TIP3    H249403   1.856   3.247  12.181 -2.1390 -0.5673  0.2979
 9330TIP3   OH249404   3.940   0.230   2.522  0.0210 -0.3640  0.1361
 9330TIP3    H149405   3.874   0.263   2.460 -1.3271 -1.9933  0.6828
 9330TIP3    H249406   4.015   0.208   2.467 -0.3703  0.2178 -0.6559
 9331TIP3   OH249407   4.238   3.383   4.869  0.1857 -0.0712 -0.1920
 9331TIP3    H149408   4.180   3.344   4.805 -0.2057  1.0930 -0.5628
 9331TIP3    H249409   4.200   3.360   4.954 -0.8310  0.6891 -0.4306
 9332TIP3   OH249410   3.327   6.139  10.873  0.4090 -0.2183  0.2049
 9332TIP3    H149411   3.351   6.115  10.962  1.9833 -1.2539 -0.4725
 9332TIP3    H249412   3.299   6.056  10.832  1.7617 -0.1469 -0.8917
 9333TIP3   OH249413   2.526   2.114  15.169 -0.2997  0.3464 -0.0459
 9333TIP3    H149414   2.443   2.139  15.130 -0.4900 -2.2188 -1.3629
 9333TIP3    H249415   2.502   2.063  15.246  0.0638 -0.2345 -0.3192
 9334TIP3   OH249416   6.186   6.488  12.983 -0.6609  0.1488  0.1068
 9334TIP3    H149417   6.197   6.575  13.023  0.5017  1.0294 -2.0655
 9334TIP3    H249418   6.273   6.450  12.986 -0.6429  0.0806 -1.2670
 9335TIP3   OH249419   1.813   3.878   4.664 -0.6593  0.3914 -0.3898
 9335TIP3    H149420   1.789   3.821   4.736 -0.2074 -0.7090 -1.1042
 9335TIP3    H249421   1.908   3.871   4.658 -0.6935  0.4833 -1.0807
 9336TIP3   OH249422   0.798   2.894  14.598  0.5296  0.5132  0.4211
 9336TIP3    H149423   0.762   2.983  14.599  1.8803  1.0831  2.3644
 9336TIP3    H249424   0.726   2.839  14.569 -0.3447  2.2328 -0.8009
 9337TIP3   OH249425   1.148   2.225   0.181 -0.4355  0.0484  0.3754
 9337TIP3    H149426   1.153   2.319   0.198  0.0939  0.0318  0.3325
 9337TIP3    H249427   1.063   2.212   0.140 -0.4125  0.5434  0.1701
 9338TIP3   OH249428   4.444   6.003   4.572 -0.6876  0.0779  0.4313
 9338TIP3    H149429   4.487   5.950   4.639 -0.3020 -1.1508 -0.7618
 9338TIP3    H249430   4.488   6.087   4.576  1.0242 -0.7760  0.0484
 9339TIP3   OH249431   5.339   0.426   3.501 -0.2002  0.4748  0.6463
 9339TIP3    H149432   5.310   0.473   3.422 -0.7951  0.4234  0.8342
 9339TIP3    H249433   5.338   0.492   3.570 -2.0737 -0.0554  1.1421
 9340TIP3   OH249434   0.890   6.777  17.071 -0.1019  0.2084  0.0135
 9340TIP3    H149435   0.822   6.798  17.006 -0.0179 -2.5171 -1.0305
 9340TIP3    H249436   0.972   6.786  17.023  0.1567  1.2211  0.6345
 9341TIP3   OH249437   6.103   5.458   2.798  0.2617 -0.2376 -0.3566
 9341TIP3    H149438   6.195   5.432   2.803  0.5562  0.7502 -0.5076
 9341TIP3    H249439   6.065   5.429   2.881  0.4367 -1.6600 -0.7599
 9342TIP3   OH249440   0.917   0.824   1.775 -0.6107  0.0576 -0.5249
 9342TIP3    H149441   0.886   0.760   1.712 -0.4296 -1.6724  1.0811
 9342TIP3    H249442   1.012   0.826   1.763 -0.5856 -0.1997 -0.3574
 9343TIP3   OH249443   0.236   2.884   1.267 -0.0614  0.3446 -0.4512
 9343TIP3    H149444   0.183   2.923   1.336 -1.7412 -1.9736 -0.3979
 9343TIP3    H249445   0.323   2.874   1.306 -1.1039 -1.3752  1.5312
 9344TIP3   OH249446   3.469   3.127  13.883 -0.0932 -0.1439  0.5329
 9344TIP3    H149447   3.388   3.083  13.909 -0.0462  0.3660  1.5579
 9344TIP3    H249448   3.539   3.074  13.922  0.0647 -0.4925 -0.2135
 9345TIP3   OH249449   2.506   5.299   5.240  0.3179 -0.6945  0.4592
 9345TIP3    H149450   2.571   5.301   5.310  0.6121  1.8395  0.1714
 9345TIP3    H249451   2.426   5.332   5.280  0.2734 -0.0038 -0.1911
 9346TIP3   OH249452   2.046   3.547  12.780  0.2387 -0.4656 -0.8632
 9346TIP3    H149453   2.043   3.453  12.765  0.6319 -0.5417 -0.4673
 9346TIP3    H249454   2.080   3.557  12.869  0.2809  0.0507 -0.9313
 9347TIP3   OH249455   6.337   1.486  15.736  0.0312  0.3052 -0.7797
 9347TIP3    H149456   6.417   1.452  15.775 -0.9822  0.5083  1.5356
 9347TIP3    H249457   6.360   1.576  15.710  0.7252  0.1589 -0.6860
 9348TIP3   OH249458   4.240   2.458   3.024 -0.2602  0.0293 -0.7682
 9348TIP3    H149459   4.231   2.503   2.940  0.9076 -0.6229 -1.2630
 9348TIP3    H249460   4.152   2.425   3.043 -0.3578 -0.6048 -2.1980
 9349TIP3   OH249461   0.145   0.888   1.721 -0.1643 -0.0780 -0.3553
 9349TIP3    H149462   0.175   0.906   1.632 -1.3012 -0.6765 -0.8764
 9349TIP3    H249463   0.057   0.853   1.710 -0.7517  0.9093  1.0904
 9350TIP3   OH249464   4.149   2.456   5.956  1.2464  0.5138  0.0566
 9350TIP3    H149465   4.143   2.374   6.006 -0.1761  0.2877 -0.4735
 9350TIP3    H249466   4.153   2.525   6.023 -0.1189  0.1767  0.5031
 9351TIP3   OH249467   6.701   3.770  12.081  0.1556  0.8208 -0.0835
 9351TIP3    H149468   6.667   3.680  12.089 -1.2101  1.3753  0.5804
 9351TIP3    H249469   6.624   3.825  12.091  0.9254  2.0682 -0.9458
 9352TIP3   OH249470   4.649   5.939  15.223  0.5238  0.0581 -0.6561
 9352TIP3    H149471   4.696   6.015  15.188  0.3678  0.8894  0.8762
 9352TIP3    H249472   4.719   5.880  15.253  0.6285  0.1169 -0.7840
 9353TIP3   OH249473   5.981   4.338   5.485  0.1195  0.5060 -0.2714
 9353TIP3    H149474   5.888   4.352   5.502  0.1063  1.9969 -1.4534
 9353TIP3    H249475   5.991   4.243   5.487 -1.9580  0.1730 -2.6947
 9354TIP3   OH249476   2.986   4.072  13.937 -0.4342  0.0246  0.0013
 9354TIP3    H149477   2.931   4.150  13.930 -0.0904  0.3150  0.4867
 9354TIP3    H249478   2.924   3.999  13.932 -0.7789  0.3310 -0.2543
 9355TIP3   OH249479   1.540   3.908  10.982 -0.9097  0.1100 -0.5145
 9355TIP3    H149480   1.598   3.952  10.919  2.2141 -0.5460  1.7845
 9355TIP3    H249481   1.518   3.975  11.046  0.8201 -0.6781  0.9428
 9356TIP3   OH249482   6.716   1.548  14.444 -0.3595 -0.7349 -0.0165
 9356TIP3    H149483   6.775   1.527  14.516  2.3665  0.7660 -1.7321
 9356TIP3    H249484   6.688   1.638  14.462  0.1714 -0.4286 -0.7467
 9357TIP3   OH249485   1.167   3.141  14.295  0.0270 -0.3299  0.1947
 9357TIP3    H149486   1.143   3.205  14.228 -2.5371  0.2956  1.6422
 9357TIP3    H249487   1.249   3.173  14.331 -0.7089  1.5903  0.1837
 9358TIP3   OH249488   0.151   6.382   1.296  0.1824  0.5220  0.5093
 9358TIP3    H149489   0.107   6.429   1.225 -0.2738  0.9285  1.0645
 9358TIP3    H249490   0.235   6.426   1.305  0.0728  0.7328  0.5046
 9359TIP3   OH249491   3.225   3.699   2.490 -0.2347 -0.3754 -0.1308
 9359TIP3    H149492   3.267   3.784   2.483  2.3029 -1.6306 -0.4878
 9359TIP3    H249493   3.256   3.663   2.573 -0.7352 -1.2605 -0.3110
 9360TIP3   OH249494   1.863   1.220  16.831 -0.2238  0.1459 -0.4116
 9360TIP3    H149495   1.773   1.216  16.797 -0.4515  0.4879  0.1356
 9360TIP3    H249496   1.860   1.289  16.898  0.2065 -0.5293  0.3095
 9361TIP3   OH249497   0.108   1.915   2.877 -0.6789  0.5033 -0.6407
 9361TIP3    H149498   0.050   1.861   2.823 -2.0301  1.4203 -0.1491
 9361TIP3    H249499   0.055   1.991   2.900  1.0105  1.7832 -0.8601
 9362TIP3   OH249500   3.805   5.837   3.785  0.4242 -0.6069 -0.1401
 9362TIP3    H149501   3.728   5.783   3.768 -0.0083 -0.3239  0.8731
 9362TIP3    H249502   3.822   5.826   3.878  0.5675  0.6954 -0.0036
 9363TIP3   OH249503   1.883   3.840  13.215 -0.1376  0.3470 -0.4771
 9363TIP3    H149504   1.819   3.896  13.170  1.6619  2.2293 -0.7849
 9363TIP3    H249505   1.844   3.753  13.213 -1.8131  1.0931 -2.3726
 9364TIP3   OH249506   1.390   0.037  15.858 -0.2413  0.3121  0.5074
 9364TIP3    H149507   1.349   0.099  15.797  0.4802  1.5375  1.2363
 9364TIP3    H249508   1.478   0.025  15.824 -0.1874  0.1548  0.7022
 9365TIP3   OH249509   2.106   0.955  14.649  0.2130  0.1881  0.2960
 9365TIP3    H149510   2.106   1.045  14.616  1.8903  0.1379  0.1039
 9365TIP3    H249511   2.166   0.957  14.724  0.3181 -0.7673  0.2431
 9366TIP3   OH249512   6.119   6.074  14.190  0.1137 -0.4731  0.4839
 9366TIP3    H149513   6.142   6.026  14.111 -0.0198 -0.5607  0.4988
 9366TIP3    H249514   6.195   6.060  14.248  0.2925 -0.2530  0.3028
 9367TIP3   OH249515   6.682   0.245  13.034 -0.4546 -0.1178  0.1636
 9367TIP3    H149516   6.727   0.272  12.954  1.0304 -1.0434  0.6600
 9367TIP3    H249517   6.648   0.326  13.072 -1.3103  0.3130 -1.4698
 9368TIP3   OH249518   6.445   6.048  17.162  0.0904 -0.1298  0.1652
 9368TIP3    H149519   6.492   5.995  17.226 -2.3067 -2.2192  0.2858
 9368TIP3    H249520   6.512   6.077  17.101  1.9805 -0.4733  2.0130
 9369TIP3   OH249521   3.324   0.001   2.065  0.5444  0.0273  0.1269
 9369TIP3    H149522   3.311  -0.048   1.984  0.2706  0.8666 -0.3399
 9369TIP3    H249523   3.264  -0.040   2.127  1.1705 -0.9880  0.0728
 9370TIP3   OH249524   0.253   4.872   3.132 -0.5095  0.2353 -0.5163
 9370TIP3    H149525   0.317   4.824   3.184  0.8674  1.2617 -1.2164
 9370TIP3    H249526   0.168   4.841   3.163  0.2996  0.0356  1.5771
 9371TIP3   OH249527   2.729   3.466  14.698 -0.0087 -0.5405 -0.4456
 9371TIP3    H149528   2.756   3.447  14.788 -1.9228  0.1353  0.2875
 9371TIP3    H249529   2.800   3.519  14.662 -1.0074  2.5643  1.9626
 9372TIP3   OH249530   3.365   4.996   5.417 -0.4772 -0.1486 -0.2028
 9372TIP3    H149531   3.285   4.992   5.363 -1.1225  0.2717  0.7170
 9372TIP3    H249532   3.351   5.071   5.475 -0.5999 -1.6693  1.8048
 9373TIP3   OH249533   1.843   1.157   4.403  0.7969  0.0279  0.0939
 9373TIP3    H149534   1.823   1.250   4.413  1.5040  0.3029 -0.9262
 9373TIP3    H249535   1.890   1.134   4.483 -1.9811 -0.1967  1.6852
 9374TIP3   OH249536   5.033   6.772  12.126 -0.5551 -0.0761 -0.0805
 9374TIP3    H149537   5.081   6.758  12.208 -1.6001  0.8130  0.7011
 9374TIP3    H249538   4.963   6.708  12.128  0.3723 -1.1289 -1.0488
 9375TIP3   OH249539   3.551   0.182  16.729 -0.4906  0.1269  0.3652
 9375TIP3    H149540   3.482   0.122  16.758 -1.5067  0.5200 -1.1440
 9375TIP3    H249541   3.517   0.269  16.750  0.1342  0.2696  0.8080
 9376TIP3   OH249542   6.599   1.757   1.392 -0.4324 -0.1625  0.0378
 9376TIP3    H149543   6.653   1.678   1.389 -0.3161 -0.1806  2.1301
 9376TIP3    H249544   6.662   1.829   1.382 -0.4599 -0.2924 -1.1684
 9377TIP3   OH249545   4.325   6.222  14.466 -0.4533 -0.2215 -0.0187
 9377TIP3    H149546   4.291   6.311  14.460 -0.5679 -0.3578 -1.3852
 9377TIP3    H249547   4.326   6.190  14.376 -0.5450 -1.6527  0.4761
 9378TIP3   OH249548   3.768   6.693   6.354 -0.1705 -0.4321 -0.1840
 9378TIP3    H149549   3.695   6.677   6.414 -0.7260  1.7044 -0.2479
 9378TIP3    H249550   3.729   6.684   6.267  0.0100 -0.8553 -0.2209
 9379TIP3   OH249551   6.586   4.467   4.503  0.8334 -0.1855 -0.3142
 9379TIP3    H149552   6.526   4.504   4.437  0.3687 -0.2285  0.0806
 9379TIP3    H249553   6.627   4.393   4.459 -0.4214 -0.9908 -0.1500
 9380TIP3   OH249554   5.080   0.984  11.997  0.5533 -0.0952  0.3213
 9380TIP3    H149555   5.014   1.053  12.003  0.2534 -0.4360  0.9447
 9380TIP3    H249556   5.055   0.934  11.919  0.4395  0.1568  0.1973
 9381TIP3   OH249557   0.031   2.056   0.595 -0.5683  0.2923 -0.3375
 9381TIP3    H149558   0.030   2.085   0.686  1.3019  0.7561 -0.4591
 9381TIP3    H249559   0.081   2.123   0.549 -0.5035 -0.5555 -1.5064
 9382TIP3   OH249560   1.077   4.714  12.373 -0.2331  0.7974  0.4583
 9382TIP3    H149561   1.076   4.626  12.410  1.9620  0.3973 -0.3356
 9382TIP3    H249562   1.085   4.772  12.449  0.6034  0.1848  0.8443
 9383TIP3   OH249563   1.868   6.560  10.211  0.9459 -0.1368 -0.3009
 9383TIP3    H149564   1.827   6.619  10.274 -0.7349 -1.8791  0.2727
 9383TIP3    H249565   1.911   6.618  10.148 -0.3773  1.6881  0.4445
 9384TIP3   OH249566   4.369   3.222  14.938  0.3436 -0.2634 -0.1778
 9384TIP3    H149567   4.406   3.301  14.978  1.1456 -0.5828 -0.2740
 9384TIP3    H249568   4.437   3.155  14.949 -0.1973 -0.8599 -0.3849
 9385TIP3   OH249569   0.827   6.134  13.601  0.3432 -0.1040  0.3951
 9385TIP3    H149570   0.785   6.063  13.552  0.1402  0.8613 -0.8642
 9385TIP3    H249571   0.917   6.105  13.613 -0.0261 -1.0677  0.8613
 9386TIP3   OH249572   4.877   5.901  16.415  0.0526  0.2218  0.1604
 9386TIP3    H149573   4.954   5.926  16.362 -0.2739  0.3246 -0.2662
 9386TIP3    H249574   4.831   5.837  16.361 -0.6595  0.8570  0.0188
 9387TIP3   OH249575   1.191   0.491   6.056 -0.2394 -0.4866  0.1159
 9387TIP3    H149576   1.224   0.463   5.971  1.2240 -0.0603  0.5146
 9387TIP3    H249577   1.256   0.555   6.087 -1.4053  0.2952  0.9925
 9388TIP3   OH249578   4.768   0.523   4.502 -0.1608 -0.2038 -0.0512
 9388TIP3    H149579   4.776   0.611   4.465 -1.0648 -0.0855  0.0206
 9388TIP3    H249580   4.845   0.477   4.471  0.3027  0.6069 -0.1224
 9389TIP3   OH249581   3.394   3.568  10.503  0.1967 -0.4316  0.1237
 9389TIP3    H149582   3.460   3.584  10.571 -1.0585 -0.3583  1.3393
 9389TIP3    H249583   3.371   3.656  10.471  1.4376 -0.5165 -1.0400
 9390TIP3   OH249584   1.622   3.458   2.763  0.2121  0.4054 -0.6252
 9390TIP3    H149585   1.623   3.542   2.717  1.4731  1.2200  0.8689
 9390TIP3    H249586   1.529   3.433   2.764 -0.0076  1.0787 -2.3046
 9391TIP3   OH249587   1.319   2.405   2.317  0.1504  0.2236  0.1959
 9391TIP3    H149588   1.336   2.493   2.350  4.7074 -0.7286  0.8066
 9391TIP3    H249589   1.290   2.355   2.393  0.3867  0.5257  0.4831
 9392TIP3   OH249590   3.201   0.627  14.213  0.0327  0.6153  0.1140
 9392TIP3    H149591   3.280   0.626  14.159  0.0932 -1.7193  0.1973
 9392TIP3    H249592   3.234   0.613  14.302 -0.4081  0.4006  0.2406
 9393TIP3   OH249593   1.478   2.040   2.826 -0.6999 -0.6216 -0.0798
 9393TIP3    H149594   1.506   1.960   2.782  0.6045 -0.5567  0.5924
 9393TIP3    H249595   1.404   2.013   2.881 -0.3142 -1.3608  0.0841
 9394TIP3   OH249596   0.535   0.664   5.687  0.5036  0.4695 -0.3743
 9394TIP3    H149597   0.589   0.626   5.756  0.7145  1.6315  0.1239
 9394TIP3    H249598   0.516   0.753   5.718  0.3717  0.9133 -1.6936
 9395TIP3   OH249599   1.939   5.347   2.869  0.3514 -0.0793  0.3143
 9395TIP3    H149600   1.907   5.267   2.911  2.9312 -0.9060  0.7638
 9395TIP3    H249601   2.031   5.330   2.851  0.7645  2.5281 -0.2607
 9396TIP3   OH249602   5.192   3.037  14.070  0.3812 -0.0338  0.0285
 9396TIP3    H149603   5.126   2.967  14.073  0.2894  0.0694  0.6481
 9396TIP3    H249604   5.260   3.008  14.130  0.6158  0.1429 -0.1524
 9397TIP3   OH249605   2.995   2.257   6.029  0.2659 -0.1564 -0.3061
 9397TIP3    H149606   2.948   2.242   6.111  0.3875 -1.4661 -0.4533
 9397TIP3    H249607   3.062   2.188   6.028  1.1798  0.7331 -0.8337
 9398TIP3   OH249608   2.116   5.460   5.059 -0.1625  0.4210  0.2874
 9398TIP3    H149609   2.179   5.412   5.006 -0.5291  0.5992 -0.3199
 9398TIP3    H249610   2.100   5.404   5.135  0.3888  0.1776  0.2196
 9399TIP3   OH249611   1.609   5.303  15.262  0.4883  0.1815  0.3500
 9399TIP3    H149612   1.609   5.214  15.226 -0.1078 -0.3169  1.5404
 9399TIP3    H249613   1.672   5.351  15.209  0.9692 -1.0191 -0.1694
 9400TIP3   OH249614   0.937   4.120   4.962  0.1844 -0.2317  0.3759
 9400TIP3    H149615   0.975   4.148   4.879 -0.2131 -2.0775 -0.4564
 9400TIP3    H249616   0.950   4.025   4.964 -0.1547 -0.2632  2.2510
 9401TIP3   OH249617   3.411   2.789  16.642  0.0948 -0.4936  0.1816
 9401TIP3    H149618   3.506   2.784  16.629  0.2302 -1.9881  1.5860
 9401TIP3    H249619   3.375   2.802  16.554  1.6389  0.7532 -0.2872
 9402TIP3   OH249620   3.844   6.096   4.621  0.1455  0.1601  0.2271
 9402TIP3    H149621   3.792   6.162   4.667  0.6177 -0.0309  1.0440
 9402TIP3    H249622   3.856   6.026   4.685  1.1426  0.0659 -0.0548
 9403TIP3   OH249623   3.274   2.934  13.924 -0.0819  0.1241 -0.1440
 9403TIP3    H149624   3.239   2.927  13.835  0.3694 -0.2647 -0.2953
 9403TIP3    H249625   3.204   2.903  13.980 -0.6776  1.1570 -0.3055
 9404TIP3   OH249626   4.488   1.086  17.142 -0.4474  0.7348  0.0327
 9404TIP3    H149627   4.455   1.175  17.140 -0.8648  0.5677 -1.3682
 9404TIP3    H249628   4.545   1.083  17.219 -1.2309  1.9067  0.6725
 9405TIP3   OH249629   3.814   1.329  16.961 -0.2525  0.3478 -0.1259
 9405TIP3    H149630   3.832   1.266  17.030  0.6015  0.6256 -0.0917
 9405TIP3    H249631   3.785   1.275  16.887 -0.2906 -0.0217  0.1571
 9406TIP3   OH249632   6.211   2.398  15.632 -0.3162  0.2405 -0.0236
 9406TIP3    H149633   6.142   2.438  15.687  0.4136  1.5163 -0.0114
 9406TIP3    H249634   6.222   2.460  15.560  1.2737  0.3586  0.3123
 9407TIP3   OH249635   3.808   1.853  15.811  0.2185  0.3950  0.3397
 9407TIP3    H149636   3.899   1.822  15.813 -0.3888 -1.4220  0.9261
 9407TIP3    H249637   3.815   1.948  15.816  2.1826  0.4269 -1.8786
 9408TIP3   OH249638   2.924   1.237  13.785  0.0968 -0.8099  0.4716
 9408TIP3    H149639   2.911   1.319  13.736 -1.9698 -1.1972  0.3134
 9408TIP3    H249640   2.994   1.257  13.847  0.0683  0.8970 -0.0214
 9409TIP3   OH249641   6.451   6.548   3.814 -0.0165 -0.6418 -0.0168
 9409TIP3    H149642   6.546   6.548   3.797  0.2761 -0.5290  1.5426
 9409TIP3    H249643   6.423   6.460   3.789  0.6209 -0.9009  0.1622
 9410TIP3   OH249644   2.980   3.781  14.955  0.4288 -0.1396 -0.6946
 9410TIP3    H149645   2.891   3.746  14.949 -0.0380  0.6678  0.9868
 9410TIP3    H249646   3.035   3.714  14.916 -0.4056 -2.9859  2.7580
 9411TIP3   OH249647   5.611   5.121  12.811 -0.1804 -0.2749 -0.3053
 9411TIP3    H149648   5.666   5.137  12.734  0.2012  0.3200  0.0866
 9411TIP3    H249649   5.581   5.031  12.801 -0.0166 -0.2475 -1.0776
 9412TIP3   OH249650   3.589   4.549  16.011  0.1750  0.6832 -0.2226
 9412TIP3    H149651   3.608   4.550  16.105 -1.4917  0.2364  0.1411
 9412TIP3    H249652   3.529   4.622  15.998 -0.2390  0.2383 -0.8015
 9413TIP3   OH249653   1.548   3.692  11.600 -0.5577 -0.7440 -0.2140
 9413TIP3    H149654   1.598   3.736  11.531  0.4397 -2.1388 -0.3842
 9413TIP3    H249655   1.598   3.708  11.680 -1.3417  0.2675  0.0853
 9414TIP3   OH249656   1.724   6.231  16.381 -0.2777  0.3769 -0.4737
 9414TIP3    H149657   1.774   6.303  16.342 -0.7688  1.1224  0.2506
 9414TIP3    H249658   1.632   6.260  16.375 -0.4936 -0.2749 -0.3368
 9415TIP3   OH249659   1.098   0.575   4.931  0.2158 -0.5084  0.3883
 9415TIP3    H149660   1.051   0.522   4.866  0.6673 -0.1276 -0.2503
 9415TIP3    H249661   1.182   0.530   4.943  0.2407 -0.4295  0.5157
 9416TIP3   OH249662   6.784   6.616  11.354  0.3124  0.1056 -0.0214
 9416TIP3    H149663   6.780   6.565  11.273  0.2446 -2.6062  1.6099
 9416TIP3    H249664   6.868   6.592  11.393 -0.1519  0.5247  1.2516
 9417TIP3   OH249665   0.728   6.014  12.909 -0.0358  0.5483  0.3030
 9417TIP3    H149666   0.662   6.080  12.931 -0.7086  0.8661 -2.4269
 9417TIP3    H249667   0.680   5.931  12.906  0.0923  0.4730  0.3006
 9418TIP3   OH249668   0.867   3.642   2.323 -0.4434  0.9599 -0.2918
 9418TIP3    H149669   0.929   3.656   2.252 -0.4438  1.5179 -0.1837
 9418TIP3    H249670   0.883   3.715   2.384 -0.2004  0.2941  0.4474
 9419TIP3   OH249671   0.859   0.533   0.628  0.3575 -0.6251  0.0616
 9419TIP3    H149672   0.805   0.458   0.655 -0.3114 -0.5825 -1.1422
 9419TIP3    H249673   0.879   0.578   0.710 -2.1787 -0.1547  0.4647
 9420TIP3   OH249674   0.540   1.492   1.680  0.1665 -0.0639 -0.2269
 9420TIP3    H149675   0.537   1.397   1.689 -1.0147 -0.1157 -1.0431
 9420TIP3    H249676   0.618   1.509   1.628 -0.2147 -0.6673 -1.0003
 9421TIP3   OH249677   3.965   0.664   5.348  0.2381  0.2017 -0.2518
 9421TIP3    H149678   3.925   0.577   5.334 -2.2507  1.1788  0.4302
 9421TIP3    H249679   4.009   0.656   5.433 -0.4113 -0.2626  0.0499
 9422TIP3   OH249680   3.379   1.821   5.915 -0.4698  0.2493 -0.5468
 9422TIP3    H149681   3.394   1.731   5.887  1.4128  0.3684 -0.0076
 9422TIP3    H249682   3.362   1.815   6.009 -3.8072  0.1453 -1.0916
 9423TIP3   OH249683   5.127   2.234   1.302 -0.1841 -0.0872 -0.2345
 9423TIP3    H149684   5.221   2.237   1.321 -0.3652  0.7125  0.6084
 9423TIP3    H249685   5.087   2.279   1.377 -1.1712  0.3275 -1.0097
 9424TIP3   OH249686   4.190   0.649   2.938  0.4801  0.6038  0.4804
 9424TIP3    H149687   4.205   0.690   2.853  1.2376  1.8897  1.2212
 9424TIP3    H249688   4.096   0.660   2.953  0.1655 -0.4439 -0.5816
 9425TIP3   OH249689   0.269   0.897  16.597  0.3562  0.0180 -0.4510
 9425TIP3    H149690   0.193   0.927  16.547  0.9672  0.9001 -0.8583
 9425TIP3    H249691   0.231   0.855  16.675 -0.5302  1.2040 -0.2266
 9426TIP3   OH249692   2.374   3.075   2.701  0.4426 -0.5966  0.2198
 9426TIP3    H149693   2.334   3.020   2.769  0.6653  1.0005  1.6697
 9426TIP3    H249694   2.299   3.119   2.660  0.4257 -0.4797  0.3775
 9427TIP3   OH249695   0.389   5.552  12.785 -0.1334 -0.1032  0.4708
 9427TIP3    H149696   0.296   5.562  12.804  0.1196 -1.1833  2.4959
 9427TIP3    H249697   0.404   5.458  12.793  1.2630  0.1461  0.9036
 9428TIP3   OH249698   4.338   6.580   0.504  0.5332  0.2416  0.1354
 9428TIP3    H149699   4.333   6.513   0.573  1.2166 -0.3594 -0.3939
 9428TIP3    H249700   4.285   6.546   0.433  1.5474 -0.1203 -0.4536
 9429TIP3   OH249701   4.374   3.527   0.083 -0.0991 -0.7798 -0.3590
 9429TIP3    H149702   4.340   3.477   0.157 -0.0763  0.8478  0.7771
 9429TIP3    H249703   4.342   3.616   0.097 -1.4305 -0.7703 -3.1684
 9430TIP3   OH249704   5.901   2.804  11.699 -0.0186  0.1542 -0.2144
 9430TIP3    H149705   5.892   2.870  11.767 -0.8790  0.7768 -0.9222
 9430TIP3    H249706   5.917   2.853  11.619  0.0798 -0.5245 -0.6171
 9431TIP3   OH249707   4.319   5.704   3.092  0.0880 -0.3254 -0.5907
 9431TIP3    H149708   4.346   5.791   3.118 -3.1111  0.6000 -0.2244
 9431TIP3    H249709   4.328   5.651   3.171  1.2196 -0.1534 -0.5955
 9432TIP3   OH249710   3.096   4.133  14.587 -0.2667 -0.4861  0.5531
 9432TIP3    H149711   3.100   4.096  14.499  2.6500 -0.8552  0.8091
 9432TIP3    H249712   3.070   4.224  14.574  0.0599 -0.5636 -0.6804
 9433TIP3   OH249713   4.553   3.585  14.559 -0.0888  0.3358  0.0980
 9433TIP3    H149714   4.550   3.673  14.523 -1.5806  0.0611 -0.4928
 9433TIP3    H249715   4.485   3.584  14.627 -0.6686 -0.6000 -0.4888
 9434TIP3   OH249716   1.329   3.985  12.766 -0.1303  0.0660  0.5032
 9434TIP3    H149717   1.307   4.006  12.857 -0.0956  0.1513  0.4923
 9434TIP3    H249718   1.246   3.992  12.719  0.5646  4.2264 -0.2548
 9435TIP3   OH249719   0.786   3.083   0.435 -0.6099  0.7536  0.3446
 9435TIP3    H149720   0.696   3.076   0.467 -0.2969  0.9402  1.2650
 9435TIP3    H249721   0.823   2.996   0.450  0.2843  1.5186  2.7708
 9436TIP3   OH249722   4.856   3.011   3.604 -0.8052 -0.1320  0.1083
 9436TIP3    H149723   4.901   3.015   3.689  0.9065 -1.6584 -0.6932
 9436TIP3    H249724   4.830   3.101   3.587  0.5505  0.5227  1.3510
 9437TIP3   OH249725   6.290   1.065   2.342 -0.1304  0.0465  0.2994
 9437TIP3    H149726   6.245   1.130   2.288 -0.4641 -0.8203 -0.4848
 9437TIP3    H249727   6.323   1.114   2.417  0.9716  1.4139 -1.0463
 9438TIP3   OH249728   3.803   0.193  15.459  0.3806 -0.1239  1.1005
 9438TIP3    H149729   3.768   0.277  15.429  1.4655  0.2122  0.7567
 9438TIP3    H249730   3.813   0.203  15.553  1.0039  0.3081  0.9838
 9439TIP3   OH249731   6.172   4.518   0.934  0.4872  0.6159  0.4227
 9439TIP3    H149732   6.258   4.534   0.896  0.4506  1.1719  0.5748
 9439TIP3    H249733   6.111   4.524   0.861  0.7314 -1.3357  0.0198
 9440TIP3   OH249734   1.942   5.700  13.650 -0.0946 -0.8092  0.0123
 9440TIP3    H149735   1.918   5.608  13.636 -0.0103 -1.0770  1.5581
 9440TIP3    H249736   1.909   5.721  13.737  0.1077  0.5671 -0.2254
 9441TIP3   OH249737   5.054   6.354   2.812 -0.0126  0.0837 -0.5219
 9441TIP3    H149738   4.966   6.355   2.774 -0.5162 -0.6454  0.6182
 9441TIP3    H249739   5.105   6.299   2.753 -0.9592 -1.5939  0.2103
 9442TIP3   OH249740   5.460   0.270   4.480  0.2872  0.0043  0.9538
 9442TIP3    H149741   5.389   0.221   4.439  0.8139 -0.1206  0.1692
 9442TIP3    H249742   5.447   0.258   4.574 -2.0986  1.9032  0.9337
 9443TIP3   OH249743   1.988   1.154  11.746  0.8546  0.1415  0.5856
 9443TIP3    H149744   2.046   1.219  11.706 -1.0089  1.0848 -0.5866
 9443TIP3    H249745   2.013   1.155  11.839  0.8248  2.5489  0.5847
 9444TIP3   OH249746   6.305   5.935  14.015 -0.3417  0.2038  0.7301
 9444TIP3    H149747   6.282   5.995  13.944 -0.8974  1.2691  1.7967
 9444TIP3    H249748   6.267   5.851  13.988  0.7433  0.2039 -0.9361
 9445TIP3   OH249749   3.479   4.884  12.204  0.4048  0.1320  1.0033
 9445TIP3    H149750   3.530   4.957  12.168  0.1672 -0.4114 -0.4678
 9445TIP3    H249751   3.446   4.837  12.127 -1.1586 -0.3367  1.9285
 9446TIP3   OH249752   1.609   6.048   0.174 -0.5313 -0.1702 -0.1306
 9446TIP3    H149753   1.633   6.130   0.217  0.9556  0.1346 -1.4852
 9446TIP3    H249754   1.684   6.027   0.118  0.1518 -3.6792  1.9113
 9447TIP3   OH249755   3.773   5.417  16.121 -0.4017 -0.3020  0.0927
 9447TIP3    H149756   3.804   5.358  16.053  1.5791 -0.4311  1.0639
 9447TIP3    H249757   3.714   5.363  16.175 -0.2788 -0.7949 -0.2646
 9448TIP3   OH249758   5.837   4.871  11.655 -0.0038  0.0250  0.1895
 9448TIP3    H149759   5.929   4.869  11.627  0.1036  1.1872  0.4556
 9448TIP3    H249760   5.790   4.827  11.584  0.9792 -2.2663  0.9273
 9449TIP3   OH249761   5.526   1.029   5.514 -0.2143 -0.0584 -0.0638
 9449TIP3    H149762   5.461   0.993   5.575 -1.3426 -1.1360 -1.8440
 9449TIP3    H249763   5.522   0.970   5.438  0.0802  2.0888 -1.7800
 9450TIP3   OH249764   3.822   6.387  11.620  0.3442 -0.2425  0.7992
 9450TIP3    H149765   3.774   6.406  11.700 -0.0509  0.0245  0.4983
 9450TIP3    H249766   3.776   6.313  11.581  0.4069 -0.2313  0.7033
 9451TIP3   OH249767   2.386   3.441   4.575 -0.2279 -0.4231  0.1856
 9451TIP3    H149768   2.417   3.372   4.517  1.5192 -0.1976  0.8325
 9451TIP3    H249769   2.425   3.521   4.539 -1.6029  0.1356 -0.1002
 9452TIP3   OH249770   0.754   5.622  16.144 -0.1092  0.2127 -0.3184
 9452TIP3    H149771   0.732   5.560  16.074  0.8878 -1.8907  1.1751
 9452TIP3    H249772   0.815   5.683  16.103 -1.0013  0.1304 -1.7885
 9453TIP3   OH249773   3.960   1.544  16.923 -0.1777 -0.1460  0.7481
 9453TIP3    H149774   4.035   1.536  16.981  1.3593  1.9737 -0.8505
 9453TIP3    H249775   3.910   1.464  16.937  2.6744 -1.8903  1.4507
 9454TIP3   OH249776   2.518   0.727   3.673 -0.2331 -0.5361 -0.0588
 9454TIP3    H149777   2.482   0.760   3.756  0.4567  0.0735  0.0026
 9454TIP3    H249778   2.492   0.792   3.608 -3.6978 -2.6619 -0.9837
 9455TIP3   OH249779   6.127   2.950  13.664 -0.4043  0.2206 -0.1693
 9455TIP3    H149780   6.073   2.980  13.737  0.9099  0.1701  0.8477
 9455TIP3    H249781   6.144   2.858  13.683 -2.4174 -0.5845 -2.0431
 9456TIP3   OH249782   0.645   0.928  15.613  0.4785  0.2949 -0.0332
 9456TIP3    H149783   0.651   0.833  15.612  2.9496  0.4114  1.2759
 9456TIP3    H249784   0.681   0.954  15.698 -0.7649  2.3630 -0.1053
 9457TIP3   OH249785   5.130   5.767   3.999  0.2575 -0.1688  0.0243
 9457TIP3    H149786   5.159   5.705   4.066  2.1322 -0.2453 -0.8290
 9457TIP3    H249787   5.072   5.827   4.046  1.0386 -0.5986  1.5854
 9458TIP3   OH249788   1.706   6.295   5.346 -0.6623 -0.1083  0.1995
 9458TIP3    H149789   1.777   6.231   5.348  1.0553  1.7704  0.0134
 9458TIP3    H249790   1.684   6.308   5.439  0.4359  0.6305  0.3570
 9459TIP3   OH249791   6.031   4.186  12.656  0.2743  0.4985 -0.0915
 9459TIP3    H149792   5.955   4.169  12.712 -0.8656 -0.8950 -2.0008
 9459TIP3    H249793   6.092   4.232  12.713 -0.9684 -0.5954  2.2284
 9460TIP3   OH249794   3.606   2.600   5.254  0.3342  0.3581  0.2189
 9460TIP3    H149795   3.520   2.574   5.286 -0.7106  0.9830 -2.0011
 9460TIP3    H249796   3.639   2.522   5.208  0.5872  0.4000  0.3284
 9461TIP3   OH249797   1.971   4.266   3.078  0.1473  0.0365 -0.0842
 9461TIP3    H149798   2.004   4.348   3.116 -0.4650  0.0871  0.3298
 9461TIP3    H249799   1.895   4.293   3.026  1.2560  0.0468 -1.7637
 9462TIP3   OH249800   2.391   5.063   3.468 -0.2680 -0.2880 -0.0122
 9462TIP3    H149801   2.336   5.079   3.545  0.6212 -1.3817  0.8417
 9462TIP3    H249802   2.452   5.136   3.467 -0.7345  0.1084 -0.0979
 9463TIP3   OH249803   0.952   1.097  11.501 -0.0673  0.0554 -0.0163
 9463TIP3    H149804   1.030   1.153  11.497  0.1636 -0.2496  0.1914
 9463TIP3    H249805   0.905   1.127  11.579 -0.6141  0.8315 -0.6357
 9464TIP3   OH249806   3.330   1.826   1.937 -0.6989  0.7873  0.0288
 9464TIP3    H149807   3.242   1.793   1.954 -0.6379 -1.0388 -2.8588
 9464TIP3    H249808   3.319   1.887   1.864  0.0102  2.9240  1.6678
 9465TIP3   OH249809   2.540   4.471  13.402 -0.4668 -0.2976  0.1414
 9465TIP3    H149810   2.614   4.507  13.353 -2.1191  1.5143 -1.0903
 9465TIP3    H249811   2.518   4.390  13.356  0.2521 -0.4387  0.0413
 9466TIP3   OH249812   4.987   3.635   2.032 -0.3883 -0.3875  0.1452
 9466TIP3    H149813   4.932   3.652   1.955 -0.2113 -0.5563 -0.0206
 9466TIP3    H249814   5.063   3.692   2.021 -1.0324  0.6525  0.9250
 9467TIP3   OH249815   2.922   2.160   2.731  0.1717 -0.0754 -0.0279
 9467TIP3    H149816   2.989   2.220   2.765 -0.0041  0.3801 -0.4690
 9467TIP3    H249817   2.917   2.181   2.637  0.5033 -1.1616 -0.2991
 9468TIP3   OH249818   5.802   1.104  12.494  0.1888  0.0446  0.3591
 9468TIP3    H149819   5.799   1.116  12.399  0.3346 -1.5650  0.1488
 9468TIP3    H249820   5.814   1.193  12.528 -0.2196  0.6851 -1.1011
 9469TIP3   OH249821   1.672   6.009  14.694 -0.0843  0.0372 -0.2942
 9469TIP3    H149822   1.710   6.001  14.781  0.0674  0.1580 -0.3509
 9469TIP3    H249823   1.698   6.096  14.663  0.9867 -0.5225 -1.0015
 9470TIP3   OH249824   3.317   3.914  14.413  0.3657 -0.7562  0.0585
 9470TIP3    H149825   3.326   4.009  14.412  0.2263 -0.7473 -1.8234
 9470TIP3    H249826   3.226   3.898  14.437  0.5497 -0.4295  0.9754
 9471TIP3   OH249827   3.215   3.083   1.492  0.0539  0.1499  0.0515
 9471TIP3    H149828   3.257   3.168   1.492  0.3410  0.0493 -2.7844
 9471TIP3    H249829   3.287   3.020   1.487 -0.2521 -0.1568 -0.5902
 9472TIP3   OH249830   2.925   0.690  15.539 -0.2439 -0.3431  0.2232
 9472TIP3    H149831   3.006   0.640  15.537 -1.0031 -1.5828 -2.6929
 9472TIP3    H249832   2.857   0.625  15.558 -1.1921 -0.4575 -3.2104
 9473TIP3   OH249833   0.853   1.551  16.904 -0.1588 -0.7927 -0.1896
 9473TIP3    H149834   0.907   1.487  16.859  0.7583 -0.6809  0.7463
 9473TIP3    H249835   0.852   1.627  16.847  0.5307 -0.8597 -0.2904
 9474TIP3   OH249836   5.110   1.724   4.444 -0.4227  0.8758  0.2547
 9474TIP3    H149837   5.114   1.788   4.372 -0.1372  0.7850  0.1904
 9474TIP3    H249838   5.028   1.677   4.429  0.3019 -0.0826 -0.8105
 9475TIP3   OH249839   5.992   1.870  12.958  0.3380 -0.5112  0.6327
 9475TIP3    H149840   6.018   1.853  12.867 -0.8552 -0.0891  0.1865
 9475TIP3    H249841   5.901   1.840  12.962  0.0056  0.5662  1.3577
 9476TIP3   OH249842   0.379   2.275  17.220 -0.0523 -0.2938 -0.3582
 9476TIP3    H149843   0.297   2.319  17.196  0.6656  0.3704 -1.6324
 9476TIP3    H249844   0.448   2.333  17.188  0.9592  0.0394  2.2928
 9477TIP3   OH249845   6.526   1.891   5.312  0.6819 -0.7131  0.1264
 9477TIP3    H149846   6.551   1.862   5.400 -0.0359  3.2886  1.7912
 9477TIP3    H249847   6.605   1.933   5.278  0.0710  0.4251  0.1063
 9478TIP3   OH249848   0.823   5.381   3.163 -0.5476  0.5615 -0.7720
 9478TIP3    H149849   0.861   5.334   3.089 -0.1975 -1.2116  0.5214
 9478TIP3    H249850   0.839   5.325   3.239 -2.2769  1.6217  0.4168
 9479TIP3   OH249851   4.381   5.814   2.329  0.0191 -0.6588 -0.7627
 9479TIP3    H149852   4.416   5.749   2.390 -0.0537  0.2298  0.2160
 9479TIP3    H249853   4.455   5.834   2.271 -0.0605 -1.8822 -1.3103
 9480TIP3   OH249854   2.374   3.968  14.883 -0.6908  0.2014  0.0815
 9480TIP3    H149855   2.380   3.897  14.819 -1.2627 -1.1380  1.4882
 9480TIP3    H249856   2.302   4.023  14.851 -1.1832 -0.6287 -0.2568
 9481TIP3   OH249857   2.167   4.654  14.880  0.6431 -0.4600  0.0213
 9481TIP3    H149858   2.126   4.709  14.947  0.7603 -2.7940  2.0773
 9481TIP3    H249859   2.095   4.600  14.846  0.7823  0.0194 -1.0697
 9482TIP3   OH249860   0.646   1.591  14.874 -0.1833 -0.2423 -0.4504
 9482TIP3    H149861   0.618   1.615  14.962 -1.5516 -0.2762 -0.8637
 9482TIP3    H249862   0.657   1.674  14.828  0.0522 -0.2396 -0.3880
 9483TIP3   OH249863   4.722   0.618  16.510  0.3772 -0.4253 -0.0958
 9483TIP3    H149864   4.680   0.537  16.481  0.5309 -1.4228  2.3112
 9483TIP3    H249865   4.807   0.590  16.545  0.4110  0.7456  0.7868
 9484TIP3   OH249866   4.081   4.808   4.532  0.2258  0.1682  0.2184
 9484TIP3    H149867   4.034   4.742   4.480 -1.3374  0.4251  1.2533
 9484TIP3    H249868   4.075   4.776   4.622 -1.1184  2.0076  0.8251
 9485TIP3   OH249869   1.208   2.633   3.856  0.0836 -0.1435 -0.2728
 9485TIP3    H149870   1.291   2.641   3.808  0.8602  0.9616  1.2309
 9485TIP3    H249871   1.176   2.723   3.865 -1.5499 -0.6078 -1.2889
 9486TIP3   OH249872   3.264   3.610   1.797  0.2023 -0.4421 -0.6362
 9486TIP3    H149873   3.207   3.675   1.754 -0.2561 -0.0516  0.5611
 9486TIP3    H249874   3.320   3.578   1.726  0.8349  1.6906 -1.1467
 9487TIP3   OH249875   6.610   2.512  13.454  0.2765 -0.3784 -0.3128
 9487TIP3    H149876   6.672   2.462  13.402  0.0268 -1.0738  0.0544
 9487TIP3    H249877   6.546   2.447  13.485 -0.2624  0.2211 -0.1500
 9488TIP3   OH249878   1.127   3.634  15.348 -0.0156  0.0173 -0.0124
 9488TIP3    H149879   1.218   3.604  15.352 -0.4080 -1.0929  0.7182
 9488TIP3    H249880   1.134   3.728  15.334  1.2656  0.0852  0.9473
 9489TIP3   OH249881   4.679   0.241   1.659  0.4362  0.1544  0.1461
 9489TIP3    H149882   4.700   0.163   1.608  1.6744  0.0296  0.8144
 9489TIP3    H249883   4.687   0.313   1.597 -1.1263 -0.2739 -0.5774
 9490TIP3   OH249884   6.608   2.806   3.159  0.0745  0.2714 -0.1827
 9490TIP3    H149885   6.516   2.826   3.176  0.3933  0.1020  1.8102
 9490TIP3    H249886   6.615   2.803   3.063 -2.4457 -1.8232 -0.3434
 9491TIP3   OH249887   1.372   4.761   2.393 -0.0204 -0.3241 -0.6342
 9491TIP3    H149888   1.332   4.678   2.417  1.4367 -1.3161 -1.5634
 9491TIP3    H249889   1.467   4.745   2.400  0.2895  1.9460  1.5445
 9492TIP3   OH249890   1.282   6.625   2.833  0.3453  0.4292  0.4952
 9492TIP3    H149891   1.243   6.547   2.871  1.5445 -0.0934  0.6690
 9492TIP3    H249892   1.277   6.691   2.902  0.8938  0.0049  0.9390
 9493TIP3   OH249893   1.533   6.723  15.039  0.1029 -0.4634 -1.1224
 9493TIP3    H149894   1.489   6.807  15.044  0.5057 -0.2501 -1.1583
 9493TIP3    H249895   1.485   6.674  14.972 -0.4706 -0.4685 -0.7164
 9494TIP3   OH249896   5.699   0.937   6.103  0.1296  0.2574 -0.8764
 9494TIP3    H149897   5.774   0.927   6.161 -0.6426  1.0179  0.2626
 9494TIP3    H249898   5.630   0.883   6.143  0.2716 -1.0173 -2.3028
 9495TIP3   OH249899   3.124   5.646   0.212 -0.0621  0.2462 -0.6021
 9495TIP3    H149900   3.100   5.589   0.285 -0.0460  1.9847  0.7942
 9495TIP3    H249901   3.078   5.609   0.137  1.3236 -2.6232 -0.1185
 9496TIP3   OH249902   6.227   1.182   5.802  0.0711 -0.3515 -0.0853
 9496TIP3    H149903   6.239   1.117   5.871  2.1929  1.0051  0.8709
 9496TIP3    H249904   6.145   1.226   5.824 -0.5985 -1.6531  0.0948
 9497TIP3   OH249905   3.785   0.004   2.562 -0.1299  0.3514 -0.1181
 9497TIP3    H149906   3.848   0.073   2.540 -0.3720  1.1916  1.7289
 9497TIP3    H249907   3.823  -0.038   2.640 -1.7356  0.6862  0.8455
 9498TIP3   OH249908   2.430   5.433   4.045 -0.1214  0.0480  0.2471
 9498TIP3    H149909   2.340   5.463   4.027  0.6150  0.9318 -2.1634
 9498TIP3    H249910   2.422   5.338   4.049 -1.0482  0.0704 -0.6993
 9499TIP3   OH249911   3.628   2.027  14.805 -0.3028  0.0254 -0.2411
 9499TIP3    H149912   3.598   2.058  14.719 -1.7033 -1.2460 -0.2276
 9499TIP3    H249913   3.715   1.992  14.788  0.0615  1.1871 -0.8355
 9500TIP3   OH249914   4.951   5.517  16.410 -0.5844 -0.3337  0.1090
 9500TIP3    H149915   4.886   5.563  16.357  0.7445  1.3701 -0.0971
 9500TIP3    H249916   4.992   5.455  16.350 -1.9170 -1.3368  0.2126
 9501TIP3   OH249917   2.904   1.323  14.766  0.2929 -0.2390 -0.9471
 9501TIP3    H149918   2.914   1.229  14.774 -0.6238 -0.3744 -1.3179
 9501TIP3    H249919   2.813   1.340  14.791  0.1765  0.4297 -1.7831
 9502TIP3   OH249920   3.231   0.867  13.470  0.2029 -0.2662 -0.2106
 9502TIP3    H149921   3.176   0.794  13.497 -0.2032  0.3903  0.7573
 9502TIP3    H249922   3.312   0.825  13.438 -0.4099 -1.1721 -0.6128
 9503TIP3   OH249923   1.815   5.194   0.118  0.3203 -0.2519  0.7025
 9503TIP3    H149924   1.817   5.098   0.119  0.3381 -0.2710 -0.2798
 9503TIP3    H249925   1.723   5.216   0.107  0.7514 -0.2780 -4.1436
 9504TIP3   OH249926   0.571   3.333  11.403 -0.2109 -0.0472  0.1697
 9504TIP3    H149927   0.635   3.290  11.460  1.1831 -1.4796 -2.3382
 9504TIP3    H249928   0.582   3.426  11.420  0.5038 -0.4228  1.8753
 9505TIP3   OH249929   2.183   5.323  14.781 -0.0710 -0.3690 -0.3250
 9505TIP3    H149930   2.152   5.237  14.751  2.0612 -1.3144  0.0903
 9505TIP3    H249931   2.228   5.360  14.706  1.5874 -0.9120  0.3781
 9506TIP3   OH249932   1.723   5.413  11.064  0.1296 -0.1567  0.3833
 9506TIP3    H149933   1.792   5.385  11.004 -0.2524  0.7668 -0.5082
 9506TIP3    H249934   1.761   5.401  11.151  1.9246  1.5675 -0.1139
 9507TIP3   OH249935   5.108   2.216  13.823 -0.4330 -0.6098 -0.4052
 9507TIP3    H149936   5.171   2.221  13.895  0.7923  3.5542 -1.6257
 9507TIP3    H249937   5.144   2.149  13.764  0.9281 -0.8758  0.7025
 9508TIP3   OH249938   0.709   3.936  14.294 -0.5174 -0.3538  0.5308
 9508TIP3    H149939   0.634   3.952  14.236  0.6367  1.8734 -0.4057
 9508TIP3    H249940   0.725   3.842  14.286 -3.1218 -0.8645  0.6520
 9509TIP3   OH249941   4.399   4.265   4.962 -0.3497  0.2240  0.0963
 9509TIP3    H149942   4.469   4.331   4.962 -0.9575  0.8775  1.3190
 9509TIP3    H249943   4.425   4.202   5.029 -1.3386  0.9112  1.1321
 9510TIP3   OH249944   3.263   6.478   0.552  0.4156 -0.4939  0.1376
 9510TIP3    H149945   3.185   6.447   0.506 -0.7477 -0.3299  1.9799
 9510TIP3    H249946   3.240   6.566   0.582  2.8108  1.3068 -2.8843
 9511TIP3   OH249947   4.598   4.933   0.796 -0.0114  0.6472  0.3386
 9511TIP3    H149948   4.552   4.934   0.880  1.1662  0.4058  0.9980
 9511TIP3    H249949   4.682   4.976   0.814  0.4447  0.1655 -0.5929
 9512TIP3   OH249950   0.389   1.404   4.462  0.0904  0.9272  0.2428
 9512TIP3    H149951   0.431   1.402   4.548 -0.0741  1.4746  0.3360
 9512TIP3    H249952   0.385   1.497   4.439  0.9745  0.7070 -0.7757
 9513TIP3   OH249953   0.952   0.714   6.071 -0.3008  0.2251  0.2533
 9513TIP3    H149954   0.992   0.635   6.034 -0.6671  0.5621 -0.8824
 9513TIP3    H249955   1.024   0.762   6.110 -0.0866 -0.7129  1.0199
 9514TIP3   OH249956   5.603   2.058   5.082  0.0907  0.3010  0.2920
 9514TIP3    H149957   5.517   2.026   5.055  0.4590 -0.5589  0.1354
 9514TIP3    H249958   5.631   1.999   5.151  2.1475 -1.6626 -2.1287
 9515TIP3   OH249959   3.263   6.496   2.715  0.3062  0.2998  0.2638
 9515TIP3    H149960   3.210   6.575   2.720 -1.9839 -0.9278 -2.5866
 9515TIP3    H249961   3.217   6.432   2.769 -0.9492 -0.6129 -1.7946
 9516TIP3   OH249962   3.822   1.286  11.723  1.1888  0.2046  0.2939
 9516TIP3    H149963   3.837   1.217  11.659 -0.2239  0.1047  0.0692
 9516TIP3    H249964   3.834   1.243  11.808  0.1718 -0.3428  0.1574
 9517TIP3   OH249965   1.045   5.464   5.152 -0.2289  0.4640  0.0411
 9517TIP3    H149966   1.076   5.550   5.123 -0.3344 -0.6123 -3.4628
 9517TIP3    H249967   1.116   5.432   5.208  2.4315  0.5308 -3.1005
 9518TIP3   OH249968   3.898   5.384   1.533 -0.9494  0.8437 -0.2444
 9518TIP3    H149969   3.888   5.368   1.627  0.8412  0.1635 -0.1523
 9518TIP3    H249970   3.922   5.298   1.497 -2.6426  0.8574 -1.4940
 9519TIP3   OH249971   5.176   2.436  14.728 -0.1325  0.4482  0.6950
 9519TIP3    H149972   5.210   2.380  14.798  0.6001 -1.4406 -1.1085
 9519TIP3    H249973   5.130   2.506  14.774  0.6055 -0.5543  3.0708
 9520TIP3   OH249974   1.630   1.662  13.773  0.0007 -0.1078 -0.6527
 9520TIP3    H149975   1.694   1.673  13.843 -1.0969  1.8937  0.1119
 9520TIP3    H249976   1.592   1.750  13.762 -3.9745 -1.6065  0.2915
 9521TIP3   OH249977   4.828   4.455  11.407  0.0952  0.0150 -0.3528
 9521TIP3    H149978   4.805   4.527  11.348 -2.5944 -0.6089 -0.1089
 9521TIP3    H249979   4.812   4.489  11.495 -1.0650 -0.8071 -0.2289
 9522TIP3   OH249980   2.005   0.044   4.724 -0.5043  0.1033  0.2344
 9522TIP3    H149981   1.981  -0.037   4.771  0.8585 -0.2463  0.3751
 9522TIP3    H249982   1.994   0.113   4.790 -0.9917 -0.0603  0.3291
 9523TIP3   OH249983   6.135   0.836   4.586 -0.2819 -0.3139  0.2544
 9523TIP3    H149984   6.111   0.829   4.678 -2.2926  0.7896 -0.1632
 9523TIP3    H249985   6.230   0.822   4.585 -0.2143 -0.1606  2.5025
 9524TIP3   OH249986   4.421   3.799  15.006 -0.2216  0.0078  0.1052
 9524TIP3    H149987   4.340   3.752  15.027  0.3852 -1.1063 -0.0106
 9524TIP3    H249988   4.466   3.806  15.090 -0.5847  0.9195  0.2278
 9525TIP3   OH249989   0.006   3.782   2.096 -0.0821  0.2091 -0.5044
 9525TIP3    H149990   0.017   3.781   2.191 -2.9230  0.4635 -0.1327
 9525TIP3    H249991  -0.021   3.693   2.074  0.7692  0.0970 -1.1042
 9526TIP3   OH249992   3.607   6.508   4.589 -0.9773 -0.1198 -0.3050
 9526TIP3    H149993   3.625   6.521   4.682 -1.3138  0.6125 -0.3381
 9526TIP3    H249994   3.526   6.556   4.573  0.5940  2.2276 -1.5989
 9527TIP3   OH249995   1.189   6.225  12.644  0.3969 -0.6894 -0.0116
 9527TIP3    H149996   1.217   6.224  12.552 -0.6770  0.3310 -0.3665
 9527TIP3    H249997   1.095   6.239  12.640 -0.0669 -3.2222  1.1969
 9528TIP3   OH249998   6.514   1.606   1.736 -0.4163  0.9214  0.1306
 9528TIP3    H149999   6.462   1.548   1.793  0.0664  1.1487  0.8126
 9528TIP3    H250000   6.605   1.578   1.751 -0.2972  0.8455 -0.6929
 9529TIP3   OH250001   6.107   1.356  12.131  0.1542  0.1443 -0.0901
 9529TIP3    H150002   6.127   1.293  12.062 -2.0774 -0.2179 -0.4346
 9529TIP3    H250003   6.011   1.361  12.133  0.1625  0.2114  2.9140
 9530TIP3   OH250004   0.801   4.383  12.853  0.1500  0.2025 -0.4148
 9530TIP3    H150005   0.835   4.294  12.850 -0.4547 -0.0499  0.2563
 9530TIP3    H250006   0.879   4.438  12.858  0.5038 -0.3244 -0.1012
 9531TIP3   OH250007   2.948   0.013  13.888 -0.1861  0.4284 -0.2945
 9531TIP3    H150008   2.967  -0.078  13.867 -2.2127  0.3075 -1.6532
 9531TIP3    H250009   2.975   0.062  13.811 -1.1622  0.7339 -0.4487
 9532TIP3   OH250010   4.181   4.092  14.641  0.6069 -0.3317 -0.4992
 9532TIP3    H150011   4.265   4.092  14.687 -0.4354 -1.8288  1.4676
 9532TIP3    H250012   4.171   4.002  14.611 -0.9403 -0.5133  0.5223
 9533TIP3   OH250013   3.820   2.810   2.379 -0.5879 -0.4653  0.3897
 9533TIP3    H150014   3.756   2.880   2.364 -0.2880 -0.4385 -0.8150
 9533TIP3    H250015   3.815   2.793   2.473 -1.8677  0.0154  0.4185
 9534TIP3   OH250016   6.563   0.369  15.040  0.6999  0.3406  0.1965
 9534TIP3    H150017   6.506   0.294  15.058  1.2710  0.0266  0.7040
 9534TIP3    H250018   6.558   0.423  15.118  0.6745  0.5868  0.0245
 9535TIP3   OH250019   4.397   4.383  12.588  0.9371  0.2226  0.8501
 9535TIP3    H150020   4.380   4.444  12.660 -1.1037  0.0619  0.5436
 9535TIP3    H250021   4.436   4.437  12.520 -3.0384  1.7749 -0.3241
 9536TIP3   OH250022   5.794   2.544   4.832 -0.1018 -0.0502 -0.0191
 9536TIP3    H150023   5.821   2.626   4.791 -0.0308 -0.4198 -0.7118
 9536TIP3    H250024   5.876   2.502   4.859  0.0038 -0.9147 -1.6295
 9537TIP3   OH250025   5.184   3.438   5.357  0.1842  0.0187 -0.3822
 9537TIP3    H150026   5.145   3.353   5.377  1.4251 -1.3661 -3.4949
 9537TIP3    H250027   5.133   3.472   5.284 -0.5666  2.1907  1.0980
 9538TIP3   OH250028   4.057   3.409  12.266  0.1981 -0.3101 -0.0040
 9538TIP3    H150029   4.101   3.332  12.232  1.0035  0.7074 -1.3396
 9538TIP3    H250030   4.023   3.454  12.188 -0.3195  0.6388  0.7553
 9539TIP3   OH250031   0.583   3.310  13.969  0.0608  0.0618  0.1040
 9539TIP3    H150032   0.656   3.365  13.995  2.3220 -2.0064 -1.6001
 9539TIP3    H250033   0.618   3.221  13.974 -2.3504 -0.9676 -0.7522
 9540TIP3   OH250034   0.970   6.726  12.243 -0.5617  0.0977 -1.1733
 9540TIP3    H150035   0.916   6.708  12.320  0.9235  1.0262  0.1132
 9540TIP3    H250036   1.048   6.671  12.256 -0.2823  0.3081 -1.9708
 9541TIP3   OH250037   2.520   5.131  15.991  0.2742  0.1315 -0.4482
 9541TIP3    H150038   2.515   5.227  15.998  0.3512  0.0866  0.1844
 9541TIP3    H250039   2.582   5.105  16.059 -0.0279 -0.4028 -0.3787
 9542TIP3   OH250040   5.814   0.966  17.198 -0.0961 -0.2744  0.4486
 9542TIP3    H150041   5.908   0.948  17.201  0.3101  1.5997 -0.0257
 9542TIP3    H250042   5.786   0.963  17.289  0.0599 -2.6090  0.4263
 9543TIP3   OH250043   1.215   2.643  15.727 -0.6722  0.1984 -0.2920
 9543TIP3    H150044   1.207   2.585  15.651 -0.6805  0.4409 -0.4746
 9543TIP3    H250045   1.302   2.623  15.763 -0.3723  0.5995 -0.7868
 9544TIP3   OH250046   5.881   5.018  16.666 -0.0034 -0.3623  0.4134
 9544TIP3    H150047   5.860   5.050  16.754 -2.0206  1.0359 -0.5462
 9544TIP3    H250048   5.946   5.080  16.633  1.3093 -1.2998  1.1338
 9545TIP3   OH250049   6.342   4.209  13.064 -0.0179  0.2194 -0.0510
 9545TIP3    H150050   6.386   4.126  13.084 -1.6708 -0.6247  0.1504
 9545TIP3    H250051   6.364   4.266  13.137  1.6360  0.1753 -0.4904
 9546TIP3   OH250052   0.883   2.236  16.438  0.4217 -0.4980  0.0203
 9546TIP3    H150053   0.925   2.236  16.524  1.9567  1.6658 -0.6796
 9546TIP3    H250054   0.952   2.207  16.378  0.3965  1.2649 -0.8931
 9547TIP3   OH250055   1.188   6.077  15.906  0.4159 -0.0572  0.3450
 9547TIP3    H150056   1.241   6.027  15.968 -1.0877  0.4143  2.0598
 9547TIP3    H250057   1.139   6.011  15.857  2.3137 -0.4742 -1.0330
 9548TIP3   OH250058   0.091   2.670  15.483  0.6524 -0.1922  0.3826
 9548TIP3    H150059   0.127   2.582  15.493  2.8414  0.7303  0.7608
 9548TIP3    H250060   0.134   2.722  15.551 -0.6404  1.1820  0.1855
 9549TIP3   OH250061   0.256   5.981  14.424  0.5576 -0.5603  0.2050
 9549TIP3    H150062   0.184   5.938  14.471  1.3369 -0.2245  1.7333
 9549TIP3    H250063   0.214   6.052  14.376 -0.0604  0.0169  1.5777
 9550TIP3   OH250064   0.582   0.237   3.143 -0.4166  0.2925 -0.4268
 9550TIP3    H150065   0.491   0.243   3.174 -0.3664 -1.3915  0.1181
 9550TIP3    H250066   0.630   0.199   3.216  0.3460 -0.6645 -1.4018
 9551TIP3   OH250067   4.786   2.871   4.977  0.5539  0.1667 -0.2523
 9551TIP3    H150068   4.691   2.872   4.965  0.5661 -1.6274 -0.6243
 9551TIP3    H250069   4.800   2.814   5.053  1.3138  0.6305 -0.0445
 9552TIP3   OH250070   0.489   0.351  17.189  0.5371 -0.0712 -0.0991
 9552TIP3    H150071   0.483   0.266  17.232  1.0186  0.0182  0.1431
 9552TIP3    H250072   0.404   0.362  17.145  0.3041 -0.4683  0.2500
 9553TIP3   OH250073   0.272   1.212   5.828 -0.2542  0.1166  0.0841
 9553TIP3    H150074   0.234   1.128   5.852  1.8229 -0.7772  0.3597
 9553TIP3    H250075   0.262   1.266   5.907  0.8149 -0.7547  0.8378
 9554TIP3   OH250076   5.029   1.801  14.212  0.2359  0.5637  0.0875
 9554TIP3    H150077   5.002   1.746  14.138 -1.1279  0.0358  0.9436
 9554TIP3    H250078   5.082   1.870  14.174 -2.4767  1.7275 -1.7525
 9555TIP3   OH250079   4.975   4.196  14.840  0.7498 -0.1508 -0.0960
 9555TIP3    H150080   4.915   4.152  14.779  0.7999  1.6305 -1.4821
 9555TIP3    H250081   4.942   4.286  14.845  2.5732  0.5393  0.0733
 9556TIP3   OH250082   1.954   2.671  12.973  0.2924  0.1224  0.0898
 9556TIP3    H150083   1.957   2.728  13.050  1.1296  0.2291 -0.0082
 9556TIP3    H250084   1.985   2.727  12.901  2.0260 -0.7004  0.1585
 9557TIP3   OH250085   1.356   1.667  14.673  0.2381 -0.3908 -0.1946
 9557TIP3    H150086   1.394   1.729  14.611 -0.0375  0.7402  0.7462
 9557TIP3    H250087   1.395   1.690  14.758 -0.1129 -1.2858  0.2160
 9558TIP3   OH250088   0.781   1.314  13.153  0.2634 -0.6990  0.0432
 9558TIP3    H150089   0.800   1.245  13.089  0.2883 -0.3129 -0.3627
 9558TIP3    H250090   0.685   1.313  13.161  0.1496  0.2800 -1.1359
 9559TIP3   OH250091   2.595   1.344  15.630 -0.1083  0.3542 -0.2665
 9559TIP3    H150092   2.645   1.290  15.568  0.6166  0.7115  0.0018
 9559TIP3    H250093   2.508   1.305  15.631  0.3035 -0.5788 -0.3713
 9560TIP3   OH250094   2.663   0.705   4.135  0.8027  0.5996  0.7451
 9560TIP3    H150095   2.635   0.667   4.052  0.0220  1.9314  0.3762
 9560TIP3    H250096   2.753   0.735   4.119  1.8315 -2.0079  1.3710
 9561TIP3   OH250097   1.454   1.046   3.608 -0.4160 -0.3441 -0.4229
 9561TIP3    H150098   1.487   0.957   3.622  1.5771  0.4792  0.3114
 9561TIP3    H250099   1.472   1.091   3.691 -1.4068  0.7510 -0.7939
 9562TIP3   OH250100   4.388   5.207   3.844 -0.3421 -0.3776  0.0777
 9562TIP3    H150101   4.440   5.137   3.883 -1.2488 -1.2981 -0.3468
 9562TIP3    H250102   4.356   5.258   3.918  1.5096  0.4420  0.3213
 9563TIP3   OH250103   3.036   5.119   3.026 -0.1884 -0.3176 -0.3137
 9563TIP3    H150104   2.994   5.182   3.084  0.0744 -1.6437  1.3660
 9563TIP3    H250105   2.985   5.124   2.945  0.6116  2.9403 -0.6871
 9564TIP3   OH250106   3.595   5.011  16.253 -0.1790 -0.3507  0.1337
 9564TIP3    H150107   3.545   4.986  16.176 -0.6366  1.5215 -0.1793
 9564TIP3    H250108   3.680   4.967  16.241 -0.8491 -1.4899 -0.5515
 9565TIP3   OH250109   4.812   4.573   2.495  0.2379 -0.0674 -0.0308
 9565TIP3    H150110   4.849   4.644   2.548  1.1880 -1.7611  1.6289
 9565TIP3    H250111   4.888   4.526   2.461 -0.3891 -0.2101 -1.2670
 9566TIP3   OH250112   5.510   6.329  15.385  0.4273  0.6233  0.5266
 9566TIP3    H150113   5.455   6.254  15.408  1.6598 -0.1028  1.1370
 9566TIP3    H250114   5.505   6.333  15.289  0.1106 -0.0418  0.5083
 9567TIP3   OH250115   1.411   2.267   3.892  0.7912 -0.4204 -0.3982
 9567TIP3    H150116   1.490   2.258   3.945  0.9973  1.8144 -0.2795
 9567TIP3    H250117   1.443   2.262   3.802  0.4772 -3.9236 -0.3789
 9568TIP3   OH250118   0.223   5.662  14.861  0.2569  0.1306  0.2365
 9568TIP3    H150119   0.242   5.756  14.852  0.0273  0.1327 -0.2642
 9568TIP3    H250120   0.194   5.652  14.952  0.9980  0.4147  0.5065
 9569TIP3   OH250121   0.189   2.268   3.644 -0.1621  0.3963  0.2049
 9569TIP3    H150122   0.141   2.318   3.578 -0.0907  0.5672  0.2810
 9569TIP3    H250123   0.133   2.271   3.722  0.5241  1.6348  0.6656
 9570TIP3   OH250124   6.208   1.791  12.543 -0.0619 -0.4222 -0.3590
 9570TIP3    H150125   6.255   1.867  12.579 -1.3113 -0.1086  0.6567
 9570TIP3    H250126   6.268   1.755  12.478  0.6586  1.2952 -0.6937
 9571TIP3   OH250127   0.875   1.888  13.688  0.0481 -0.2308 -0.1219
 9571TIP3    H150128   0.867   1.793  13.699 -0.1132 -0.2275 -0.2193
 9571TIP3    H250129   0.936   1.898  13.615  0.5156 -0.2558  0.2586
 9572TIP3   OH250130   6.144   2.456  13.981 -0.1277 -0.5384 -0.3954
 9572TIP3    H150131   6.114   2.508  13.906 -0.4991  0.4102  0.3967
 9572TIP3    H250132   6.239   2.460  13.976 -0.1461 -0.7526 -0.9970
 9573TIP3   OH250133   0.902   3.517  14.241 -0.1914  0.6008  0.2827
 9573TIP3    H150134   0.989   3.550  14.259 -0.2410  0.5608  0.5986
 9573TIP3    H250135   0.843   3.583  14.278 -0.2896  0.0887  1.0544
 9574TIP3   OH250136   6.163   2.097   4.570  0.1351 -0.4880  0.0026
 9574TIP3    H150137   6.082   2.148   4.572  1.1467  1.1632 -0.3055
 9574TIP3    H250138   6.138   2.011   4.604 -1.1590  0.8148  2.4181
 9575TIP3   OH250139   4.396   5.349   2.770 -0.1728 -0.2939  0.2278
 9575TIP3    H150140   4.446   5.428   2.792  1.2076 -0.5603 -1.8044
 9575TIP3    H250141   4.454   5.277   2.794 -0.8964 -0.6746  0.8442
 9576TIP3   OH250142   1.655   3.347   0.241 -0.4028 -0.5415 -0.5887
 9576TIP3    H150143   1.670   3.385   0.328  0.2824  2.1860 -1.8509
 9576TIP3    H250144   1.605   3.267   0.258 -3.5597  1.8759  2.0586
 9577TIP3   OH250145   1.789   0.792   5.840 -0.2644  0.4472 -0.2277
 9577TIP3    H150146   1.855   0.859   5.821 -1.3451  1.4961 -0.3268
 9577TIP3    H250147   1.828   0.739   5.910  1.6069 -0.3268 -1.7840
 9578TIP3   OH250148   5.422   0.850  16.686  0.1218  0.0440 -0.3826
 9578TIP3    H150149   5.462   0.927  16.645 -0.1231 -0.2704 -1.2205
 9578TIP3    H250150   5.478   0.831  16.761  1.1897 -0.0058 -1.1844
 9579TIP3   OH250151   6.274   5.146  12.017  0.0321 -0.2567 -0.4462
 9579TIP3    H150152   6.274   5.050  12.028  1.5987 -0.4750 -2.0461
 9579TIP3    H250153   6.263   5.159  11.922  1.9393  1.0566 -0.5265
 9580TIP3   OH250154   4.462   2.197  12.741  0.6462 -0.5477 -0.0482
 9580TIP3    H150155   4.422   2.218  12.826  2.9241  0.0624  0.9100
 9580TIP3    H250156   4.399   2.229  12.677 -0.0744  1.0903  1.4214
 9581TIP3   OH250157   3.860   5.092  12.449 -0.1356 -0.1825 -0.4631
 9581TIP3    H150158   3.776   5.138  12.437 -0.8143 -1.2996 -0.1107
 9581TIP3    H250159   3.890   5.074  12.360  1.3982  3.1502 -0.6597
 9582TIP3   OH250160   0.489   1.216  14.000  0.3181  0.1456 -0.2577
 9582TIP3    H150161   0.494   1.234  13.907 -0.8800 -1.5163 -0.6568
 9582TIP3    H250162   0.432   1.284  14.035 -0.1093  0.1190 -0.9078
 9583TIP3   OH250163   6.476   3.720   2.383  0.2141  0.4914 -0.1624
 9583TIP3    H150164   6.569   3.727   2.362  0.7127  1.4291  2.1566
 9583TIP3    H250165   6.433   3.778   2.321  1.3430  1.2090 -0.2889
 9584TIP3   OH250166   5.462   0.497   1.167  0.2061  0.1118 -0.4149
 9584TIP3    H150167   5.536   0.557   1.158  1.0339 -1.0700 -1.7306
 9584TIP3    H250168   5.435   0.477   1.078  0.0388 -1.5758 -0.0194
 9585TIP3   OH250169   1.924   5.982   3.457  0.2191 -0.5429 -0.4834
 9585TIP3    H150170   1.886   5.897   3.476 -0.9988  0.6072  2.5099
 9585TIP3    H250171   2.018   5.970   3.472  0.0930 -1.4175 -0.3689
 9586TIP3   OH250172   4.917   2.841   0.770 -0.2467 -0.2632  0.8106
 9586TIP3    H150173   4.973   2.873   0.841 -0.3882 -0.1988  0.8937
 9586TIP3    H250174   4.844   2.798   0.815  0.3742 -1.4487  0.6937
 9587TIP3   OH250175   0.655   4.651   5.330  0.2494  0.3375  0.6696
 9587TIP3    H150176   0.623   4.610   5.250 -1.5258 -0.1269  1.5874
 9587TIP3    H250177   0.668   4.743   5.307 -1.0578  0.3769  0.0654
 9588TIP3   OH250178   5.955   4.307   3.890 -0.4753  0.2033  0.0596
 9588TIP3    H150179   5.902   4.378   3.926  0.1322  0.3250  0.7250
 9588TIP3    H250180   5.892   4.238   3.869 -1.0186  0.7775 -0.1952
 9589TIP3   OH250181   6.348   4.614   0.046 -0.2768  0.6561 -0.3735
 9589TIP3    H150182   6.358   4.532  -0.002  0.1384  0.1379  0.5875
 9589TIP3    H250183   6.409   4.675   0.004  1.8671 -0.4795  0.9874
 9590TIP3   OH250184   5.988   1.204  13.006 -0.4817 -1.0761  0.2459
 9590TIP3    H150185   6.028   1.241  12.927 -1.8558 -1.2242 -0.5163
 9590TIP3    H250186   6.045   1.235  13.077 -1.2670  2.0484 -0.4285
 9591TIP3   OH250187   3.124   1.306  15.296  0.1910 -0.2679  0.3599
 9591TIP3    H150188   3.191   1.287  15.231 -0.2938 -0.6096 -0.0465
 9591TIP3    H250189   3.052   1.344  15.246 -0.2690 -0.7272  0.6575
 9592TIP3   OH250190   0.673   3.806  14.822  0.2133 -0.1737 -0.2903
 9592TIP3    H150191   0.710   3.723  14.854 -0.6601 -0.4904 -0.0889
 9592TIP3    H250192   0.749   3.856  14.793  0.7302 -1.1518 -0.6525
 9593TIP3   OH250193   1.004   1.528   3.108  0.6850 -0.2604  0.2848
 9593TIP3    H150194   1.086   1.504   3.065  0.0753 -1.0697 -0.4377
 9593TIP3    H250195   0.938   1.526   3.039 -0.0779 -0.3217  0.9989
 9594TIP3   OH250196   3.581   6.652   2.999  0.0415 -0.1662 -0.4848
 9594TIP3    H150197   3.588   6.599   2.920  0.6961  1.8932 -1.8386
 9594TIP3    H250198   3.602   6.741   2.971 -1.1999  0.8703  1.6926
 9595TIP3   OH250199   0.048   2.203   0.832  0.1435 -0.0026  0.5850
 9595TIP3    H150200   0.011   2.283   0.794 -1.5315 -1.5000 -0.9818
 9595TIP3    H250201  -0.010   2.183   0.906 -1.2780 -1.4185 -0.8635
 9596TIP3   OH250202   2.755   4.626   2.799  0.0804  0.2844 -0.5917
 9596TIP3    H150203   2.685   4.673   2.754 -0.2468 -0.8669 -1.3118
 9596TIP3    H250204   2.717   4.541   2.820  1.0875 -0.1501 -0.4872
 9597TIP3   OH250205   6.083   5.077   4.809 -0.4945  0.1188 -0.3028
 9597TIP3    H150206   6.130   5.159   4.822  1.8097 -1.1884 -0.2092
 9597TIP3    H250207   6.097   5.027   4.889  0.2159 -1.3726 -1.3275
 9598TIP3   OH250208   1.769   6.463  12.815 -0.9649  0.0697 -0.1040
 9598TIP3    H150209   1.760   6.444  12.909 -0.7420 -0.0425 -0.1017
 9598TIP3    H250210   1.751   6.379  12.772 -1.3568  0.1927 -0.1770
 9599TIP3   OH250211   6.010   3.104  16.192  0.2629  0.7437 -0.2896
 9599TIP3    H150212   6.013   3.193  16.157  0.8931  1.5254  1.6632
 9599TIP3    H250213   6.056   3.110  16.276  0.6900 -1.5171 -0.3283
 9600TIP3   OH250214   5.799   3.770   1.852 -0.3646  0.1516 -0.2531
 9600TIP3    H150215   5.873   3.824   1.880 -0.4914 -0.9732  2.4611
 9600TIP3    H250216   5.836   3.711   1.787  0.5122  1.3542 -0.8593
 9601TIP3   OH250217   0.216   2.471  12.256  0.0854  0.1732  0.1379
 9601TIP3    H150218   0.295   2.508  12.297 -0.4562 -0.3958  1.7558
 9601TIP3    H250219   0.231   2.376  12.258 -0.6225  0.0665  0.4356
 9602TIP3   OH250220   0.804   4.926   2.981 -0.4805 -0.4854  0.5676
 9602TIP3    H150221   0.850   4.846   2.956  1.2107  0.4738  0.5849
 9602TIP3    H250222   0.865   4.997   2.961 -1.6017  0.7429  1.4117
 9603TIP3   OH250223   4.398   1.489  11.775 -0.2453  0.1148  0.0690
 9603TIP3    H150224   4.348   1.567  11.749 -1.1777 -0.9443 -1.3473
 9603TIP3    H250225   4.331   1.425  11.801  0.4192 -0.8703 -0.6134
 9604TIP3   OH250226   6.050   0.269   3.776 -0.5421 -0.2944 -0.9728
 9604TIP3    H150227   6.111   0.342   3.765 -0.1920 -0.7198 -1.8809
 9604TIP3    H250228   6.100   0.192   3.749 -1.6996 -0.5657 -2.4115
 9605TIP3   OH250229   1.733   3.356   2.076 -0.3957 -0.4091  0.0694
 9605TIP3    H150230   1.693   3.293   2.016  0.9376  0.6456 -1.9936
 9605TIP3    H250231   1.707   3.441   2.043 -2.3465  0.1773  2.9574
 9606TIP3   OH250232   3.125   3.249  13.868  0.1267  0.3011 -0.1972
 9606TIP3    H150233   3.078   3.192  13.928 -0.5709  0.3266 -0.7094
 9606TIP3    H250234   3.077   3.332  13.872  2.5932  1.6900  2.4459
 9607TIP3   OH250235   6.126   1.971  15.393 -0.2973  0.0360 -0.1202
 9607TIP3    H150236   6.183   1.906  15.351 -1.4658 -0.4021 -1.0494
 9607TIP3    H250237   6.185   2.021  15.450  1.3310  0.6293 -2.2594
 9608TIP3   OH250238   0.037   1.191  16.845  0.0944  0.2976  0.1126
 9608TIP3    H150239   0.125   1.211  16.813  0.9155 -3.6761 -0.3565
 9608TIP3    H250240  -0.013   1.171  16.766 -0.2346 -1.0331  0.6536
 9609TIP3   OH250241   6.561   2.035  16.047  0.3308 -0.5527 -0.0216
 9609TIP3    H150242   6.569   2.128  16.069 -0.4363 -0.0148 -1.9114
 9609TIP3    H250243   6.628   2.020  15.980 -0.6560 -0.9394 -0.9425
 9610TIP3   OH250244   2.488   0.366  12.286 -0.7159 -0.7099  0.1614
 9610TIP3    H150245   2.482   0.382  12.192 -0.6126 -2.3310 -0.1362
 9610TIP3    H250246   2.450   0.444  12.326 -0.5943  0.0712 -1.2156
 9611TIP3   OH250247   2.893   6.001  12.134  0.2860  0.3289 -0.2467
 9611TIP3    H150248   2.806   6.013  12.095 -0.6093  1.3288  1.9801
 9611TIP3    H250249   2.939   5.943  12.073 -2.2105 -0.8534 -1.0737
 9612TIP3   OH250250   6.687   2.299   5.789  0.0789 -0.0344 -0.5915
 9612TIP3    H150251   6.685   2.291   5.694 -1.0992  1.7430 -0.7271
 9612TIP3    H250252   6.607   2.347   5.811 -0.2839 -1.4761  1.4052
 9613TIP3   OH250253   1.824   2.371   3.200 -0.0716  0.0792  0.5244
 9613TIP3    H150254   1.768   2.318   3.143 -0.4318  0.2229  0.7429
 9613TIP3    H250255   1.800   2.462   3.179 -0.9062  0.1126  1.6128
 9614TIP3   OH250256   4.134   6.756  15.107 -0.3567 -0.1997  0.1273
 9614TIP3    H150257   4.216   6.798  15.084  0.5267 -1.4453  0.9610
 9614TIP3    H250258   4.089   6.744  15.024  0.5255  0.0278 -0.3834
 9615TIP3   OH250259   0.272   3.872   3.578  0.0741  0.0370  0.1279
 9615TIP3    H150260   0.179   3.871   3.602  0.7240 -0.8164  2.8294
 9615TIP3    H250261   0.299   3.780   3.587  1.3991  0.4492  0.3780
 9616TIP3   OH250262   6.044   3.550   2.978 -1.1227 -0.3490 -0.2597
 9616TIP3    H150263   5.954   3.544   3.012 -1.4099 -0.4720 -1.0371
 9616TIP3    H250264   6.033   3.562   2.884 -0.3170 -0.6387 -0.3909
 9617TIP3   OH250265   4.351   5.332   1.859  0.0652 -0.9346 -0.0467
 9617TIP3    H150266   4.262   5.304   1.843  0.5012 -1.7887 -0.9709
 9617TIP3    H250267   4.400   5.251   1.876  0.6093 -0.4556  0.7252
 9618TIP3   OH250268   4.634   0.694   4.007  0.1203 -0.1826  0.3112
 9618TIP3    H150269   4.616   0.650   3.925 -0.8750 -0.6921  0.7944
 9618TIP3    H250270   4.595   0.781   3.997  1.8043  0.4888 -0.5213
 9619TIP3   OH250271   3.991   1.907   3.142  0.3125 -0.2478  0.0223
 9619TIP3    H150272   3.968   1.822   3.104 -2.8255  0.8211 -0.6515
 9619TIP3    H250273   3.948   1.907   3.228 -0.0612  0.7973 -0.1575
 9620TIP3   OH250274   1.238   1.985  15.673 -0.2300 -0.6063 -0.0660
 9620TIP3    H150275   1.173   1.965  15.606  0.0891 -0.4379 -0.4272
 9620TIP3    H250276   1.252   1.902  15.719  0.6466 -1.0828 -1.1737
 9621TIP3   OH250277   0.432   6.430  15.244 -0.6149 -0.5686 -0.0755
 9621TIP3    H150278   0.419   6.509  15.191 -0.3282  0.7035  1.7229
 9621TIP3    H250279   0.523   6.435  15.272 -0.4960 -1.7254 -0.2087
 9622TIP3   OH250280   2.702   3.875   5.050 -0.7212  0.2972 -0.1592
 9622TIP3    H150281   2.766   3.940   5.022 -0.8443  0.3839 -0.2443
 9622TIP3    H250282   2.620   3.904   5.009 -1.1671  1.1325  1.2988
 9623TIP3   OH250283   1.558   0.712  13.143  0.3991  0.1956  0.3862
 9623TIP3    H150284   1.568   0.807  13.134  2.0183  0.0236  0.2495
 9623TIP3    H250285   1.600   0.691  13.226 -1.9641 -0.1314  1.5609
 9624TIP3   OH250286   0.740   3.161   2.572  0.4886 -0.6294  0.0265
 9624TIP3    H150287   0.820   3.131   2.615  0.7939 -0.0532 -0.1353
 9624TIP3    H250288   0.743   3.257   2.581 -0.6191 -0.6586  0.8099
 9625TIP3   OH250289   1.161   4.639  13.343  0.0635  0.2801 -0.3328
 9625TIP3    H150290   1.148   4.669  13.253 -3.9610  2.0659  0.7123
 9625TIP3    H250291   1.221   4.703  13.381  1.9591 -0.6049 -1.7554
 9626TIP3   OH250292   3.874   6.415   3.312  0.1176  0.1267 -0.9067
 9626TIP3    H150293   3.941   6.347   3.315  1.9323  1.8369 -1.5346
 9626TIP3    H250294   3.834   6.411   3.399  1.9231 -0.0773 -0.0441
 9627TIP3   OH250295   4.257   0.960  17.011  0.5418  0.0900  0.0939
 9627TIP3    H150296   4.336   0.998  17.049 -0.3729  1.4974  0.6265
 9627TIP3    H250297   4.238   1.017  16.936 -0.4087  0.2196  0.4341
 9628TIP3   OH250298   2.659   4.014  16.242  0.4933 -0.1609  0.4199
 9628TIP3    H150299   2.633   3.929  16.208 -0.3837  0.1831  0.2114
 9628TIP3    H250300   2.752   4.021  16.222 -0.0518  0.1583 -2.2293
 9629TIP3   OH250301   2.791   3.467  16.188  0.8067 -0.3306  0.2574
 9629TIP3    H150302   2.858   3.419  16.140  1.5702  0.6363  0.3476
 9629TIP3    H250303   2.827   3.554  16.199 -1.2289  0.7861 -1.3584
 9630TIP3   OH250304   6.193   6.396  15.284  0.0650 -0.1480 -0.5963
 9630TIP3    H150305   6.122   6.386  15.220  0.2684  0.4884 -0.9249
 9630TIP3    H250306   6.159   6.457  15.349 -0.5782 -1.6893  0.5511
 9631TIP3   OH250307   0.602   6.375   1.469 -0.3389 -0.6777 -0.3592
 9631TIP3    H150308   0.550   6.398   1.391  0.0957 -1.3740 -0.8642
 9631TIP3    H250309   0.650   6.296   1.443 -0.3560 -1.0464  0.6949
 9632TIP3   OH250310   4.293   5.572   0.698  0.1410  0.3185  0.3791
 9632TIP3    H150311   4.339   5.489   0.707  0.1487  0.4927  1.9828
 9632TIP3    H250312   4.239   5.560   0.619  0.6979 -0.9305  0.1691
 9633TIP3   OH250313   6.194   5.400   2.046  0.4681 -0.1528 -0.1843
 9633TIP3    H150314   6.266   5.463   2.033 -0.7190  0.9716 -1.4336
 9633TIP3    H250315   6.216   5.327   1.988  0.6334  0.1427 -0.4923
 9634TIP3   OH250316   5.233   5.547   2.106  0.6422 -0.4703 -0.4965
 9634TIP3    H150317   5.154   5.547   2.159  0.3976 -0.5690 -0.8580
 9634TIP3    H250318   5.290   5.612   2.146  0.6529 -0.8938  0.1788
 9635TIP3   OH250319   3.985   3.800   1.217  0.0065 -0.0696  0.1047
 9635TIP3    H150320   4.079   3.813   1.205  0.1940 -1.8074 -0.4497
 9635TIP3    H250321   3.977   3.770   1.307  0.2054 -1.7823 -0.4271
 9636TIP3   OH250322   4.672   1.094   2.427 -0.6092  0.0227  0.4153
 9636TIP3    H150323   4.719   1.013   2.407 -1.2585 -0.3250  0.2905
 9636TIP3    H250324   4.669   1.141   2.344 -2.4330 -0.9696 -0.1088
 9637TIP3   OH250325   4.728   6.197  15.325  0.2984  0.3922 -0.3499
 9637TIP3    H150326   4.797   6.151  15.373  2.5562  1.0378 -2.8638
 9637TIP3    H250327   4.774   6.265  15.277 -2.3144  1.7745 -0.9633
 9638TIP3   OH250328   4.974   5.442  11.456 -0.4240  0.4217  0.0427
 9638TIP3    H150329   4.886   5.406  11.445  0.9641 -3.3392  0.6312
 9638TIP3    H250330   4.997   5.424  11.547  2.1829 -1.6172 -0.9667
 9639TIP3   OH250331   5.966   2.261   2.749  0.1388 -0.2002 -0.3956
 9639TIP3    H150332   6.052   2.236   2.781  1.4629  2.4642 -1.7830
 9639TIP3    H250333   5.920   2.294   2.826  0.0125 -2.4568  0.5187
 9640TIP3   OH250334   1.188   5.498   2.495 -0.1424  0.2351 -0.4422
 9640TIP3    H150335   1.116   5.525   2.439 -1.5286 -1.9518  0.2198
 9640TIP3    H250336   1.201   5.405   2.474  0.1842 -0.2814  1.8739
 9641TIP3   OH250337   2.458   1.214  13.758 -0.2551 -0.2675  0.0394
 9641TIP3    H150338   2.507   1.239  13.836  2.4616  2.2346 -2.3427
 9641TIP3    H250339   2.378   1.267  13.763 -0.7035 -1.0590  1.7097
 9642TIP3   OH250340   1.256   0.887  15.017  0.3590 -0.3936 -0.6476
 9642TIP3    H150341   1.340   0.851  14.992  0.3689 -0.9812  0.2353
 9642TIP3    H250342   1.193   0.817  14.998  0.2409 -0.4653  0.0190
 9643TIP3   OH250343   3.663   1.321   0.509 -0.0131  0.3743  0.2748
 9643TIP3    H150344   3.697   1.236   0.480 -0.1362  0.5712 -0.4666
 9643TIP3    H250345   3.615   1.301   0.589 -0.6668 -0.3881 -0.2933
 9644TIP3   OH250346   2.259   0.277  13.081 -0.8383  0.2200  0.1152
 9644TIP3    H150347   2.221   0.328  13.010 -1.8059 -1.0991 -0.3399
 9644TIP3    H250348   2.197   0.205  13.093  1.0864 -1.4687 -0.0273
 9645TIP3   OH250349   2.982   5.903   5.722 -1.0276 -0.1817 -0.6167
 9645TIP3    H150350   2.906   5.945   5.682 -0.8666 -1.1169 -1.9310
 9645TIP3    H250351   3.052   5.914   5.658  0.2366  1.5573  1.0232
 9646TIP3   OH250352   4.565   4.472  13.502 -0.5981  0.0969 -0.4090
 9646TIP3    H150353   4.625   4.504  13.435  1.0197 -0.1274  0.8836
 9646TIP3    H250354   4.531   4.390  13.467  0.8863 -0.4462 -0.6161
 9647TIP3   OH250355   4.704   5.537   4.351  0.0017 -0.2055 -0.4583
 9647TIP3    H150356   4.794   5.514   4.330 -0.0089  0.8259 -1.7353
 9647TIP3    H250357   4.704   5.633   4.355 -1.3915 -0.0977 -2.2686
 9648TIP3   OH250358   6.224   5.505   0.918 -0.0328  0.1096  0.1728
 9648TIP3    H150359   6.180   5.555   0.850  0.2817 -1.2795 -1.0828
 9648TIP3    H250360   6.302   5.470   0.874 -0.1900 -1.3633  1.0536
 9649TIP3   OH250361   0.420   6.225  11.544 -1.1307 -0.1126  0.4033
 9649TIP3    H150362   0.379   6.147  11.506  2.1503 -1.9728  0.5462
 9649TIP3    H250363   0.477   6.191  11.613  1.2244  2.3126 -0.2859
 9650TIP3   OH250364   0.425   2.336   4.722  0.5351  0.1294 -0.1338
 9650TIP3    H150365   0.340   2.290   4.718  0.5277  0.2286 -1.2684
 9650TIP3    H250366   0.460   2.312   4.807  0.0046 -1.0794 -0.2336
 9651TIP3   OH250367   4.867   6.344   0.423  0.5674  0.0379  0.2240
 9651TIP3    H150368   4.856   6.328   0.329  0.9623 -0.9275  0.3345
 9651TIP3    H250369   4.779   6.338   0.459  0.5183 -0.4517  0.0345
 9652TIP3   OH250370   1.038   0.553   2.564  0.1373  0.7764 -0.2760
 9652TIP3    H150371   1.068   0.510   2.484  0.8452  1.1897 -0.2427
 9652TIP3    H250372   0.961   0.503   2.591  0.1762  0.3421 -0.9518
 9653TIP3   OH250373   0.138   1.601   1.728 -0.1704  0.1683  1.0271
 9653TIP3    H150374   0.179   1.515   1.714 -0.1647  0.6814 -2.6705
 9653TIP3    H250375   0.058   1.581   1.777 -0.1135 -1.9407  0.3329
 9654TIP3   OH250376   5.984   6.787  14.138 -0.0591 -0.4672  0.3099
 9654TIP3    H150377   5.971   6.706  14.089 -0.6331 -1.9195  2.7531
 9654TIP3    H250378   6.037   6.760  14.214 -1.8329  1.0486  2.1346
 9655TIP3   OH250379   0.592   0.264  12.299  0.2751  0.0821  0.1577
 9655TIP3    H150380   0.518   0.248  12.358 -0.5002  0.1580 -0.7873
 9655TIP3    H250381   0.553   0.304  12.221  1.1657 -0.8123 -0.7742
 9656TIP3   OH250382   6.046   5.802   4.695 -0.0444  0.6039 -0.3197
 9656TIP3    H150383   6.066   5.896   4.698 -2.0388  1.1529 -2.8742
 9656TIP3    H250384   5.968   5.792   4.750  0.6835  0.2616  0.6751
 9657TIP3   OH250385   2.730   3.734  11.238 -0.1562  0.1099  0.0905
 9657TIP3    H150386   2.641   3.700  11.230 -0.3893  0.8502 -0.5000
 9657TIP3    H250387   2.753   3.763  11.150  0.0578  1.4015  0.5605
 9658TIP3   OH250388   3.732   2.257  13.666  0.1647  0.5315 -0.3889
 9658TIP3    H150389   3.669   2.187  13.654  0.3042 -0.2198  2.8723
 9658TIP3    H250390   3.799   2.242  13.599 -0.4048 -1.7733 -0.4682
 9659TIP3   OH250391   4.913   6.042   1.253 -0.0608 -0.3519  0.5046
 9659TIP3    H150392   4.904   6.043   1.348 -2.6452 -3.0597  0.3367
 9659TIP3    H250393   4.912   5.950   1.229 -1.9540  0.3349 -2.3487
 9660TIP3   OH250394   2.044   5.421  15.011 -0.1170  0.3042 -0.6118
 9660TIP3    H150395   2.104   5.446  15.081  0.8126 -1.6438 -0.6903
 9660TIP3    H250396   2.101   5.394  14.939 -1.0744 -1.2640 -0.8037
 9661TIP3   OH250397   0.631   3.972  13.094 -0.1468  0.7916 -0.0838
 9661TIP3    H150398   0.558   4.011  13.142 -0.5459 -1.4921  1.2337
 9661TIP3    H250399   0.611   3.988  13.002 -2.2434  0.3183  0.2655
 9662TIP3   OH250400   3.687   0.673   3.536 -0.1435 -0.4452  0.1288
 9662TIP3    H150401   3.770   0.660   3.582 -0.9105  0.7585  1.8962
 9662TIP3    H250402   3.621   0.676   3.605 -1.4925  0.0555 -1.1466
 9663TIP3   OH250403   4.921   3.831   5.161 -0.4657  0.0543  0.0875
 9663TIP3    H150404   4.939   3.925   5.170  0.8012 -0.2495  0.7673
 9663TIP3    H250405   4.912   3.799   5.251 -0.9191 -0.4845 -0.1430
 9664TIP3   OH250406   4.561   6.356  16.700  0.2817 -0.0912  0.0147
 9664TIP3    H150407   4.647   6.362  16.741 -0.1285  2.1069  0.6002
 9664TIP3    H250408   4.579   6.332  16.609  1.4809 -0.1390  0.2619
 9665TIP3   OH250409   2.967   3.187  14.609 -0.3619 -0.2579 -0.1859
 9665TIP3    H150410   3.012   3.266  14.580  1.2615 -1.3498 -0.6767
 9665TIP3    H250411   2.942   3.206  14.699 -0.3061  0.9486 -0.4141
 9666TIP3   OH250412   4.539   2.427   1.261  0.4466 -0.0967  0.5897
 9666TIP3    H150413   4.582   2.458   1.181  0.7504 -1.1955  0.3186
 9666TIP3    H250414   4.595   2.356   1.292  0.1772  0.1444  1.6291
 9667TIP3   OH250415   4.354   5.754   1.385 -0.0506  0.0817 -0.4683
 9667TIP3    H150416   4.284   5.782   1.326 -0.3246 -1.4826 -0.9263
 9667TIP3    H250417   4.328   5.787   1.471 -0.8789  0.3073 -0.8006
 9668TIP3   OH250418   0.996   2.480   4.956 -0.4289  0.0340  0.4041
 9668TIP3    H150419   1.072   2.510   5.005  0.4798  0.4111 -1.1947
 9668TIP3    H250420   1.005   2.385   4.954 -0.7379 -0.0224  1.3721
 9669TIP3   OH250421   1.717   5.132   1.130 -0.0405 -0.5791  0.1331
 9669TIP3    H150422   1.713   5.139   1.225 -1.5599 -0.6383  0.0846
 9669TIP3    H250423   1.809   5.145   1.109  0.0604  1.0618  1.4744
 9670TIP3   OH250424   6.174   4.944   4.492 -0.0525  0.1027  0.4205
 9670TIP3    H150425   6.258   4.929   4.449  0.0258  0.0423  0.5944
 9670TIP3    H250426   6.120   4.869   4.465 -0.3872  0.6870 -0.5282
 9671TIP3   OH250427   4.990   6.086   6.345 -0.3619 -0.4440 -0.1179
 9671TIP3    H150428   4.965   6.026   6.415  1.5774 -0.7939  0.3081
 9671TIP3    H250429   4.949   6.169   6.369 -0.7434 -0.8866  0.7761
 9672TIP3   OH250430   2.410   6.564   0.688 -0.1905 -0.5602 -0.3489
 9672TIP3    H150431   2.333   6.605   0.726  1.3483  0.6941  1.5163
 9672TIP3    H250432   2.379   6.478   0.658 -1.7836 -1.1022  2.6238
 9673TIP3   OH250433   2.387   0.722   3.246 -0.1954 -0.2313  0.3582
 9673TIP3    H150434   2.326   0.743   3.176  0.0751 -1.2615 -0.2037
 9673TIP3    H250435   2.332   0.685   3.315 -0.5294  1.2722  0.9178
 9674TIP3   OH250436   3.373   4.497   5.173 -0.0075 -0.0252  0.3068
 9674TIP3    H150437   3.381   4.447   5.255 -0.6950 -0.5113  0.0874
 9674TIP3    H250438   3.463   4.521   5.151  0.4844 -2.1507 -0.1855
 9675TIP3   OH250439   4.316   3.956   5.696 -0.0524  0.1532 -0.0837
 9675TIP3    H150440   4.346   3.987   5.611 -1.7093 -1.3123 -1.2362
 9675TIP3    H250441   4.340   3.863   5.697 -1.1905 -0.1431  0.5113
 9676TIP3   OH250442   1.593   3.744   3.517 -0.2816  0.0757  0.0317
 9676TIP3    H150443   1.614   3.723   3.426 -1.8996 -1.4973  0.0022
 9676TIP3    H250444   1.558   3.833   3.513 -1.9366 -0.6078 -1.1337
 9677TIP3   OH250445   1.303   6.453  10.531 -0.1814  0.3387 -0.5776
 9677TIP3    H150446   1.388   6.497  10.526 -0.9644  2.0098  0.4988
 9677TIP3    H250447   1.282   6.431  10.440 -0.2922  3.2202 -1.2982
 9678TIP3   OH250448   1.338   4.445  15.185  0.2120  0.1669 -0.3910
 9678TIP3    H150449   1.297   4.497  15.117 -1.7615 -0.8907 -0.0340
 9678TIP3    H250450   1.430   4.440  15.158  0.3659  3.3692 -0.6669
 9679TIP3   OH250451   1.826   4.481  11.152 -0.4549  0.5850  0.1791
 9679TIP3    H150452   1.819   4.411  11.086  3.2146  0.2089  0.0625
 9679TIP3    H250453   1.836   4.434  11.235 -0.5039  1.0121  0.4252
 9680TIP3   OH250454   4.728   0.292  16.649 -0.4617 -0.6331 -0.0588
 9680TIP3    H150455   4.798   0.324  16.592 -0.8128  0.3718  0.0691
 9680TIP3    H250456   4.692   0.216  16.603 -1.4398  0.7835 -1.6712
 9681TIP3   OH250457   2.490   3.146  12.103 -0.0822 -0.4108  0.1924
 9681TIP3    H150458   2.565   3.180  12.153 -1.3865 -0.8308  2.4972
 9681TIP3    H250459   2.506   3.052  12.097 -1.1274 -0.7397  2.0194
 9682TIP3   OH250460   4.470   1.912   0.489  0.1075  0.0923 -0.5158
 9682TIP3    H150461   4.450   1.818   0.491 -0.7993  0.2501 -1.5618
 9682TIP3    H250462   4.564   1.917   0.504  0.1624 -0.9881 -0.4509
 9683TIP3   OH250463   2.366   0.288  15.775  0.2131  0.5041 -0.6131
 9683TIP3    H150464   2.403   0.364  15.731  1.6839  0.3350  0.2926
 9683TIP3    H250465   2.297   0.256  15.716  0.8900  1.3859 -1.8846
 9684TIP3   OH250466   0.550   0.674  12.355 -0.4506 -0.0615 -0.2045
 9684TIP3    H150467   0.627   0.717  12.393 -2.6830  3.0371  1.0238
 9684TIP3    H250468   0.540   0.713  12.268 -0.2730 -0.9408 -0.6272
 9685TIP3   OH250469   6.716   6.257   0.478 -0.4848 -0.0207 -0.9116
 9685TIP3    H150470   6.691   6.243   0.387  3.1989 -0.1428 -1.9727
 9685TIP3    H250471   6.773   6.183   0.498  1.5509  1.8405  0.3706
 9686TIP3   OH250472   3.474   1.210   2.825 -0.1056  0.3590  0.3279
 9686TIP3    H150473   3.478   1.178   2.734  0.7020  2.5010 -0.4182
 9686TIP3    H250474   3.401   1.271   2.825  1.4267  2.2354  0.4763
 9687TIP3   OH250475   6.003   1.764  12.704  0.1244 -0.4004 -0.5650
 9687TIP3    H150476   6.087   1.761  12.658  0.1394  1.7903 -0.7481
 9687TIP3    H250477   5.937   1.770  12.635  0.1332  2.6128 -0.3790
 9688TIP3   OH250478   4.826   5.938   0.979 -0.0567 -0.5076 -0.0714
 9688TIP3    H150479   4.887   5.901   1.042  1.0991  2.1483  0.4119
 9688TIP3    H250480   4.749   5.961   1.031  0.6143  1.0199  0.2541
 9689TIP3   OH250481   1.704   4.314  13.426  0.5192 -0.1915 -0.5383
 9689TIP3    H150482   1.799   4.314  13.415  0.6240  1.0946  0.2403
 9689TIP3    H250483   1.672   4.371  13.355  0.3038 -0.8175 -0.9485
 9690TIP3   OH250484   1.548   0.315  13.181 -0.1712 -0.2747  0.2462
 9690TIP3    H150485   1.545   0.398  13.133  1.1902  0.5176  1.4961
 9690TIP3    H250486   1.484   0.325  13.251 -0.4249 -0.4974  0.0451
 9691TIP3   OH250487   1.314   6.344   5.465 -0.0546 -0.2653 -0.0168
 9691TIP3    H150488   1.333   6.334   5.372 -0.8581 -1.9348 -0.0301
 9691TIP3    H250489   1.379   6.406   5.497 -0.0365  0.6452 -1.7719
 9692TIP3   OH250490   5.460   0.352  12.627  0.9586  0.0544  0.4675
 9692TIP3    H150491   5.554   0.368  12.617  0.7698  1.1342  0.3847
 9692TIP3    H250492   5.425   0.361  12.538  0.7119  0.1288  0.5724
 9693TIP3   OH250493   1.877   5.927  15.374  0.8485 -0.0389 -0.0873
 9693TIP3    H150494   1.896   5.990  15.443  0.9410  1.1885 -1.2048
 9693TIP3    H250495   1.950   5.866  15.376  0.2149 -0.7735  1.7202
 9694TIP3   OH250496   3.122   3.664   0.147 -0.4694 -0.3992 -0.7149
 9694TIP3    H150497   3.113   3.754   0.116 -0.5765 -0.2265 -0.1902
 9694TIP3    H250498   3.135   3.612   0.068  1.9992  0.3741 -0.8544
 9695TIP3   OH250499   2.101   5.237   3.828  0.0122  0.3888 -0.3377
 9695TIP3    H150500   2.106   5.243   3.924 -1.4560  1.6378 -0.3218
 9695TIP3    H250501   2.162   5.304   3.796  0.0644  0.3700 -0.2793
 9696TIP3   OH250502   6.049   3.069  16.734  0.2240 -0.3902  0.6988
 9696TIP3    H150503   5.967   3.021  16.742  0.1693 -0.4421 -0.1446
 9696TIP3    H250504   6.036   3.148  16.787 -0.7682  0.1217 -0.2929
 9697TIP3   OH250505   5.313   5.149   0.566 -0.0080  0.0835 -0.4180
 9697TIP3    H150506   5.403   5.167   0.538 -0.3001 -0.7477 -1.8950
 9697TIP3    H250507   5.291   5.223   0.623  1.0169  1.1430 -1.3819
 9698TIP3   OH250508   4.423   1.168  15.063 -1.0802  0.2168 -0.0594
 9698TIP3    H150509   4.357   1.225  15.024  0.3701  0.6675 -1.9380
 9698TIP3    H250510   4.501   1.223  15.069  0.1754 -1.3735 -1.3921
 9699TIP3   OH250511   0.897   5.702  15.028 -0.3076 -0.4361  0.1715
 9699TIP3    H150512   0.840   5.704  15.105 -0.8143 -0.9548 -0.1876
 9699TIP3    H250513   0.923   5.793  15.015 -0.1525 -0.3523  1.0053
 9700TIP3   OH250514   2.318   0.444  11.492  0.1060  0.0579  0.2757
 9700TIP3    H150515   2.402   0.484  11.470  0.6454 -1.5844 -0.7277
 9700TIP3    H250516   2.311   0.369  11.432 -0.6472 -1.6428  2.4377
 9701TIP3   OH250517   3.920   3.306  15.153 -0.5074 -0.0205  0.0169
 9701TIP3    H150518   3.828   3.287  15.138 -0.9718  2.2360 -0.1754
 9701TIP3    H250519   3.920   3.367  15.227  0.9751 -1.4521  1.2547
 9702TIP3   OH250520   4.860   6.497  11.853 -0.1058 -0.4425 -0.1009
 9702TIP3    H150521   4.803   6.536  11.787  0.5892  0.0881 -0.3821
 9702TIP3    H250522   4.948   6.500  11.815  0.4228  0.5773  1.1595
 9703TIP3   OH250523   6.246   4.187   4.989 -0.1225 -0.2861 -0.3116
 9703TIP3    H150524   6.325   4.132   4.994 -0.1509 -0.2379  0.7267
 9703TIP3    H250525   6.174   4.126   5.003 -0.3072 -0.3790 -1.5405
 9704TIP3   OH250526   6.468   2.363   0.795 -0.1543  0.1944  0.2131
 9704TIP3    H150527   6.421   2.434   0.751 -1.3894  0.1569  1.4264
 9704TIP3    H250528   6.530   2.332   0.730 -2.0044  0.0599 -1.5538
 9705TIP3   OH250529   6.528   0.444   4.725 -0.0682  0.1040  0.4011
 9705TIP3    H150530   6.605   0.488   4.691 -1.5870  2.3163 -0.3429
 9705TIP3    H250531   6.478   0.419   4.647 -0.6575 -0.2379  0.8850
 9706TIP3   OH250532   0.304   0.873  14.084 -0.4646  0.0454 -0.3535
 9706TIP3    H150533   0.247   0.942  14.118 -1.5880 -1.3926  0.7217
 9706TIP3    H250534   0.258   0.791  14.103  1.3421 -1.0728 -0.6526
 9707TIP3   OH250535   6.768   3.551   4.125  0.5085 -0.2161 -0.1260
 9707TIP3    H150536   6.700   3.485   4.109  1.5043 -1.3246  0.2143
 9707TIP3    H250537   6.811   3.561   4.040  0.2344  0.1507 -0.2256
 9708TIP3   OH250538   0.227   2.778  15.681 -0.4319 -0.0881 -0.6829
 9708TIP3    H150539   0.279   2.739  15.751  0.3115  0.2290 -1.0398
 9708TIP3    H250540   0.240   2.872  15.691 -2.3142  0.0846  0.2480
 9709TIP3   OH250541   0.162   1.374   6.435 -0.6275  0.5032  0.3469
 9709TIP3    H150542   0.128   1.317   6.366  0.3837  0.4861 -0.1488
 9709TIP3    H250543   0.223   1.433   6.390 -0.2612  0.7546  1.1543
 9710TIP3   OH250544   4.563   2.078   5.692 -0.8267  0.0768  0.0097
 9710TIP3    H150545   4.489   2.124   5.732  0.0347  0.6922  0.9390
 9710TIP3    H250546   4.595   2.139   5.626 -1.0150 -0.0970 -0.2413
 9711TIP3   OH250547   0.724   2.640   3.220  0.7631 -0.0661 -1.0447
 9711TIP3    H150548   0.645   2.661   3.170  1.3945  3.3648 -0.7835
 9711TIP3    H250549   0.694   2.627   3.309  0.0977 -2.2688 -1.5753
 9712TIP3   OH250550   0.331   1.935  13.553  0.2057 -0.2228  0.1065
 9712TIP3    H150551   0.255   1.899  13.597 -0.9182 -0.5048 -1.9860
 9712TIP3    H250552   0.372   1.992  13.618  0.0567 -2.5590  2.3064
 9713TIP3   OH250553   3.046   4.633  12.366  0.8103 -0.0035  0.3806
 9713TIP3    H150554   3.079   4.711  12.322 -1.2203  1.1073  0.7786
 9713TIP3    H250555   2.991   4.590  12.301 -1.1691  0.9659  1.3805
 9714TIP3   OH250556   1.844   5.352   6.240  0.1296 -1.0170 -0.5263
 9714TIP3    H150557   1.758   5.342   6.199  0.3197 -0.4803 -1.0612
 9714TIP3    H250558   1.851   5.277   6.299  0.1527 -2.2202 -2.0250
 9715TIP3   OH250559   1.836   0.964   0.282  0.1967  0.5034  0.0590
 9715TIP3    H150560   1.751   0.960   0.238 -1.1151  4.4802  1.9807
 9715TIP3    H250561   1.815   0.975   0.374  2.8265  0.4004  0.7214
 9716TIP3   OH250562   3.097   3.971  13.185 -0.2463 -0.0571 -0.4647
 9716TIP3    H150563   3.030   3.905  13.167 -0.4140  0.7336 -2.9109
 9716TIP3    H250564   3.058   4.026  13.254 -1.5625 -0.4133 -0.9082
 9717TIP3   OH250565   5.866   6.251  14.974 -0.5723 -0.1035  0.1998
 9717TIP3    H150566   5.897   6.161  14.977  1.4356  0.5539  0.0510
 9717TIP3    H250567   5.819   6.257  14.891  1.7296 -0.2917 -1.1713
 9718TIP3   OH250568   0.020   0.271   0.414  0.0389 -0.2823 -0.1313
 9718TIP3    H150569   0.025   0.359   0.377 -2.0141 -0.5613 -1.1437
 9718TIP3    H250570   0.056   0.214   0.346  0.7355 -0.2896  0.2462
 9719TIP3   OH250571   5.041   5.100   1.326  0.1267 -0.2677  0.0410
 9719TIP3    H150572   4.950   5.118   1.349 -0.2040 -1.0337 -0.6417
 9719TIP3    H250573   5.039   5.012   1.289  0.6848  0.8055 -2.6535
 9720TIP3   OH250574   4.240   5.176  14.273 -0.0708 -0.0796 -0.6560
 9720TIP3    H150575   4.199   5.238  14.333  2.6373  0.9774  0.1757
 9720TIP3    H250576   4.261   5.228  14.195  0.1357 -0.4827 -0.8702
 9721TIP3   OH250577   3.782   6.085  14.895 -0.6496 -0.0295 -0.1123
 9721TIP3    H150578   3.821   6.057  14.979 -0.9511  0.9712  0.3686
 9721TIP3    H250579   3.851   6.137  14.854 -0.0966 -1.4398 -0.9949
 9722TIP3   OH250580   6.313   4.504  13.552  0.6211 -0.4218  0.6186
 9722TIP3    H150581   6.337   4.588  13.592  1.9291 -0.2562 -0.4845
 9722TIP3    H250582   6.331   4.515  13.459  1.9391 -2.2960  0.6186
 9723TIP3   OH250583   3.543   1.613   3.828  0.5509 -0.1306  0.3535
 9723TIP3    H150584   3.552   1.614   3.732 -2.6437  1.7493  0.0242
 9723TIP3    H250585   3.515   1.523   3.848 -0.4584 -0.0497 -0.6481
 9724TIP3   OH250586   3.315   3.921   4.960 -0.6588 -0.1316 -0.0099
 9724TIP3    H150587   3.269   3.985   5.015 -1.9939  0.2355 -1.5101
 9724TIP3    H250588   3.406   3.950   4.961 -0.7189  0.0311  1.7685
 9725TIP3   OH250589   2.913   2.728   4.184 -0.0514  0.0788 -0.3234
 9725TIP3    H150590   2.981   2.663   4.167  0.7466  0.4909  1.1682
 9725TIP3    H250591   2.960   2.802   4.221 -1.1442  0.9260 -0.6113
 9726TIP3   OH250592   1.198   1.580  15.036  0.4061 -0.2952  0.4689
 9726TIP3    H150593   1.229   1.595  14.946 -2.8073 -1.4257 -0.9178
 9726TIP3    H250594   1.277   1.583  15.089  2.4337  0.2026 -2.4288
 9727TIP3   OH250595   3.490   1.558   5.880 -0.4392 -0.3076  0.0126
 9727TIP3    H150596   3.438   1.498   5.934 -1.4703 -0.0712 -0.7088
 9727TIP3    H250597   3.577   1.558   5.922 -0.2554 -2.7161 -0.3023
 9728TIP3   OH250598   2.032   3.164  10.838 -0.6335 -0.1005  0.3668
 9728TIP3    H150599   2.096   3.114  10.788 -0.5678  0.3307  0.0197
 9728TIP3    H250600   2.070   3.252  10.846 -0.8877 -0.0196  0.7079
 9729TIP3   OH250601   2.355   0.648   1.495 -0.5966 -0.0420 -0.9656
 9729TIP3    H150602   2.284   0.698   1.535  0.6251  0.8468  0.1253
 9729TIP3    H250603   2.405   0.615   1.570 -0.9018 -2.1988 -1.6912
 9730TIP3   OH250604   4.961   2.860   3.989 -0.1646  0.5252  0.6843
 9730TIP3    H150605   4.992   2.772   4.009  0.2920  1.1450  2.9606
 9730TIP3    H250606   5.040   2.909   3.966  0.1399  1.2047  2.9819
 9731TIP3   OH250607   2.395   5.004  13.920 -0.2555 -0.7856 -0.2347
 9731TIP3    H150608   2.337   5.051  13.860 -1.2372 -1.8517 -0.1292
 9731TIP3    H250609   2.351   5.011  14.005 -0.5758 -2.1545 -0.2771
 9732TIP3   OH250610   1.717   1.186  11.743  0.0551  0.1657  0.2265
 9732TIP3    H150611   1.803   1.143  11.747  0.0395  0.0511 -0.5275
 9732TIP3    H250612   1.655   1.114  11.727  0.1983  0.6020 -2.6429
 9733TIP3   OH250613   2.204   4.200  13.465 -0.0425  0.0943 -0.2205
 9733TIP3    H150614   2.125   4.149  13.452  0.2914 -0.5090  0.0746
 9733TIP3    H250615   2.254   4.190  13.384 -1.2052  2.1814 -1.2261
 9734TIP3   OH250616   2.818   4.850  15.752 -0.0308 -0.2780 -0.0305
 9734TIP3    H150617   2.764   4.845  15.673 -0.7225 -0.0482  0.4189
 9734TIP3    H250618   2.755   4.846  15.824  0.5406  0.2261  0.5024
 9735TIP3   OH250619   6.430   2.887  14.888  0.1456 -0.3329 -0.2048
 9735TIP3    H150620   6.438   2.846  14.803 -1.1284  1.0721 -1.0332
 9735TIP3    H250621   6.440   2.981  14.871  0.4158 -0.0741  1.2590
 9736TIP3   OH250622   6.580   0.455  16.171 -0.4232  0.6471 -0.1621
 9736TIP3    H150623   6.501   0.507  16.185  0.1260  1.3060  0.4864
 9736TIP3    H250624   6.613   0.436  16.258  0.5090  0.9423 -0.4448
 9737TIP3   OH250625   5.825   1.241   2.047  0.0085  0.1919 -0.5671
 9737TIP3    H150626   5.912   1.202   2.045  0.8142  1.9626 -0.4200
 9737TIP3    H250627   5.777   1.196   1.976  1.0374 -0.7348 -0.6901
 9738TIP3   OH250628   2.460   4.007  15.826  0.0259  0.9560 -0.3922
 9738TIP3    H150629   2.380   4.020  15.776  0.7652  1.0376 -1.5700
 9738TIP3    H250630   2.521   3.967  15.764  0.6441  0.1338  0.7141
 9739TIP3   OH250631   1.965   2.609   5.771 -0.2424  0.1814  0.0420
 9739TIP3    H150632   1.929   2.543   5.712 -0.0732 -0.3594  0.5387
 9739TIP3    H250633   1.897   2.675   5.777  0.3444  0.9848 -1.9437
 9740TIP3   OH250634   4.832   5.526  15.008 -0.0161 -0.2052  0.5186
 9740TIP3    H150635   4.815   5.434  15.030 -1.2237 -0.2944 -0.7824
 9740TIP3    H250636   4.914   5.524  14.958  0.3735 -0.4665  1.1468
 9741TIP3   OH250637   0.964   0.196   4.743 -0.6043 -0.2775  0.4998
 9741TIP3    H150638   0.903   0.125   4.762 -0.5486 -0.7273 -0.9233
 9741TIP3    H250639   1.048   0.167   4.777 -0.9192 -0.1953  1.3527
 9742TIP3   OH250640   3.228   2.920   2.708  0.0809 -0.1789  0.0004
 9742TIP3    H150641   3.241   2.975   2.785 -2.0020  0.4326 -0.0506
 9742TIP3    H250642   3.225   2.831   2.741 -0.0735  0.0270  0.5456
 9743TIP3   OH250643   4.074   4.061   5.364 -0.1853  0.1597 -0.2963
 9743TIP3    H150644   4.134   4.014   5.305  1.2320  1.2525  0.2588
 9743TIP3    H250645   4.026   3.991   5.408  2.8147 -0.8985  1.4878
 9744TIP3   OH250646   5.974   0.871  13.690 -0.0635 -0.2083 -0.3898
 9744TIP3    H150647   6.011   0.787  13.661 -0.0245  0.2368 -1.7033
 9744TIP3    H250648   6.047   0.915  13.733  0.0198 -0.6996 -0.0277
 9745TIP3   OH250649   3.331   1.801  11.558 -0.0381  0.0760 -0.4775
 9745TIP3    H150650   3.345   1.850  11.477  0.4665 -0.2370 -0.5839
 9745TIP3    H250651   3.269   1.732  11.534 -1.4438  1.1941 -0.1128
 9746TIP3   OH250652   3.432   6.646  14.182 -0.2163  0.4572 -0.0881
 9746TIP3    H150653   3.369   6.693  14.237  0.5092  0.3038  0.8754
 9746TIP3    H250654   3.499   6.615  14.243 -1.1234 -2.6158 -0.5517
 9747TIP3   OH250655   3.027   5.854   6.572  0.0900 -0.0511 -0.0706
 9747TIP3    H150656   2.966   5.904   6.627 -0.5062  0.2016 -0.9588
 9747TIP3    H250657   3.007   5.881   6.483 -0.8888 -2.5755 -0.6534
 9748TIP3   OH250658   2.211   5.519  16.392 -0.1576  0.3194 -0.5095
 9748TIP3    H150659   2.165   5.440  16.420 -1.9015  0.7097 -2.1723
 9748TIP3    H250660   2.158   5.591  16.425  0.4087  0.7996 -0.6313
 9749TIP3   OH250661   6.155   4.259  10.711  0.1727  0.8162  0.0891
 9749TIP3    H150662   6.108   4.330  10.755 -0.3582  0.1804  0.5583
 9749TIP3    H250663   6.094   4.185  10.714  0.5735  0.4438 -0.7249
 9750TIP3   OH250664   3.299   6.397  16.448  0.5808 -0.3504 -0.8654
 9750TIP3    H150665   3.323   6.489  16.459 -0.4415 -0.0194 -1.3236
 9750TIP3    H250666   3.315   6.358  16.534 -1.0800  0.7547 -0.0221
 9751TIP3   OH250667   1.809   3.691   2.258  0.4087 -0.1010 -0.4228
 9751TIP3    H150668   1.729   3.645   2.233  0.4556  0.9958 -2.7157
 9751TIP3    H250669   1.782   3.752   2.326 -0.2970 -1.1579  0.2602
 9752TIP3   OH250670   3.955   5.209  14.012 -0.5997  0.0046 -0.8806
 9752TIP3    H150671   4.015   5.225  13.939  0.6565  0.5236  0.2445
 9752TIP3    H250672   3.878   5.263  13.992  0.0671  0.7671 -1.4326
 9753TIP3   OH250673   1.477   0.695   1.371 -0.4563 -0.5222  0.0899
 9753TIP3    H150674   1.500   0.783   1.400 -0.4480 -0.8677  1.1467
 9753TIP3    H250675   1.543   0.673   1.306  0.7904 -0.5637  1.3514
 9754TIP3   OH250676   3.164   4.809   6.004  0.0389 -0.1654  0.0961
 9754TIP3    H150677   3.155   4.784   6.096  0.5119  0.3399  0.2890
 9754TIP3    H250678   3.129   4.898   6.001 -1.5246 -0.7987 -0.5520
 9755TIP3   OH250679   1.659   6.002  13.834  0.3080 -0.6172  0.0683
 9755TIP3    H150680   1.592   6.047  13.885  0.8454 -0.0016  0.2364
 9755TIP3    H250681   1.742   6.031  13.872  0.6959 -0.7168 -0.6834
 9756TIP3   OH250682   1.885   1.067  11.469  0.1794 -0.3231 -0.6908
 9756TIP3    H150683   1.901   1.089  11.561  1.3372 -0.2177 -0.9195
 9756TIP3    H250684   1.905   1.147  11.421 -0.6135 -0.3207 -1.0276
 9757TIP3   OH250685   6.379   3.672   4.395 -0.2356 -0.0774  0.3201
 9757TIP3    H150686   6.319   3.674   4.469 -0.7782 -0.5765 -0.1102
 9757TIP3    H250687   6.441   3.602   4.416  0.7572  1.0347  1.1918
 9758TIP3   OH250688   5.991   6.031  11.908 -0.0637  0.4691 -0.5902
 9758TIP3    H150689   5.949   6.003  11.990  0.1904 -0.0365 -0.6315
 9758TIP3    H250690   6.056   5.963  11.890  0.7742  1.2526 -0.5332
 9759TIP3   OH250691   5.616   1.635  14.576  0.4940 -0.0065 -0.4522
 9759TIP3    H150692   5.586   1.560  14.525  2.3174 -0.1057 -1.4305
 9759TIP3    H250693   5.567   1.629  14.658 -0.8729 -1.0941 -1.3341
 9760TIP3   OH250694   5.778   6.090   1.109 -0.5429 -0.1714  0.1709
 9760TIP3    H150695   5.812   6.179   1.105  1.1453 -0.7134  1.7869
 9760TIP3    H250696   5.851   6.035   1.082 -0.2096 -1.3161  3.1425
 9761TIP3   OH250697   3.106   4.428  14.523 -0.0849  0.4183 -0.1866
 9761TIP3    H150698   3.014   4.442  14.500 -0.5383  1.0083  1.9039
 9761TIP3    H250699   3.155   4.481  14.459 -1.0418 -1.7168 -2.8097
 9762TIP3   OH250700   4.430   2.574  14.765  0.0306 -0.3719 -0.2098
 9762TIP3    H150701   4.456   2.656  14.723  0.0499  0.0907  0.6796
 9762TIP3    H250702   4.386   2.602  14.845  1.6580 -1.2569  1.0257
 9763TIP3   OH250703   3.516   1.485  11.939 -0.5292 -0.5579  0.7451
 9763TIP3    H150704   3.478   1.413  11.989 -0.0003 -0.6750  0.9769
 9763TIP3    H250705   3.460   1.493  11.862 -1.1377 -0.6058  1.1780
 9764TIP3   OH250706   1.386   6.123  14.762 -0.1360 -1.2865  0.5057
 9764TIP3    H150707   1.336   6.142  14.841  0.4398  2.9029 -0.0335
 9764TIP3    H250708   1.452   6.059  14.790 -1.2098 -1.3729  2.9295
 9765TIP3   OH250709   3.342   4.298   4.374  0.4091 -0.2932 -0.0622
 9765TIP3    H150710   3.398   4.298   4.297  2.1825  1.5584  1.1685
 9765TIP3    H250711   3.253   4.309   4.339  1.3326  2.1125 -1.8016
 9766TIP3   OH250712   2.401   2.225   2.468  0.0327  0.0348  0.2753
 9766TIP3    H150713   2.430   2.272   2.546  3.0646  2.1750 -2.0165
 9766TIP3    H250714   2.463   2.152   2.460 -0.3497 -0.2553 -0.0253
 9767TIP3   OH250715   6.039   5.571   5.642 -0.2840 -0.1717 -0.1347
 9767TIP3    H150716   6.118   5.554   5.693  1.3985 -0.5367 -2.8004
 9767TIP3    H250717   6.069   5.618   5.565 -2.8959  1.1104 -0.4182
 9768TIP3   OH250718   1.057   6.432  16.107 -0.4410  0.2448 -0.2398
 9768TIP3    H150719   0.987   6.488  16.140 -1.1548  0.4581 -2.0984
 9768TIP3    H250720   1.013   6.370  16.049  0.5151 -1.4725  0.8022
 9769TIP3   OH250721   4.601   3.782   2.756  0.6880  0.8704 -0.0416
 9769TIP3    H150722   4.695   3.800   2.761  1.4544 -2.9224  0.6990
 9769TIP3    H250723   4.582   3.781   2.662  1.6552  0.4349 -0.2399
 9770TIP3   OH250724   6.139   5.675  15.603 -0.0786 -0.0999  0.3743
 9770TIP3    H150725   6.135   5.706  15.694 -0.4052 -1.7641  0.9497
 9770TIP3    H250726   6.184   5.591  15.609 -0.6105 -0.4871 -0.9408
 9771TIP3   OH250727   3.214   4.937  17.135  0.0702 -0.0719  0.4015
 9771TIP3    H150728   3.175   4.861  17.093  0.8479 -1.0704  1.4475
 9771TIP3    H250729   3.252   4.903  17.216 -2.4173  1.9934  2.5235
 9772TIP3   OH250730   3.175   4.038  14.826 -0.1318 -0.1866  0.6963
 9772TIP3    H150731   3.127   4.046  14.744 -1.7007 -1.4469  1.4678
 9772TIP3    H250732   3.153   4.118  14.875  0.5211  0.3921  0.0660
 9773TIP3   OH250733   4.435   6.381   3.320  0.0914  0.2978  0.1694
 9773TIP3    H150734   4.528   6.381   3.341  0.3178  3.0465 -0.6732
 9773TIP3    H250735   4.429   6.338   3.235  0.9266  2.4774 -1.0206
 9774TIP3   OH250736   0.624   6.059  13.766 -0.1737 -0.1737 -0.2660
 9774TIP3    H150737   0.692   6.123  13.745 -0.6896 -0.3874 -2.6408
 9774TIP3    H250738   0.620   6.002  13.690 -0.2417 -2.6042  1.5107
 9775TIP3   OH250739   6.181   6.536   5.330 -0.2398  0.1313 -0.2077
 9775TIP3    H150740   6.154   6.453   5.371 -1.1469 -0.0462 -1.1279
 9775TIP3    H250741   6.191   6.597   5.403 -1.4888 -0.2740  0.3255
 9776TIP3   OH250742   0.238   3.334   1.252 -0.0415  0.1532  0.6054
 9776TIP3    H150743   0.209   3.255   1.207  1.5166 -0.4704  0.6641
 9776TIP3    H250744   0.292   3.302   1.325  1.8140  1.2900 -0.2280
 9777TIP3   OH250745   5.918   2.306  13.999 -0.0024 -0.0261 -0.4917
 9777TIP3    H150746   5.913   2.324  13.905 -1.6100 -0.2607 -0.4657
 9777TIP3    H250747   6.000   2.346  14.027  0.8381 -0.5490 -2.1317
 9778TIP3   OH250748   0.871   2.572   1.201  0.7876  0.4831  0.4339
 9778TIP3    H150749   0.915   2.651   1.233 -1.7430  0.9982  2.7491
 9778TIP3    H250750   0.912   2.500   1.250 -1.7920  1.0919  3.6201
 9779TIP3   OH250751   4.199   5.883   2.891  0.0425  0.1057 -0.1384
 9779TIP3    H150752   4.190   5.815   2.957  0.9014 -1.9137 -2.0540
 9779TIP3    H250753   4.110   5.898   2.859 -0.1221 -0.2291  0.1699
 9780TIP3   OH250754   1.306   3.418  14.066  0.0561  0.0842  0.3593
 9780TIP3    H150755   1.254   3.493  14.038 -0.0531 -0.3859 -0.7289
 9780TIP3    H250756   1.250   3.343  14.053  1.0922 -0.4580 -1.0999
 9781TIP3   OH250757   2.555   4.683   0.166 -0.1586 -0.1138  0.1073
 9781TIP3    H150758   2.464   4.661   0.148 -0.4659  1.5119 -0.4254
 9781TIP3    H250759   2.577   4.634   0.245 -1.9522  0.6493  1.0985
 9782TIP3   OH250760   0.172   2.204   2.854  0.4639 -0.0099  0.0566
 9782TIP3    H150761   0.210   2.117   2.842  1.0589  0.1652  0.6264
 9782TIP3    H250762   0.144   2.230   2.766 -2.2385 -1.9211  0.2950
 9783TIP3   OH250763   5.263   2.009   0.884  0.1218 -0.3230  0.2177
 9783TIP3    H150764   5.207   2.086   0.870 -0.2123 -0.5054  0.5533
 9783TIP3    H250765   5.245   1.953   0.809  0.9608  0.2801 -0.4460
 9784TIP3   OH250766   2.017   5.253   1.515 -0.3133  0.3965 -0.2311
 9784TIP3    H150767   2.060   5.175   1.552  0.2916  0.3532 -1.0071
 9784TIP3    H250768   2.005   5.311   1.590 -1.0488 -0.5625  0.4091
 9785TIP3   OH250769   5.330   5.443  15.518 -0.1001  0.1273 -0.4213
 9785TIP3    H150770   5.253   5.400  15.479 -0.3768 -0.8977  1.2321
 9785TIP3    H250771   5.302   5.469  15.605  1.7589 -1.2574  0.6308
 9786TIP3   OH250772   6.692   3.602  12.348 -0.1251  0.2132 -0.1075
 9786TIP3    H150773   6.664   3.666  12.414  1.9236  0.1527  0.8502
 9786TIP3    H250774   6.782   3.581  12.372  0.2413 -0.7228 -2.2441
 9787TIP3   OH250775   4.300   3.719   3.435 -0.1683  0.5858 -0.6364
 9787TIP3    H150776   4.213   3.750   3.409 -0.6814 -0.1419  0.1759
 9787TIP3    H250777   4.294   3.710   3.530  1.3365  2.1923 -0.3617
 9788TIP3   OH250778   2.057   5.064  12.596  0.1298 -0.0013  0.0858
 9788TIP3    H150779   2.126   5.001  12.576 -0.5722 -1.2757  1.5382
 9788TIP3    H250780   1.984   5.011  12.628 -0.9314  1.4484  0.1534
 9789TIP3   OH250781   2.669   3.357   1.434 -0.3140  0.0841  0.4083
 9789TIP3    H150782   2.690   3.330   1.345  0.1093 -1.1098  0.8572
 9789TIP3    H250783   2.664   3.453   1.430 -0.8237  0.0030 -1.0024
 9790TIP3   OH250784   0.107   4.798  13.731 -0.2565 -0.4811  0.0922
 9790TIP3    H150785   0.051   4.805  13.808  0.5651 -0.3965  0.6930
 9790TIP3    H250786   0.083   4.873  13.677  0.1235  0.2495  0.9205
 9791TIP3   OH250787   4.157   1.226   3.008  0.2449  0.2300  0.3745
 9791TIP3    H150788   4.208   1.207   2.930 -0.0351  1.7159 -0.1949
 9791TIP3    H250789   4.181   1.316   3.031  0.0457 -0.0613  1.7814
 9792TIP3   OH250790   2.322   1.737  13.966  0.5993  0.2148 -0.2086
 9792TIP3    H150791   2.248   1.738  13.904 -0.7985  0.1687  1.4085
 9792TIP3    H250792   2.321   1.825  14.004 -0.2799 -0.5918  1.6952
 9793TIP3   OH250793   5.037   4.352  13.478 -0.7572  0.2155 -0.1028
 9793TIP3    H150794   5.025   4.261  13.450 -0.8515  0.4066 -0.6844
 9793TIP3    H250795   4.978   4.362  13.553 -0.0833 -0.4601  0.5201
 9794TIP3   OH250796   1.877   2.161  13.798  0.2163  0.2317  0.3895
 9794TIP3    H150797   1.923   2.098  13.854 -1.1244 -1.0310  0.1161
 9794TIP3    H250798   1.866   2.114  13.715 -1.7414  0.4263  0.5282
 9795TIP3   OH250799   4.035   5.405  16.810 -0.2909 -0.8756 -0.5687
 9795TIP3    H150800   4.129   5.387  16.821  0.0154  0.8160 -0.2994
 9795TIP3    H250801   3.994   5.319  16.813  1.0501 -1.4841  1.3291
 9796TIP3   OH250802   5.631   1.718   2.474 -0.0107 -0.4267 -0.3735
 9796TIP3    H150803   5.672   1.804   2.466 -1.9892  0.5090 -0.5418
 9796TIP3    H250804   5.702   1.661   2.506  1.9627  0.6927 -2.6314
 9797TIP3   OH250805   5.346   2.179  14.324  0.0671  0.0928 -0.4127
 9797TIP3    H150806   5.330   2.135  14.408 -0.3394  3.4312  1.3282
 9797TIP3    H250807   5.442   2.183  14.317  0.1112  0.8083  0.4682
 9798TIP3   OH250808   2.493   1.824  16.698  0.3773  0.3388 -0.0411
 9798TIP3    H150809   2.479   1.796  16.608  2.0215 -1.5308  0.2605
 9798TIP3    H250810   2.535   1.910  16.690  0.2019  0.3362 -1.0571
 9799TIP3   OH250811   3.625   4.819  15.248  0.6186  0.3748  0.6433
 9799TIP3    H150812   3.656   4.854  15.165 -1.2058 -0.1981 -0.3181
 9799TIP3    H250813   3.570   4.888  15.285  0.8816  0.3729  1.0433
 9800TIP3   OH250814   3.410   5.028  14.716 -0.1765 -0.0634  0.1953
 9800TIP3    H150815   3.377   4.987  14.796 -0.6304 -0.2075 -0.0612
 9800TIP3    H250816   3.340   5.087  14.689  0.8507  1.5980  1.0705
 9801TIP3   OH250817   3.956   1.124   3.166 -0.0411 -0.5313  0.0432
 9801TIP3    H150818   4.025   1.103   3.229  0.2393 -0.5232 -0.2612
 9801TIP3    H250819   4.003   1.154   3.088 -0.4128  0.3297  0.1476
 9802TIP3   OH250820   2.755   5.683  12.177  0.3490  0.2256 -0.0634
 9802TIP3    H150821   2.687   5.741  12.210 -1.6120 -1.4942 -0.9573
 9802TIP3    H250822   2.773   5.715  12.089 -1.1164 -0.8299 -0.7555
 9803TIP3   OH250823   6.416   1.303   4.868 -0.3446  0.4652  0.6487
 9803TIP3    H150824   6.411   1.208   4.863 -1.2407  0.5007  0.8139
 9803TIP3    H250825   6.326   1.332   4.880 -0.1240  1.3607  0.2305
 9804TIP3   OH250826   2.134   2.846  15.575 -0.2382  0.3690 -0.4376
 9804TIP3    H150827   2.056   2.798  15.546  0.3890 -1.2647  0.4908
 9804TIP3    H250828   2.191   2.847  15.497 -1.0412  1.2847 -1.0204
 9805TIP3   OH250829   6.537   0.020  15.723  0.4636  0.0147 -0.1521
 9805TIP3    H150830   6.466  -0.037  15.692  0.8492 -0.7166  0.2850
 9805TIP3    H250831   6.596  -0.039  15.770  0.6918  0.8337  0.6186
 9806TIP3   OH250832   0.299   4.670  15.075  0.1147 -0.0717  0.1008
 9806TIP3    H150833   0.289   4.741  15.139  0.0261 -1.5929  1.8266
 9806TIP3    H250834   0.263   4.593  15.119 -0.2095 -1.1095 -1.9113
 9807TIP3   OH250835   3.210   4.903   0.211 -0.3379  0.3943  0.1462
 9807TIP3    H150836   3.206   4.809   0.225 -1.5581  0.5754  1.1998
 9807TIP3    H250837   3.265   4.935   0.283  1.8548  0.2746 -1.4472
 9808TIP3   OH250838   6.674   6.235   5.962 -0.5597 -0.0948 -0.2709
 9808TIP3    H150839   6.635   6.275   6.039 -1.9042  0.1661 -1.0675
 9808TIP3    H250840   6.759   6.277   5.953  0.0342 -0.8283  1.6130
 9809TIP3   OH250841   0.528   1.778  16.307 -0.2039 -0.4185  0.1416
 9809TIP3    H150842   0.608   1.799  16.258 -0.8428  2.8148  0.4168
 9809TIP3    H250843   0.525   1.842  16.377 -1.4130 -2.5323  2.0955
 9810TIP3   OH250844   5.068   4.478   2.383 -0.4258  1.2027  0.1581
 9810TIP3    H150845   5.134   4.425   2.428  0.5385  3.4473  1.4774
 9810TIP3    H250846   5.100   4.485   2.293  0.2771  0.9216  0.3833
 9811TIP3   OH250847   3.449   1.734   6.812 -0.1206  0.3040 -0.2538
 9811TIP3    H150848   3.489   1.724   6.725 -0.5035 -0.0150 -0.3964
 9811TIP3    H250849   3.513   1.786   6.862  0.5575 -0.3674 -0.4139
 9812TIP3   OH250850   2.943   1.071   0.500  0.2840 -0.4720 -0.2073
 9812TIP3    H150851   2.917   1.023   0.421  3.4642 -1.2763 -0.8415
 9812TIP3    H250852   2.924   1.010   0.571  1.3938 -1.4591 -0.7429
 9813TIP3   OH250853   3.722   2.021  15.464 -0.0531 -0.3975 -0.2904
 9813TIP3    H150854   3.651   2.007  15.526 -1.4717  1.0058 -1.5467
 9813TIP3    H250855   3.776   1.942  15.471 -1.1507 -1.0428  1.4063
 9814TIP3   OH250856   4.435   2.381  14.318 -0.5182  0.2698 -0.1683
 9814TIP3    H150857   4.394   2.295  14.310  1.3448 -0.6319 -0.4270
 9814TIP3    H250858   4.367   2.443  14.294 -2.1074 -1.0908  0.7348
 9815TIP3   OH250859   5.088   4.670  12.327 -0.3345  0.6214 -0.2758
 9815TIP3    H150860   5.097   4.705  12.239  0.1222  0.1971 -0.3985
 9815TIP3    H250861   5.075   4.747  12.382 -1.0293  0.8554 -0.7630
 9816TIP3   OH250862   2.884   4.670   0.967 -0.3027  0.0379 -0.3563
 9816TIP3    H150863   2.862   4.609   1.037  2.1664 -1.0314 -0.4892
 9816TIP3    H250864   2.862   4.756   1.003 -2.3598 -0.7602  0.3983
 9817TIP3   OH250865   2.909   3.883   2.795  0.4913  0.3932  0.6704
 9817TIP3    H150866   2.860   3.884   2.713  1.1000  0.5448  0.3052
 9817TIP3    H250867   2.863   3.819   2.850 -1.5231  2.2471  1.1977
 9818TIP3   OH250868   5.414   3.314  14.667  0.0147  0.2697  0.0179
 9818TIP3    H150869   5.385   3.236  14.619 -0.5556  1.2241 -1.2056
 9818TIP3    H250870   5.400   3.386  14.606  0.8969  1.2892  1.0127
 9819TIP3   OH250871   1.592   0.340  12.813  0.0262 -0.0227  0.2794
 9819TIP3    H150872   1.572   0.409  12.876 -0.7531  0.0362 -0.0287
 9819TIP3    H250873   1.658   0.378  12.756 -0.6032  0.5624 -0.0550
 9820TIP3   OH250874   3.150   4.305  13.575  0.8417  0.0972  0.7827
 9820TIP3    H150875   3.095   4.373  13.612 -1.2401 -1.1122 -0.0051
 9820TIP3    H250876   3.108   4.223  13.602  0.0049 -0.8254 -3.0387
 9821TIP3   OH250877   3.015   3.091  12.398  0.5030 -0.1888 -0.5627
 9821TIP3    H150878   2.923   3.065  12.405  0.8549 -1.2121  0.2833
 9821TIP3    H250879   3.024   3.164  12.460  0.7493 -1.4442  0.9011
 9822TIP3   OH250880   0.710   6.079   0.346  0.0770  0.2683  0.7352
 9822TIP3    H150881   0.737   6.088   0.437 -1.0552  0.3706  1.0590
 9822TIP3    H250882   0.623   6.039   0.350  0.6993 -1.2738 -0.3506
 9823TIP3   OH250883   2.635   6.319   1.167 -0.6652  0.2769 -0.1514
 9823TIP3    H150884   2.625   6.347   1.076  0.5147  0.6775 -0.1708
 9823TIP3    H250885   2.607   6.395   1.218 -0.8021  0.2485 -0.1837
 9824TIP3   OH250886   0.409   5.777  15.287  0.3051 -0.8719 -0.2008
 9824TIP3    H150887   0.439   5.822  15.208 -0.0580 -0.7343 -0.2589
 9824TIP3    H250888   0.454   5.822  15.359 -0.8989  0.3003 -0.1699
 9825TIP3   OH250889   2.976   5.884   1.694 -0.0922 -0.4601  0.0691
 9825TIP3    H150890   2.907   5.950   1.692 -2.5252 -2.9092  0.9134
 9825TIP3    H250891   2.988   5.858   1.603 -1.0221 -0.7342  0.0181
 9826TIP3   OH250892   1.121   2.923   3.802  0.0324 -0.5937 -0.6016
 9826TIP3    H150893   1.034   2.927   3.763  0.0940  1.8704 -0.5624
 9826TIP3    H250894   1.112   2.966   3.887  1.3822  0.2250 -0.8447
 9827TIP3   OH250895   2.523   3.587  11.415 -0.5304 -0.0062  0.0186
 9827TIP3    H150896   2.470   3.663  11.393 -0.7600  0.5464  2.3304
 9827TIP3    H250897   2.460   3.514  11.417 -0.4734 -0.1018 -1.2440
 9828TIP3   OH250898   5.138   3.998  16.469  0.3521  0.1475  0.4419
 9828TIP3    H150899   5.160   3.913  16.432  0.0707  0.4177 -0.3467
 9828TIP3    H250900   5.151   3.987  16.564  1.0847 -0.5337  0.2671
 9829TIP3   OH250901   0.783   0.885   5.872  0.1583 -0.4959  0.6307
 9829TIP3    H150902   0.688   0.875   5.875  0.2162 -1.2259  0.1540
 9829TIP3    H250903   0.816   0.815   5.928  0.5136 -2.1424 -1.5671
 9830TIP3   OH250904   2.434   1.637  11.696 -0.2671  0.3344  0.0321
 9830TIP3    H150905   2.455   1.691  11.621 -0.3721 -0.1187 -0.3283
 9830TIP3    H250906   2.409   1.552  11.659  1.2909 -0.4196  0.6392
 9831TIP3   OH250907   5.185   5.016   0.973 -0.2428 -0.6733  0.2830
 9831TIP3    H150908   5.261   5.074   0.968 -0.7395 -0.0462 -0.0954
 9831TIP3    H250909   5.190   4.962   0.895 -1.2439  0.6968 -0.7454
 9832TIP3   OH250910   0.658   2.721  13.672 -0.0098  0.1738 -0.0282
 9832TIP3    H150911   0.642   2.687  13.760  0.0502 -1.3151 -0.5699
 9832TIP3    H250912   0.720   2.792  13.684  2.3852 -1.9919  0.8701
 9833TIP3   OH250913   6.338   1.195  14.312 -0.1403  0.7107  0.5167
 9833TIP3    H150914   6.343   1.119  14.370 -1.5369 -0.5851 -0.9976
 9833TIP3    H250915   6.369   1.268  14.365 -1.4185 -0.4226  2.9057
 9834TIP3   OH250916   6.536   6.328  13.950 -0.0565 -0.2555  0.0333
 9834TIP3    H150917   6.612   6.361  13.997 -0.5200 -0.1171  0.7034
 9834TIP3    H250918   6.535   6.234  13.969 -1.3430  0.0932  1.9525
 9835TIP3   OH250919   4.043   0.342   5.860  0.8487  0.3123  0.3811
 9835TIP3    H150920   4.083   0.256   5.860  0.2806  0.0409 -0.8229
 9835TIP3    H250921   3.950   0.326   5.846  0.7924  1.1343 -0.2563
 9836TIP3   OH250922   3.539   0.379  12.527  0.6743  0.0759  0.2971
 9836TIP3    H150923   3.476   0.417  12.589  1.9436  1.2816  0.8582
 9836TIP3    H250924   3.485   0.325  12.469 -0.9810  1.6260  0.3499
 9837TIP3   OH250925   0.891   4.940  14.674 -0.2009 -0.5299  0.9044
 9837TIP3    H150926   0.824   4.888  14.719 -0.7862  0.7086  1.5015
 9837TIP3    H250927   0.920   5.003  14.740  1.8202 -1.2767  0.7569
 9838TIP3   OH250928   4.267   0.551  14.093  0.4892  0.9171 -0.1684
 9838TIP3    H150929   4.330   0.494  14.048 -1.0192 -0.3179 -0.7591
 9838TIP3    H250930   4.280   0.531  14.185 -1.1763 -1.6840 -0.4410
 9839TIP3   OH250931   3.573   0.105  11.595  0.1567  0.1130 -0.2438
 9839TIP3    H150932   3.496   0.057  11.626 -1.0475  1.5126 -0.9990
 9839TIP3    H250933   3.601   0.157  11.671  1.5529 -1.8460  0.6178
 9840TIP3   OH250934   3.499   5.442   1.914 -0.4340 -0.0340  0.0660
 9840TIP3    H150935   3.509   5.446   2.009 -3.6170 -1.1628  0.5149
 9840TIP3    H250936   3.480   5.532   1.888  1.4500  0.4607  0.3377
 9841TIP3   OH250937   6.306   1.180  12.791 -0.5389  0.1176 -0.1108
 9841TIP3    H150938   6.334   1.200  12.702  0.3112  1.0531  0.3572
 9841TIP3    H250939   6.222   1.225  12.801  0.2844  1.6155  0.1858
 9842TIP3   OH250940   2.577   4.915  13.220 -0.0579  0.4825 -0.1409
 9842TIP3    H150941   2.482   4.904  13.214 -0.4946  3.7385 -0.3908
 9842TIP3    H250942   2.594   4.922  13.314 -0.3987  1.9809 -0.1684
 9843TIP3   OH250943   3.526   5.436   2.765  0.1182  0.7607 -0.2821
 9843TIP3    H150944   3.529   5.365   2.829  2.2513  1.0355 -0.0546
 9843TIP3    H250945   3.455   5.411   2.705  1.3239 -1.9484 -0.6578
 9844TIP3   OH250946   2.618   5.222   3.321 -0.2671 -0.2627 -0.2221
 9844TIP3    H150947   2.626   5.269   3.238 -0.0730  0.8459  0.4288
 9844TIP3    H250948   2.680   5.149   3.313 -0.1616 -0.0977 -0.9940
 9845TIP3   OH250949   6.238   5.033   2.505  0.3572  0.0837 -0.0180
 9845TIP3    H150950   6.207   4.953   2.548  2.2226  0.0699  1.3364
 9845TIP3    H250951   6.190   5.104   2.549  0.2508 -0.1359  0.2209
 9846TIP3   OH250952   2.633   1.464  10.813 -0.0999  0.2826  0.0211
 9846TIP3    H150953   2.704   1.464  10.877  0.9896 -0.2487 -1.1642
 9846TIP3    H250954   2.676   1.480  10.729 -1.2872 -0.7475 -0.8063
 9847TIP3   OH250955   3.893   2.939  13.061  0.2903  0.6209 -0.4677
 9847TIP3    H150956   3.856   2.943  12.973 -0.4151 -0.8165 -0.2537
 9847TIP3    H250957   3.941   2.856  13.063 -1.3976 -0.3675  1.1144
 9848TIP3   OH250958   2.559   4.352  12.061 -0.5284  0.8645  0.3859
 9848TIP3    H150959   2.635   4.356  12.119 -0.0475 -1.7546  0.0056
 9848TIP3    H250960   2.590   4.390  11.978  0.4938 -0.5207  0.1190
 9849TIP3   OH250961   4.502   3.999   2.879 -0.7530 -0.6611 -0.3502
 9849TIP3    H150962   4.557   3.928   2.846  0.4637  1.1240 -2.2625
 9849TIP3    H250963   4.444   3.957   2.943  1.2503 -3.0098 -0.0083
 9850TIP3   OH250964   1.116   6.527  13.968 -0.0802  0.4134 -0.0005
 9850TIP3    H150965   1.124   6.620  13.948 -3.1362  0.6538 -0.3086
 9850TIP3    H250966   1.094   6.525  14.061 -1.4154  0.1081 -0.3059
 9851TIP3   OH250967   1.607   5.985   2.678  0.4215  0.0856  0.1378
 9851TIP3    H150968   1.551   5.943   2.745 -0.9093  1.4462 -0.0950
 9851TIP3    H250969   1.630   5.913   2.619 -0.8702 -0.5650  0.3939
 9852TIP3   OH250970   3.180   1.611  16.489  0.2243 -0.0506 -0.4706
 9852TIP3    H150971   3.265   1.623  16.531 -0.9256 -1.0534  2.3290
 9852TIP3    H250972   3.168   1.516  16.485 -0.6175  0.0759 -1.0945
 9853TIP3   OH250973   3.223   3.972  15.707  0.4435 -0.3777  0.1092
 9853TIP3    H150974   3.230   4.012  15.794  0.1004 -0.3122  0.1075
 9853TIP3    H250975   3.310   3.983  15.668  0.4186  0.1570  0.2013
 9854TIP3   OH250976   4.921   3.065   2.172  0.5822 -0.7919  0.6784
 9854TIP3    H150977   4.848   3.125   2.189  1.4295  0.7155 -0.9012
 9854TIP3    H250978   4.995   3.102   2.219  1.5118  0.3339 -1.5867
 9855TIP3   OH250979   2.005   2.199   4.713  0.3724 -0.5451 -0.0276
 9855TIP3    H150980   2.014   2.259   4.787 -1.2535 -0.5431  0.1922
 9855TIP3    H250981   1.999   2.256   4.636  0.8105 -0.4943 -0.0207
 9856TIP3   OH250982   1.409   5.099   3.527  0.0953  0.0960 -0.1802
 9856TIP3    H150983   1.320   5.123   3.501 -0.1747  0.6616  1.2020
 9856TIP3    H250984   1.397   5.050   3.609  1.1559  1.6742  0.9454
 9857TIP3   OH250985   4.386   5.775  12.112 -0.1236  0.3741  0.4687
 9857TIP3    H150986   4.330   5.705  12.145 -0.8769  1.0492  0.6400
 9857TIP3    H250987   4.457   5.780  12.176 -0.5107  0.3224  0.9105
 9858TIP3   OH250988   0.338   1.785   0.280  0.7190  0.4487  0.2497
 9858TIP3    H150989   0.383   1.725   0.340  2.5791  1.8576  0.3303
 9858TIP3    H250990   0.283   1.838   0.337  0.8293  0.3326  0.4664
 9859TIP3   OH250991   5.282   5.118  11.301  0.7264  0.2644 -0.2070
 9859TIP3    H150992   5.335   5.040  11.318 -0.5217 -0.5259  0.1161
 9859TIP3    H250993   5.291   5.133  11.206  2.2446  0.6838 -0.0119
 9860TIP3   OH250994   5.158   1.229   3.087  0.6457 -0.3244  0.7713
 9860TIP3    H150995   5.201   1.152   3.125  1.4184 -0.2561  0.0450
 9860TIP3    H250996   5.226   1.296   3.086 -0.0208  0.3603  1.3769
 9861TIP3   OH250997   4.923   3.124  15.574  0.1985  0.1602  0.5722
 9861TIP3    H150998   4.972   3.204  15.555  0.8747 -0.4189 -0.2045
 9861TIP3    H250999   4.897   3.131  15.665  0.4602  1.1563  0.5675
 9862TIP3   OH251000   3.797   4.440   2.170  0.0111  0.0637 -0.2292
 9862TIP3    H151001   3.832   4.408   2.253 -1.8027 -2.5578 -0.4016
 9862TIP3    H251002   3.808   4.535   2.174  1.6199 -0.1826  2.2054
 9863TIP3   OH251003   6.700   2.895   3.836  0.4070 -0.3162  0.3173
 9863TIP3    H151004   6.632   2.953   3.870  1.3544  0.5141  0.8065
 9863TIP3    H251005   6.707   2.825   3.901 -0.9676 -1.1757 -0.4372
 9864TIP3   OH251006   4.340   1.420  13.389 -0.2281 -0.4820  0.1745
 9864TIP3    H151007   4.383   1.413  13.304  0.2725 -0.3963  0.4196
 9864TIP3    H251008   4.404   1.463  13.445  0.0268 -1.8750  0.9943
 9865TIP3   OH251009   5.172   1.703  16.871 -0.1361 -0.3713  0.5850
 9865TIP3    H151010   5.263   1.674  16.864  0.8522  2.3503  1.4611
 9865TIP3    H251011   5.121   1.622  16.872  2.0957 -1.9082 -1.9304
 9866TIP3   OH251012   1.450   6.395  15.095 -0.3712  0.7451  0.2283
 9866TIP3    H151013   1.426   6.445  15.017 -0.5447  1.3491  0.6637
 9866TIP3    H251014   1.391   6.427  15.163  0.4153  0.9092  0.8409
 9867TIP3   OH251015   3.135   2.289   3.868 -0.2994 -0.1669  0.4754
 9867TIP3    H151016   3.158   2.382   3.864  1.9952 -0.7534 -0.6722
 9867TIP3    H251017   3.087   2.273   3.787  2.2259 -0.6996 -0.9611
 9868TIP3   OH251018   1.308   5.017   1.825 -0.5139 -0.2395 -0.3612
 9868TIP3    H151019   1.247   4.943   1.822  0.3507 -0.9499 -0.2660
 9868TIP3    H251020   1.342   5.018   1.914  0.7205 -0.7285 -0.8208
 9869TIP3   OH251021   0.940   5.190  14.818  0.4558 -0.2242 -0.9963
 9869TIP3    H151022   0.931   5.190  14.914  1.2416 -0.3768 -0.9218
 9869TIP3    H251023   0.914   5.278  14.791  1.3510  0.1911 -0.5330
 9870TIP3   OH251024   6.503   6.638   1.118  0.0416 -0.1816  0.1056
 9870TIP3    H151025   6.547   6.555   1.138 -1.5858 -1.4373 -1.3227
 9870TIP3    H251026   6.517   6.692   1.195 -0.0768 -2.3094  1.6693
 9871TIP3   OH251027   3.317   1.725  15.633 -0.0614 -0.7176 -0.2430
 9871TIP3    H151028   3.392   1.670  15.654 -0.8514 -1.0556  1.8321
 9871TIP3    H251029   3.257   1.666  15.586  0.1472 -0.9454 -0.2266
 9872TIP3   OH251030   2.258   3.433   4.266 -0.5383  0.8966 -0.1955
 9872TIP3    H151031   2.272   3.366   4.200 -2.3780  1.9453 -1.6973
 9872TIP3    H251032   2.300   3.512   4.230  0.5644  0.8685  1.0001
 9873TIP3   OH251033   2.271   5.509   0.975 -0.6756  0.7453  0.2050
 9873TIP3    H151034   2.234   5.444   0.916  0.3885 -0.4032  0.7832
 9873TIP3    H251035   2.217   5.587   0.962 -2.0184 -0.2773 -0.4201
 9874TIP3   OH251036   3.546   3.390   5.893  0.2023 -0.3262  0.2388
 9874TIP3    H151037   3.615   3.441   5.937 -0.4378  0.9454 -0.2035
 9874TIP3    H251038   3.590   3.354   5.816  0.9557 -1.3878  1.1495
 9875TIP3   OH251039   3.236   2.783  14.932  0.4315  0.0273  0.7926
 9875TIP3    H151040   3.189   2.740  14.861  0.5676 -0.0290  0.7357
 9875TIP3    H251041   3.298   2.841  14.888 -1.9238  2.6906  0.8244
 9876TIP3   OH251042   3.270   5.192  14.570  0.2704 -0.0988  0.0824
 9876TIP3    H151043   3.195   5.249  14.556  1.1780  1.4634  1.4399
 9876TIP3    H251044   3.339   5.229  14.514  0.4636 -0.6812 -0.0729
 9877TIP3   OH251045   4.841   0.925   6.477  0.2741  0.2978 -0.8207
 9877TIP3    H151046   4.871   0.835   6.464  0.9355  0.0551  2.0115
 9877TIP3    H251047   4.746   0.919   6.472  0.2949 -0.6374 -0.3028
 9878TIP3   OH251048   6.588   2.177  15.441  0.2846  0.3384 -0.5579
 9878TIP3    H151049   6.531   2.250  15.418 -0.3678 -0.1180 -0.3931
 9878TIP3    H251050   6.675   2.216  15.449 -0.4051  1.4837  1.6148
 9879TIP3   OH251051   1.330   5.507  11.818  0.1946  0.1698 -0.1434
 9879TIP3    H151052   1.271   5.581  11.832 -0.7175 -0.3200 -1.3435
 9879TIP3    H251053   1.404   5.525  11.876 -1.5814  0.2825  2.1416
 9880TIP3   OH251054   4.734   6.242   1.695  0.1551 -0.0775 -0.0540
 9880TIP3    H151055   4.673   6.280   1.758 -0.2401  1.1501 -1.1559
 9880TIP3    H251056   4.756   6.314   1.636  2.3849 -0.6057  0.0969
 9881TIP3   OH251057   3.609   1.015   5.665 -0.5356 -0.1798  0.0872
 9881TIP3    H151058   3.588   1.051   5.578  0.2059  1.3902  0.5458
 9881TIP3    H251059   3.544   1.053   5.723 -1.6385 -2.0035  0.0712
 9882TIP3   OH251060   5.963   2.826   2.236  0.3045 -0.0558  0.2071
 9882TIP3    H151061   6.011   2.880   2.173  0.5068 -0.9217 -0.3860
 9882TIP3    H251062   5.934   2.888   2.303  0.7770  0.7460 -0.3190
 9883TIP3   OH251063   4.770   5.615   2.437  0.2901  0.1820  0.1100
 9883TIP3    H151064   4.712   5.579   2.370 -0.4642  1.7941 -0.1204
 9883TIP3    H251065   4.765   5.710   2.425  0.3664  0.4836  2.2717
 9884TIP3   OH251066   1.400   5.685   5.275  0.8710 -0.1021  0.1692
 9884TIP3    H151067   1.420   5.779   5.281 -0.1204  0.1448 -0.2502
 9884TIP3    H251068   1.378   5.671   5.183 -0.3160 -0.4634  0.4924
 9885TIP3   OH251069   4.664   5.890  14.324 -0.0795 -0.7801  0.4121
 9885TIP3    H151070   4.692   5.959  14.264 -1.9148 -0.4238 -0.0570
 9885TIP3    H251071   4.716   5.904  14.403  0.5364  0.3003 -0.1726
 9886TIP3   OH251072   5.015   0.288   6.040 -0.2638 -0.4208  0.4477
 9886TIP3    H151073   4.947   0.233   6.079 -0.9005 -1.4936 -2.1219
 9886TIP3    H251074   5.097   0.254   6.075 -0.8493 -1.0111  1.2539
 9887TIP3   OH251075   2.046   4.717   0.552  0.1904 -0.2856 -0.1697
 9887TIP3    H151076   1.991   4.715   0.631  0.0135 -0.4412 -0.2966
 9887TIP3    H251077   1.993   4.764   0.487  0.8611  1.0088  0.1968
 9888TIP3   OH251078   3.283   5.249  12.514 -0.4681 -0.1159 -0.3012
 9888TIP3    H151079   3.197   5.210  12.532 -1.1375  1.0424 -0.9629
 9888TIP3    H251080   3.282   5.332  12.561  0.7907 -0.6550  0.7284
 9889TIP3   OH251081   0.775   1.018  16.388 -0.3395 -0.5076 -0.0164
 9889TIP3    H151082   0.803   1.065  16.467 -0.5052 -1.6634  0.7481
 9889TIP3    H251083   0.847   0.958  16.369  0.0182  0.2720 -1.1786
 9890TIP3   OH251084   0.987   5.241   5.614  0.1878  0.1542  0.2773
 9890TIP3    H151085   0.989   5.145   5.606  2.0859 -0.2004  4.0610
 9890TIP3    H251086   0.916   5.259   5.676 -0.3627  1.2383 -0.6483
 9891TIP3   OH251087   0.983   2.415   0.968  0.2981  0.3039  0.7669
 9891TIP3    H151088   0.967   2.492   1.022 -2.6429  1.5994 -1.8398
 9891TIP3    H251089   0.959   2.341   1.024 -1.4310  1.5422  1.6909
 9892TIP3   OH251090   2.582   1.550   4.656  0.4103 -0.3229  0.0808
 9892TIP3    H151091   2.644   1.487   4.692 -0.7722 -1.3072  0.4166
 9892TIP3    H251092   2.511   1.553   4.719 -0.0321  0.5765 -0.4439
 9893TIP3   OH251093   1.130   3.973  14.468  0.2825  0.2158 -0.3112
 9893TIP3    H151094   1.173   4.027  14.401  0.8549 -0.1326 -0.2325
 9893TIP3    H251095   1.037   3.994  14.460  0.5542  1.6476  0.1082
 9894TIP3   OH251096   1.982   2.308   5.128  0.1809  0.1902  0.3431
 9894TIP3    H151097   2.055   2.322   5.068 -0.0333  1.0745  0.2786
 9894TIP3    H251098   1.905   2.301   5.071  0.3370 -1.7352  0.3453
 9895TIP3   OH251099   5.593   1.104   0.732  0.3305  0.4889 -0.5362
 9895TIP3    H151100   5.509   1.105   0.777  1.5895 -1.8132  2.0534
 9895TIP3    H251101   5.612   1.196   0.713 -0.6238  1.5056  3.0581
 9896TIP3   OH251102   0.757   2.940   2.843 -0.1875 -0.5257  0.0229
 9896TIP3    H151103   0.791   2.926   2.754 -1.5464  0.8102 -0.7263
 9896TIP3    H251104   0.728   2.854   2.871  0.4890 -1.0112 -0.7359
 9897TIP3   OH251105   5.634   4.571  14.149  0.0256 -0.3411  0.3092
 9897TIP3    H151106   5.674   4.560  14.063 -1.3635  0.4270 -0.4529
 9897TIP3    H251107   5.622   4.482  14.181  0.9531 -0.6166 -0.1046
 9898TIP3   OH251108   6.071   6.480   4.572 -0.6402 -0.4256  0.5226
 9898TIP3    H151109   6.067   6.549   4.505  2.3568 -1.5104 -0.8329
 9898TIP3    H251110   5.981   6.448   4.578 -1.5324  1.6972 -0.8526
 9899TIP3   OH251111   0.171   4.080   4.160 -0.0752 -0.3406 -0.0375
 9899TIP3    H151112   0.162   4.094   4.254 -2.1369 -2.5827  0.1521
 9899TIP3    H251113   0.251   4.027   4.150  0.2762  0.1070  0.4286
 9900TIP3   OH251114   0.707   6.673  14.001 -0.2698  0.1880 -0.6330
 9900TIP3    H151115   0.673   6.649  14.088  1.1873 -1.2183 -0.4354
 9900TIP3    H251116   0.740   6.762  14.013  0.5874 -0.2618  0.4475
 9901TIP3   OH251117   5.266   3.183   3.710  0.0883 -0.1568  0.0794
 9901TIP3    H151118   5.266   3.118   3.639  1.7894 -0.7732  0.5961
 9901TIP3    H251119   5.307   3.260   3.671 -3.3434  1.1866 -0.9903
 9902TIP3   OH251120   6.444   0.302  16.755  0.0853  0.3685 -0.0734
 9902TIP3    H151121   6.486   0.242  16.694 -1.8766 -1.3949  0.2608
 9902TIP3    H251122   6.517   0.346  16.799  1.5657 -1.4734 -0.6118
 9903TIP3   OH251123   5.296   3.513  11.709  0.0709 -0.4594  0.5574
 9903TIP3    H151124   5.214   3.525  11.758  0.4429  0.7765  0.9126
 9903TIP3    H251125   5.364   3.536  11.772  0.6203 -0.1639 -0.1372
 9904TIP3   OH251126   6.650   2.246   3.546 -0.4436  0.1514 -0.0005
 9904TIP3    H151127   6.566   2.253   3.501 -0.1702  1.0674 -0.3830
 9904TIP3    H251128   6.697   2.325   3.520  0.4627 -0.2698  0.3637
 9905TIP3   OH251129   0.613   1.642  11.297 -0.1748 -0.0818  0.4189
 9905TIP3    H151130   0.659   1.713  11.251 -1.0804 -0.1023 -0.5137
 9905TIP3    H251131   0.539   1.685  11.339  0.7577 -0.0251  2.0595
 9906TIP3   OH251132   6.779   1.508  16.722  0.3274 -0.7136  0.0878
 9906TIP3    H151133   6.852   1.466  16.768  1.6848  0.7622 -0.6965
 9906TIP3    H251134   6.778   1.467  16.635  1.5551  0.7132 -0.6233
 9907TIP3   OH251135   4.348   4.695   6.544 -0.5820 -0.1106 -0.3604
 9907TIP3    H151136   4.403   4.641   6.601 -1.2741  0.1658  0.5794
 9907TIP3    H251137   4.403   4.770   6.521 -0.2139 -0.3500 -0.2632
 9908TIP3   OH251138   1.562   6.322  14.710 -0.2928 -0.3963  0.0583
 9908TIP3    H151139   1.508   6.243  14.705  0.4427 -0.8857 -0.2564
 9908TIP3    H251140   1.499   6.394  14.716 -0.9403 -1.1260  2.4151
 9909TIP3   OH251141   1.780   3.946   0.851 -0.2015 -0.1679 -0.0033
 9909TIP3    H151142   1.768   3.991   0.767  0.5541 -0.0033 -0.0310
 9909TIP3    H251143   1.767   3.854   0.831  1.4127 -0.2842 -0.6130
 9910TIP3   OH251144   1.912   2.128   2.115  0.1747  0.1001  0.7765
 9910TIP3    H151145   1.925   2.033   2.105 -1.6575 -0.0477 -0.4223
 9910TIP3    H251146   1.948   2.166   2.035 -2.4391  0.0711 -0.4503
 9911TIP3   OH251147   6.557   4.397  13.199  0.6130  0.2683  0.0561
 9911TIP3    H151148   6.566   4.423  13.107 -3.1956  1.1910 -0.1358
 9911TIP3    H251149   6.551   4.302  13.197  0.9170  0.2613 -0.5909
 9912TIP3   OH251150   1.957   4.920   0.371  0.3953 -0.3102  0.3038
 9912TIP3    H151151   1.904   4.928   0.292 -0.1421 -0.5204  0.6397
 9912TIP3    H251152   1.902   4.957   0.440 -0.4105 -2.9364  1.1349
 9913TIP3   OH251153   1.936   4.588   4.197 -0.4698 -0.2257  0.4846
 9913TIP3    H151154   1.930   4.531   4.273 -0.9502 -1.1109 -0.2049
 9913TIP3    H251155   1.866   4.558   4.139 -0.7701  1.1067  0.1400
 9914TIP3   OH251156   5.302   4.252  12.626 -0.1638 -0.4078  0.1260
 9914TIP3    H151157   5.219   4.258  12.579 -0.4814 -3.7062  0.1722
 9914TIP3    H251158   5.277   4.247  12.718  0.0129 -2.1953  0.0914
 9915TIP3   OH251159   4.203   3.150   0.480 -0.2833 -0.6072 -0.1591
 9915TIP3    H151160   4.173   3.179   0.566  1.1039  0.1590  0.0781
 9915TIP3    H251161   4.123   3.137   0.429 -1.0200  1.3669  0.4796
 9916TIP3   OH251162   4.373   2.307  12.138  0.2615 -0.4683 -0.1920
 9916TIP3    H151163   4.462   2.293  12.104  0.1347  0.4404 -0.9088
 9916TIP3    H251164   4.353   2.398  12.115 -1.1992 -0.9437 -0.8199
 9917TIP3   OH251165   6.016   3.583   1.137 -0.1563  0.2909  0.1822
 9917TIP3    H151166   6.087   3.553   1.195 -0.0214 -0.1643 -0.2160
 9917TIP3    H251167   5.940   3.533   1.165 -0.1425  0.2305  0.1132
 9918TIP3   OH251168   3.823   5.725   0.884 -0.3747 -0.4374  0.0244
 9918TIP3    H151169   3.901   5.729   0.829  0.7730 -0.4793  1.6203
 9918TIP3    H251170   3.777   5.646   0.854  0.7463 -1.0069 -0.2396
 9919TIP3   OH251171   4.848   5.004  13.219  0.4441  0.0997  0.5762
 9919TIP3    H151172   4.874   5.071  13.156 -2.8002 -0.0809 -1.1038
 9919TIP3    H251173   4.925   4.948  13.229  1.2230  0.4372 -2.8585
 9920TIP3   OH251174   3.661   2.368  12.615 -0.3346 -0.0084  0.0232
 9920TIP3    H151175   3.666   2.295  12.552 -3.7353 -0.6693  0.4227
 9920TIP3    H251176   3.681   2.328  12.699 -1.4379 -0.3379  0.1335
 9921TIP3   OH251177   1.257   4.242  11.994 -0.0856 -0.4913  0.0540
 9921TIP3    H151178   1.225   4.195  12.071 -1.2407  1.2206  0.6393
 9921TIP3    H251179   1.180   4.249  11.937  0.7815 -1.8434 -1.3252
 9922TIP3   OH251180   1.359   4.109   0.563  0.3027  0.4775  0.1216
 9922TIP3    H151181   1.269   4.091   0.533  0.8567 -0.5810 -0.9531
 9922TIP3    H251182   1.413   4.092   0.486  1.3886  1.5519  0.6402
 9923TIP3   OH251183   2.508   0.098  16.427  0.5944  0.3365 -0.2240
 9923TIP3    H151184   2.480   0.177  16.474  1.6722  1.5681 -1.6031
 9923TIP3    H251185   2.441   0.033  16.447 -1.0298  1.9972 -0.1282
 9924TIP3   OH251186   6.540   6.502   5.396 -0.0858  0.3674  0.1209
 9924TIP3    H151187   6.627   6.464   5.384 -1.0092 -1.4459 -1.1004
 9924TIP3    H251188   6.488   6.466   5.324 -1.8167  1.5154  0.7669
 9925TIP3   OH251189   1.405   0.498   4.163 -0.2679  0.2795  0.5758
 9925TIP3    H151190   1.356   0.557   4.105 -0.4164  0.0732  0.4925
 9925TIP3    H251191   1.497   0.510   4.136  0.0028  2.4251  2.2928
 9926TIP3   OH251192   5.512   1.938  12.146  0.5308  0.2987 -0.2383
 9926TIP3    H151193   5.528   1.844  12.154 -0.5335  0.1061 -0.2978
 9926TIP3    H251194   5.421   1.944  12.118  0.9290  1.3125 -1.3356
 9927TIP3   OH251195   5.685   4.491   6.018 -0.0661  0.7287  0.4539
 9927TIP3    H151196   5.757   4.470   5.957 -1.0018  0.9635 -0.7343
 9927TIP3    H251197   5.693   4.424   6.086  0.0112 -0.5200 -0.7568
 9928TIP3   OH251198   3.117   1.986  13.054 -0.9563 -0.2958  0.3571
 9928TIP3    H151199   3.078   1.925  13.117 -0.3182  0.4572  1.5060
 9928TIP3    H251200   3.159   1.931  12.989 -1.9578 -1.0921  0.3754
 9929TIP3   OH251201   6.392   5.466   2.355 -0.3147  0.0510 -0.4011
 9929TIP3    H151202   6.440   5.441   2.276  0.6168  0.5952 -0.0061
 9929TIP3    H251203   6.338   5.389   2.375  0.5261 -0.6318 -0.7412
 9930TIP3   OH251204   1.912   5.433  12.989  0.5483  0.4970 -0.4339
 9930TIP3    H151205   1.935   5.483  13.068  0.7387  1.2164 -0.9434
 9930TIP3    H251206   1.841   5.375  13.017  2.0056 -0.7233  0.7972
 9931TIP3   OH251207   6.221   1.215  11.912 -0.0688 -0.0135 -0.5562
 9931TIP3    H151208   6.257   1.300  11.886  0.1542 -0.0728 -0.4446
 9931TIP3    H251209   6.230   1.161  11.833 -0.0686  0.0195 -0.5796
 9932TIP3   OH251210   0.711   6.688   5.572 -0.2520 -0.0687 -0.4797
 9932TIP3    H151211   0.676   6.764   5.524  2.3594  0.2188 -2.0124
 9932TIP3    H251212   0.705   6.616   5.509  1.1159 -0.1908 -0.4771
 9933TIP3   OH251213   6.742   0.097  11.678 -0.0389 -0.5906 -0.6485
 9933TIP3    H151214   6.819   0.040  11.685  0.7922  0.8385  2.9501
 9933TIP3    H251215   6.775   0.177  11.637 -0.3164 -1.1492 -1.9777
 9934TIP3   OH251216   3.594   2.797  14.663  0.2772  0.4566  0.2497
 9934TIP3    H151217   3.574   2.717  14.711 -1.8762 -0.5646 -2.2366
 9934TIP3    H251218   3.686   2.787  14.638  1.1472  0.5469  3.1348
 9935TIP3   OH251219   3.439   3.812  16.833  0.5735 -0.2362 -0.0791
 9935TIP3    H151220   3.417   3.905  16.828  0.3296 -0.3174 -0.5864
 9935TIP3    H251221   3.367   3.772  16.881  0.6389 -0.1709  0.0701
 9936TIP3   OH251222   0.322   6.522   0.009 -0.4040 -0.5465 -0.3021
 9936TIP3    H151223   0.410   6.560   0.009  0.3436 -2.2102  1.0336
 9936TIP3    H251224   0.271   6.580   0.065  0.5312 -1.0635  1.1082
 9937TIP3   OH251225   4.420   2.494  13.485  0.1570 -0.2293 -0.7721
 9937TIP3    H151226   4.407   2.447  13.567  1.4094 -1.3265 -1.1966
 9937TIP3    H251227   4.479   2.439  13.434 -0.8738  0.2621 -2.5605
 9938TIP3   OH251228   5.390   3.225  11.139 -0.2771 -0.0079 -0.0068
 9938TIP3    H151229   5.393   3.284  11.064  1.8277  0.2758  0.2533
 9938TIP3    H251230   5.433   3.145  11.108 -0.9340 -0.5190  0.3826
 9939TIP3   OH251231   1.561   3.642   1.994 -0.2406 -0.1530  0.0747
 9939TIP3    H151232   1.631   3.693   1.954  0.8844 -0.1392  1.9773
 9939TIP3    H251233   1.510   3.609   1.921  1.5667  0.1230 -1.3408
 9940TIP3   OH251234   6.454   3.344  16.987 -0.8487  0.0421 -0.2018
 9940TIP3    H151235   6.438   3.277  16.922 -0.4338 -0.4070  0.1535
 9940TIP3    H251236   6.524   3.308  17.042 -1.2413  0.3832  0.5319
 9941TIP3   OH251237   4.256   4.169   3.444 -0.1830 -0.3236 -0.2172
 9941TIP3    H151238   4.204   4.102   3.489 -1.0237 -0.7963 -1.8711
 9941TIP3    H251239   4.346   4.151   3.470 -0.6374 -0.7164  1.1205
 9942TIP3   OH251240   1.730   3.604  15.856 -0.1517 -0.0811  0.0148
 9942TIP3    H151241   1.819   3.604  15.820 -0.4863  1.7221 -0.8351
 9942TIP3    H251242   1.677   3.647  15.790 -1.3545  0.4018  1.2790
 9943TIP3   OH251243   4.281   1.010   6.122 -0.4491  0.4022 -0.6522
 9943TIP3    H151244   4.309   1.089   6.077  1.9292 -0.6994 -1.1635
 9943TIP3    H251245   4.314   1.019   6.211 -0.9605  0.3912 -0.4584
 9944TIP3   OH251246   2.838   0.516  13.647  0.2314  0.1282  0.1434
 9944TIP3    H151247   2.827   0.498  13.740  0.7869  0.5667  0.2999
 9944TIP3    H251248   2.789   0.597  13.632 -0.2932 -0.2256 -0.0560
 9945TIP3   OH251249   4.086   1.790  16.781  0.0340 -0.1207 -0.0305
 9945TIP3    H151250   4.032   1.813  16.705  1.6394 -1.0669 -1.5097
 9945TIP3    H251251   4.044   1.713  16.819 -1.3696  0.9777  0.6999
 9946TIP3   OH251252   4.350   4.908   5.566  0.9331 -0.2470 -0.1703
 9946TIP3    H151253   4.266   4.868   5.589  0.3813  0.9136 -0.1175
 9946TIP3    H251254   4.336   4.942   5.478  1.0964  0.6232  0.1386
 9947TIP3   OH251255   6.763   2.867   4.448 -0.0977  0.1835 -0.0762
 9947TIP3    H151256   6.747   2.937   4.511  0.4659  0.2426 -0.0013
 9947TIP3    H251257   6.677   2.848   4.411 -0.7313 -1.0564  1.9708
 9948TIP3   OH251258   1.327   1.741  14.067 -0.0643  0.1546  0.1209
 9948TIP3    H151259   1.287   1.812  14.016  1.8548  1.9027  0.9665
 9948TIP3    H251260   1.420   1.747  14.047  0.1531 -2.1130  0.2909
 9949TIP3   OH251261   3.764   0.239   4.871 -0.1880  0.1123  0.2862
 9949TIP3    H151262   3.793   0.229   4.961 -0.6635  0.0431  0.4310
 9949TIP3    H251263   3.801   0.323   4.843  2.6695 -1.3374 -0.4994
 9950TIP3   OH251264   3.211   5.672  14.704  0.9690 -0.5282 -0.3095
 9950TIP3    H151265   3.143   5.732  14.674  1.0782 -0.3901 -0.2800
 9950TIP3    H251266   3.227   5.615  14.629  0.2178 -1.1065 -0.0306
 9951TIP3   OH251267   6.641   2.086  14.845 -0.0407 -0.2536  0.0647
 9951TIP3    H151268   6.628   2.069  14.939 -1.1587  0.9151  0.1438
 9951TIP3    H251269   6.596   2.013  14.801  0.2325 -0.6485  0.4331
 9952TIP3   OH251270   3.217   0.897  15.487 -0.3489  0.1387  0.2315
 9952TIP3    H151271   3.150   0.877  15.422  0.4637  0.1013 -0.6182
 9952TIP3    H251272   3.183   0.861  15.569 -0.5705 -1.4794 -0.5494
 9953TIP3   OH251273   3.514   6.391  11.197 -0.3611  0.3274  0.2000
 9953TIP3    H151274   3.601   6.401  11.237 -1.4657  2.8087  2.0922
 9953TIP3    H251275   3.490   6.479  11.169 -2.3432 -0.3182 -0.2067
 9954TIP3   OH251276   1.884   0.832   4.271  0.1050  0.9184  0.1883
 9954TIP3    H151277   1.939   0.764   4.232 -1.0149 -0.5572  1.1661
 9954TIP3    H251278   1.888   0.816   4.365 -2.0853  0.7056  0.2699
 9955TIP3   OH251279   5.448   3.768  16.402 -0.0612  0.3387  0.9217
 9955TIP3    H151280   5.362   3.725  16.397  0.3413 -0.4792  0.9490
 9955TIP3    H251281   5.495   3.718  16.469  0.9472 -0.1053 -0.1138
 9956TIP3   OH251282   4.022   3.777   1.788  0.0304 -0.3182  0.1023
 9956TIP3    H151283   4.014   3.868   1.817 -0.4646 -0.3887  0.1846
 9956TIP3    H251284   3.958   3.729   1.840 -0.3017 -0.5759 -0.5376
 9957TIP3   OH251285   2.830   1.556  16.072  0.1411  0.1319 -0.7820
 9957TIP3    H151286   2.900   1.490  16.078  1.0700  1.0158 -1.8145
 9957TIP3    H251287   2.760   1.513  16.022  1.1233  0.2354 -2.2724
 9958TIP3   OH251288   1.723   4.495  16.908  0.5802 -0.1616  0.5815
 9958TIP3    H151289   1.688   4.480  16.996 -0.6680 -1.1192 -0.0660
 9958TIP3    H251290   1.767   4.413  16.886  1.5283  0.3398  0.6041
 9959TIP3   OH251291   2.288   6.751  13.895 -0.5138  0.1447 -0.2113
 9959TIP3    H151292   2.197   6.770  13.918 -0.1680  1.0218  0.4621
 9959TIP3    H251293   2.339   6.792  13.965  0.4869  1.1137 -1.4896
 9960TIP3   OH251294   4.435   1.959   6.013  0.1740 -0.5760 -0.2028
 9960TIP3    H151295   4.498   1.989   6.079 -0.5122 -0.6591  0.4969
 9960TIP3    H251296   4.388   2.038   5.987  0.0286 -0.6407 -0.1393
 9961TIP3   OH251297   2.031   3.268   3.161  0.0694 -0.4819  0.5045
 9961TIP3    H151298   2.018   3.210   3.236  1.6455 -1.6685 -0.1060
 9961TIP3    H251299   1.950   3.260   3.110 -0.6509 -0.3503  1.6140
 9962TIP3   OH251300   3.362   3.723   0.933 -0.4087 -0.1659 -0.3585
 9962TIP3    H151301   3.423   3.796   0.951 -2.2707  1.1818  0.6318
 9962TIP3    H251302   3.386   3.656   0.997  2.6500 -1.3266 -2.5597
 9963TIP3   OH251303   1.412   3.110  16.568  0.0233  0.4680 -0.2180
 9963TIP3    H151304   1.391   3.203  16.560  0.8072  0.7340  0.7021
 9963TIP3    H251305   1.508   3.106  16.566  0.0366 -0.1870  0.9785
 9964TIP3   OH251306   1.465   4.855   3.955  0.0964 -0.7513  0.2099
 9964TIP3    H151307   1.477   4.760   3.953 -0.5512 -0.8394  0.1919
 9964TIP3    H251308   1.547   4.889   3.989  2.1391 -0.9671 -4.0943
 9965TIP3   OH251309   2.063   2.363   3.328  0.0433 -0.2487 -0.3939
 9965TIP3    H151310   2.127   2.326   3.267  1.4464  1.2729  0.1216
 9965TIP3    H251311   1.988   2.387   3.272  0.8622  0.1039 -1.3667
 9966TIP3   OH251312   3.658   1.513  13.523  0.1102 -0.1450  0.5063
 9966TIP3    H151313   3.598   1.439  13.513 -0.1377 -0.3492  3.1779
 9966TIP3    H251314   3.722   1.501  13.453 -0.9443 -1.8853 -0.2033
 9967TIP3   OH251315   1.729   1.485   3.170  0.3220 -0.3542 -0.4412
 9967TIP3    H151316   1.808   1.517   3.212 -0.4116  1.6421 -0.5262
 9967TIP3    H251317   1.744   1.497   3.076  0.0093 -0.1417 -0.4682
 9968TIP3   OH251318   2.359   0.068  15.540 -0.1456 -0.6142 -0.4405
 9968TIP3    H151319   2.438   0.115  15.565  0.5478 -1.1139 -1.6461
 9968TIP3    H251320   2.374  -0.023  15.566  0.0646 -0.8902 -1.4936
 9969TIP3   OH251321   3.972   3.199   0.325 -0.3720 -1.1677  0.4488
 9969TIP3    H151322   3.894   3.251   0.346 -1.0587 -0.4813 -3.4918
 9969TIP3    H251323   3.943   3.140   0.255  2.1262 -2.4224  0.4221
 9970TIP3   OH251324   2.760   4.614  12.864 -0.0841 -0.1187 -0.0094
 9970TIP3    H151325   2.732   4.705  12.873  0.2961 -0.0640  0.6861
 9970TIP3    H251326   2.853   4.619  12.844  0.4883 -0.3828  2.3990
 9971TIP3   OH251327   6.214   5.242   4.367 -0.0660  0.6675  0.5344
 9971TIP3    H151328   6.179   5.303   4.432 -2.5727  1.2298 -1.2557
 9971TIP3    H251329   6.136   5.204   4.326  1.4221  0.8760 -2.6304
 9972TIP3   OH251330   6.378   1.866   4.996 -0.8263  0.1997 -0.0966
 9972TIP3    H151331   6.372   1.834   5.086  0.7090  2.0369  0.6900
 9972TIP3    H251332   6.291   1.851   4.959 -0.7002 -3.2314  0.7601
 9973TIP3   OH251333   0.185   2.540   1.805 -0.4153 -0.1721 -0.5744
 9973TIP3    H151334   0.115   2.497   1.854 -1.2450  1.2711 -0.4893
 9973TIP3    H251335   0.152   2.546   1.716 -1.3827  2.5752 -0.0742
 9974TIP3   OH251336   6.761   6.015   1.986 -0.2154 -0.3495 -0.3671
 9974TIP3    H151337   6.793   5.932   2.020 -1.4650 -0.7710 -0.1790
 9974TIP3    H251338   6.840   6.062   1.960  0.6973 -0.4847  2.0054
 9975TIP3   OH251339   1.489   4.604   4.826 -0.3198 -0.3041 -0.8244
 9975TIP3    H151340   1.496   4.699   4.829  2.0303 -0.4355 -1.1898
 9975TIP3    H251341   1.580   4.573   4.823 -1.0584 -2.5353 -1.2750
 9976TIP3   OH251342   4.424   3.152  13.120  0.0888 -0.0802  0.2275
 9976TIP3    H151343   4.463   3.163  13.033 -1.7086 -0.9655 -0.7084
 9976TIP3    H251344   4.353   3.215  13.122 -1.6614 -2.0096 -0.0323
 9977TIP3   OH251345   2.409   4.284  16.731 -0.1130 -0.4988 -0.1398
 9977TIP3    H151346   2.465   4.208  16.717  0.7494  0.1655 -0.3270
 9977TIP3    H251347   2.422   4.307  16.823 -0.4089 -0.6046 -0.0718
 9978TIP3   OH251348   4.051   2.920  10.701  0.7217  0.6287  0.2628
 9978TIP3    H151349   4.048   2.832  10.663 -0.8583  0.3548  0.9523
 9978TIP3    H251350   3.979   2.920  10.765  0.8086  2.3729  0.3747
 9979TIP3   OH251351   1.865   4.055  14.805 -0.3451 -0.1103  0.7807
 9979TIP3    H151352   1.778   4.020  14.785 -0.6572 -0.4545  2.6969
 9979TIP3    H251353   1.869   4.138  14.756 -1.6294 -0.2302  0.4517
 9980TIP3   OH251354   0.229   6.709   4.884  0.3841  0.1891  0.0567
 9980TIP3    H151355   0.292   6.658   4.935 -0.5553 -2.3248 -1.1889
 9980TIP3    H251356   0.147   6.699   4.932  0.0246 -0.1506 -0.6288
 9981TIP3   OH251357   6.253   4.846  12.128 -0.1743 -0.1203 -0.7182
 9981TIP3    H151358   6.304   4.774  12.090  1.1117  0.8953 -0.9781
 9981TIP3    H251359   6.164   4.830  12.099  0.1598 -1.4267 -1.0536
 9982TIP3   OH251360   0.333   0.677   2.699 -0.4384  0.2084 -0.7690
 9982TIP3    H151361   0.425   0.681   2.725 -0.3921 -0.0090 -0.8958
 9982TIP3    H251362   0.301   0.595   2.737 -0.9472  0.9623  0.4551
 9983TIP3   OH251363   6.433   2.973  15.915 -0.1391 -0.8115  0.9417
 9983TIP3    H151364   6.425   2.968  16.010 -2.1564 -1.7218  0.7524
 9983TIP3    H251365   6.375   2.904  15.883 -0.4319  0.2911 -0.9711
 9984TIP3   OH251366   4.221   4.892   0.570  0.2650 -0.3743 -0.1089
 9984TIP3    H151367   4.190   4.981   0.552  1.6685  0.1815  0.1241
 9984TIP3    H251368   4.316   4.900   0.570  0.3755 -1.4850  1.8650
 9985TIP3   OH251369   2.150   3.308   5.404 -0.1299  0.7313 -0.4145
 9985TIP3    H151370   2.102   3.388   5.383 -0.9665  0.2451 -0.3658
 9985TIP3    H251371   2.084   3.248   5.440  0.9578  0.8793  1.8585
 9986TIP3   OH251372   6.155   0.262  14.786  0.5230 -0.5303  0.1132
 9986TIP3    H151373   6.209   0.297  14.715 -0.5815  0.3198 -0.3186
 9986TIP3    H251374   6.178   0.316  14.862  0.3622 -0.2524 -0.0372
 9987TIP3   OH251375   0.826   4.419  16.484 -0.4887 -0.2328  0.2934
 9987TIP3    H151376   0.897   4.476  16.455  0.2887 -0.7537  1.1493
 9987TIP3    H251377   0.788   4.385  16.403  1.3093 -1.2588 -0.1559
 9988TIP3   OH251378   6.706   2.943  15.042 -0.5646  0.0580  0.4484
 9988TIP3    H151379   6.747   2.929  14.957 -1.5276  0.4384 -0.0890
 9988TIP3    H251380   6.778   2.944  15.105  0.5171  3.1137 -0.7439
 9989TIP3   OH251381   2.793   2.884   3.985  0.2947  0.9025  0.2168
 9989TIP3    H151382   2.830   2.806   4.027 -2.0583 -0.8069 -0.7464
 9989TIP3    H251383   2.749   2.931   4.055 -0.5769 -0.0815  0.3526
 9990TIP3   OH251384   1.084   1.381   5.989  0.8946  0.1704  0.1608
 9990TIP3    H151385   0.998   1.384   6.030  1.5029  0.4824  1.4436
 9990TIP3    H251386   1.095   1.466   5.947 -0.5177 -0.8247 -2.3370
 9991TIP3   OH251387   1.535   6.435   4.624 -0.0619  0.0788 -1.0178
 9991TIP3    H151388   1.510   6.350   4.662  0.3308  0.9954  1.3324
 9991TIP3    H251389   1.627   6.445   4.646 -0.0927  1.0933 -1.3578
 9992TIP3   OH251390   5.205   4.626   4.533  0.3078 -0.5656  0.0428
 9992TIP3    H151391   5.215   4.598   4.624  0.4174 -0.2547  0.1275
 9992TIP3    H251392   5.163   4.552   4.490 -2.8417  0.5432  1.0640
 9993TIP3   OH251393   0.434   0.113  16.691 -0.4771 -0.3779  0.2042
 9993TIP3    H151394   0.467   0.104  16.601  0.1952  0.6238  0.3398
 9993TIP3    H251395   0.461   0.032  16.734 -0.6854 -0.8078 -0.4640
 9994TIP3   OH251396   5.625   2.151   3.856 -0.1776 -0.9584  0.1380
 9994TIP3    H151397   5.548   2.105   3.820 -0.0804 -1.4502  0.5508
 9994TIP3    H251398   5.588   2.221   3.909 -0.3234  0.0649 -1.2758
 9995TIP3   OH251399   3.578   2.546   3.889  0.0110 -0.2567  0.0778
 9995TIP3    H151400   3.495   2.579   3.854 -0.2739  1.2095  1.9899
 9995TIP3    H251401   3.633   2.624   3.896 -0.5969 -0.0800  4.5316
 9996TIP3   OH251402   0.595   4.709  15.447 -0.1498  0.2862  0.2684
 9996TIP3    H151403   0.583   4.731  15.539  0.0004  0.1741  0.3150
 9996TIP3    H251404   0.617   4.792  15.405  4.2402 -0.3118  1.0929
 9997TIP3   OH251405   1.320   5.718   4.989  0.3208  0.7370 -0.2456
 9997TIP3    H151406   1.226   5.720   5.007  0.6426  2.3926  1.4927
 9997TIP3    H251407   1.336   5.632   4.950 -1.6229 -0.3184  1.1918
 9998TIP3   OH251408   2.349   2.592  12.638 -0.6211 -0.0186  0.5766
 9998TIP3    H151409   2.441   2.572  12.656 -0.0185  0.8376 -1.3777
 9998TIP3    H251410   2.334   2.676  12.681  0.2968  1.1562 -1.3546
 9999TIP3   OH251411   3.634   2.263  12.886 -0.0049 -0.4860  0.2641
 9999TIP3    H151412   3.562   2.317  12.856  1.2891 -0.2269 -2.5121
 9999TIP3    H251413   3.640   2.280  12.980 -3.1179 -0.0554  0.4099
10000TIP3   OH251414   6.303   4.004  15.759  0.4636 -0.1640  0.4963
10000TIP3    H151415   6.300   4.100  15.762  1.3647 -0.1411  1.1863
10000TIP3    H251416   6.266   3.977  15.843 -0.6089 -0.4530 -0.0631
10001TIP3   OH251417   0.506   2.148   4.910 -0.1077  0.2358 -0.0335
10001TIP3    H151418   0.562   2.099   4.850 -0.0287  0.6427 -0.2961
10001TIP3    H251419   0.467   2.082   4.966  1.4609  0.0433  0.8478
10002TIP3   OH251420   2.120   5.129  12.176 -0.0176 -0.2822 -0.2572
10002TIP3    H151421   2.119   5.042  12.136 -0.8847 -1.3150  1.9120
10002TIP3    H251422   2.033   5.164  12.161 -0.0653 -0.3078 -0.0398
10003TIP3   OH251423   0.551   3.885  14.528 -0.1542 -0.0452 -0.2882
10003TIP3    H151424   0.573   3.949  14.596  1.4649 -0.1736 -0.6799
10003TIP3    H251425   0.604   3.910  14.453 -1.8261  0.0138 -1.4870
10004TIP3   OH251426   5.693   1.429   0.022  0.3646 -0.6663  0.1508
10004TIP3    H151427   5.780   1.408   0.055  0.5695 -1.0099 -0.5764
10004TIP3    H251428   5.662   1.347  -0.017 -0.4298 -0.6429  0.7288
10005TIP3   OH251429   1.751   4.417  13.955 -0.1720 -0.2882 -0.6305
10005TIP3    H151430   1.825   4.415  13.894  1.3925 -1.2717  1.2773
10005TIP3    H251431   1.716   4.506  13.947  2.1423  0.6700 -0.4690
10006TIP3   OH251432   3.813   3.717   0.410 -0.2031  0.4781  0.5959
10006TIP3    H151433   3.739   3.778   0.400 -0.3727  0.2833  0.6464
10006TIP3    H251434   3.838   3.723   0.502 -1.5363 -1.0185  1.0918
10007TIP3   OH251435   0.997   0.767  11.612 -0.7518 -0.2968  0.1481
10007TIP3    H151436   1.044   0.821  11.675 -0.8035  2.7916 -2.2904
10007TIP3    H251437   0.935   0.716  11.664  1.8559 -0.7446  2.8948
10008TIP3   OH251438   0.655   4.172   0.830 -0.3878  0.1259  0.2411
10008TIP3    H151439   0.637   4.266   0.822  1.7939  0.5351 -0.2216
10008TIP3    H251440   0.682   4.146   0.742 -0.6605 -0.8771  0.4494
10009TIP3   OH251441   4.362   1.875  14.118 -0.2919 -0.2363  0.4370
10009TIP3    H151442   4.380   1.966  14.144  0.8693 -0.6911  1.2517
10009TIP3    H251443   4.324   1.835  14.196 -2.7133  0.0643 -0.5352
10010TIP3   OH251444   3.027   2.769   1.405  0.2306  0.2554  0.2498
10010TIP3    H151445   3.094   2.777   1.337  0.6492 -2.0153  0.3634
10010TIP3    H251446   2.963   2.836   1.383  0.0309 -0.8383 -2.7710
10011TIP3   OH251447   6.525   2.567  11.693 -0.8863  0.2111  0.2194
10011TIP3    H151448   6.433   2.565  11.717 -0.9949  0.3949 -0.1775
10011TIP3    H251449   6.566   2.620  11.762 -1.2091  0.8011 -0.0368
10012TIP3   OH251450   5.271   2.692   0.916 -0.3198  0.2590 -0.2349
10012TIP3    H151451   5.295   2.710   0.826  0.9990 -1.8578 -0.3421
10012TIP3    H251452   5.178   2.711   0.921 -0.5947 -0.4904 -2.2743
10013TIP3   OH251453   2.138   3.654   3.246  0.2773 -0.4013  0.1957
10013TIP3    H151454   2.216   3.701   3.274  0.1071  0.0806 -0.1345
10013TIP3    H251455   2.169   3.594   3.178  0.5372 -0.9439  0.7916
10014TIP3   OH251456   0.794   3.024   1.775  0.1705 -0.0079 -0.0115
10014TIP3    H151457   0.817   3.015   1.683 -2.1643 -0.2149 -0.5977
10014TIP3    H251458   0.758   3.113   1.783  0.9618  0.2543  0.8528
10015TIP3   OH251459   1.398   6.663   4.765  0.1888 -0.1680  0.4951
10015TIP3    H151460   1.316   6.688   4.724  0.8070 -0.5660 -1.0258
10015TIP3    H251461   1.433   6.593   4.709  1.2017 -0.5108  1.5225
10016TIP3   OH251462   2.723   5.806  11.605  0.3296  0.1666 -0.3418
10016TIP3    H151463   2.709   5.889  11.559  0.0850  0.2862 -0.0513
10016TIP3    H251464   2.636   5.767  11.612  0.5441 -0.4795 -1.1592
10017TIP3   OH251465   3.430   0.903   4.544 -0.3404  0.1436 -0.6536
10017TIP3    H151466   3.502   0.950   4.501 -1.3391  1.2604 -1.1306
10017TIP3    H251467   3.387   0.856   4.473 -1.6071  1.4921 -0.7985
10018TIP3   OH251468   2.640   5.835   1.614  0.4890 -0.0364  0.1907
10018TIP3    H151469   2.666   5.750   1.650 -1.2608 -0.5554  0.2680
10018TIP3    H251470   2.619   5.889   1.690  0.9922  0.2770  0.1129
10019TIP3   OH251471   5.487   6.504  12.840  0.0438 -0.3975  0.0488
10019TIP3    H151472   5.566   6.472  12.884 -1.5476 -1.8106  1.9137
10019TIP3    H251473   5.434   6.426  12.826 -1.3331  0.6442 -0.6033
10020TIP3   OH251474   0.730   6.225   2.005 -0.5439 -0.1426  0.1656
10020TIP3    H151475   0.696   6.237   1.917 -0.2481  1.5240  0.2533
10020TIP3    H251476   0.670   6.276   2.061  0.4186  0.4570  0.6669
10021TIP3   OH251477   4.866   5.748   5.406 -0.6632 -0.0037  0.2540
10021TIP3    H151478   4.889   5.686   5.475 -0.0856  0.9770  0.9562
10021TIP3    H251479   4.857   5.832   5.452  3.1743  1.3794 -1.3598
10022TIP3   OH251480   0.988   3.381  15.787  0.5569 -0.4706  0.5409
10022TIP3    H151481   0.900   3.346  15.802  0.3227 -0.0683  0.1383
10022TIP3    H251482   0.979   3.475  15.803  0.4345 -0.1205 -1.5290
10023TIP3   OH251483   5.466   2.209  11.462  0.3018 -0.2877 -0.1554
10023TIP3    H151484   5.539   2.256  11.423  1.0918 -0.1490  1.4376
10023TIP3    H251485   5.506   2.148  11.524 -0.7654 -2.3916 -1.4559
10024TIP3   OH251486   0.762   1.313   5.336  0.2684  0.0753 -0.4614
10024TIP3    H151487   0.809   1.396   5.342  1.5439 -0.6110 -0.7911
10024TIP3    H251488   0.681   1.334   5.290  0.7103  1.0780 -0.7885
10025TIP3   OH251489   5.951   0.537   3.620 -0.1054 -0.1684  0.6350
10025TIP3    H151490   5.868   0.496   3.644 -0.5628  0.0513 -0.5215
10025TIP3    H251491   5.998   0.469   3.572  0.3561 -0.2684  1.2245
10026TIP3   OH251492   3.922   1.249  16.093 -0.2001 -0.4699  0.0335
10026TIP3    H151493   3.841   1.236  16.044  0.4857 -1.5690 -0.8146
10026TIP3    H251494   3.957   1.161  16.107  0.1264 -0.1073  1.6475
10027TIP3   OH251495   0.678   5.669   0.374  0.4701  0.0059 -0.2543
10027TIP3    H151496   0.665   5.575   0.357 -2.0456 -0.0829  1.9671
10027TIP3    H251497   0.745   5.671   0.443 -0.8962 -0.2727  1.1093
10028TIP3   OH251498   2.338   4.565  11.801 -0.2834 -0.8241  0.2107
10028TIP3    H151499   2.308   4.644  11.755  0.3311 -0.5607  0.2495
10028TIP3    H251500   2.350   4.593  11.892 -1.1183 -1.2446  0.4530
10029TIP3   OH251501   3.734   5.421   5.782  0.2820  0.1618  0.6396
10029TIP3    H151502   3.794   5.495   5.778  0.1938  0.2543  0.9592
10029TIP3    H251503   3.784   5.352   5.827 -0.2844  0.6717  2.0838
10030TIP3   OH251504   1.854   0.762   5.553  0.1856  0.9411  0.5648
10030TIP3    H151505   1.820   0.841   5.512 -1.7450  0.6692  1.6216
10030TIP3    H251506   1.799   0.749   5.630 -0.4920 -2.2698 -0.4071
10031TIP3   OH251507   6.410   3.870   4.704 -0.6445 -0.4371  0.5766
10031TIP3    H151508   6.379   3.954   4.671  0.6936  0.3953  1.3967
10031TIP3    H251509   6.474   3.840   4.640  0.7304  0.3886  1.5329
10032TIP3   OH251510   1.904   6.186   4.044 -0.7037 -0.1475 -0.4979
10032TIP3    H151511   1.899   6.253   3.977 -2.9344  0.9782  0.7148
10032TIP3    H251512   1.886   6.232   4.126 -1.7083 -2.0924  0.4283
10033TIP3   OH251513   5.954   1.117  11.277  0.4336 -0.0832  0.0357
10033TIP3    H151514   5.864   1.100  11.302  0.5914 -0.7573  0.1574
10033TIP3    H251515   5.997   1.145  11.358 -0.1161  2.1382 -0.4101
10034TIP3   OH251516   0.273   5.170   0.311  0.0501 -0.2102  0.2950
10034TIP3    H151517   0.223   5.224   0.250  0.4285  1.0522  1.0954
10034TIP3    H251518   0.258   5.210   0.396 -0.1210 -1.7051  0.9853
10035TIP3   OH251519   3.426   2.821   5.553 -0.5525 -0.3560  0.1376
10035TIP3    H151520   3.467   2.840   5.638 -0.3408  1.0489 -0.2642
10035TIP3    H251521   3.364   2.750   5.572  0.4066 -0.9312  1.2057
10036TIP3   OH251522   3.607   5.202   4.846 -0.1305 -0.3639 -0.4589
10036TIP3    H151523   3.673   5.136   4.825 -1.4220 -2.1337  0.7754
10036TIP3    H251524   3.537   5.188   4.782 -0.6108 -0.5313  0.0860
10037TIP3   OH251525   3.538   6.676  13.397 -0.0423 -0.0452 -0.1044
10037TIP3    H151526   3.448   6.695  13.371 -0.7993 -0.5872  2.0120
10037TIP3    H251527   3.572   6.759  13.429  0.0561  0.0490 -0.4497
10038TIP3   OH251528   2.223   4.220   3.945  0.6528 -0.7931 -0.2762
10038TIP3    H151529   2.302   4.166   3.956  0.9083  0.1459  2.8917
10038TIP3    H251530   2.156   4.158   3.915  1.2405 -2.7257  2.2071
10039TIP3   OH251531   2.293   0.195  10.610 -0.2157  0.3284  0.0320
10039TIP3    H151532   2.313   0.102  10.618  0.4575  0.3925 -0.8024
10039TIP3    H251533   2.336   0.236  10.686 -1.0092 -0.1071  0.7245
10040TIP3   OH251534   2.923   5.228  11.924  0.1992 -0.1541 -0.2849
10040TIP3    H151535   2.869   5.258  11.850  0.2962 -0.7003 -0.5814
10040TIP3    H251536   2.893   5.280  11.998  0.4370  0.7421 -0.8159
10041TIP3   OH251537   2.251   2.589  11.478 -0.4519  0.1073 -0.2045
10041TIP3    H151538   2.177   2.645  11.453 -1.1056 -0.0543  1.3012
10041TIP3    H251539   2.231   2.504  11.438 -2.2400 -0.5660  2.0469
10042TIP3   OH251540   2.728   2.068  13.472  0.4673  0.0222 -0.2215
10042TIP3    H151541   2.804   2.097  13.522 -0.5828 -0.1121  1.4721
10042TIP3    H251542   2.682   2.149  13.450 -2.5454 -0.1461  4.6388
10043TIP3   OH251543   4.880   4.565  16.558  0.0638 -0.3639  0.0074
10043TIP3    H151544   4.968   4.532  16.578 -0.3046 -0.1556  2.0448
10043TIP3    H251545   4.896   4.637  16.497  1.1536 -1.5308 -1.1581
10044TIP3   OH251546   0.512   1.237   1.776  0.2055  0.2178  0.2852
10044TIP3    H151547   0.448   1.270   1.839  0.4631  0.0138  0.6527
10044TIP3    H251548   0.464   1.171   1.726  0.2793 -0.3343  0.9296
10045TIP3   OH251549   0.314   3.215   6.124 -0.3387 -0.5216  0.4672
10045TIP3    H151550   0.388   3.193   6.181 -0.1809 -0.3537  0.3292
10045TIP3    H251551   0.294   3.307   6.146 -0.4067 -0.5193  0.3938
10046TIP3   OH251552   1.720   5.672   3.981  0.2118  0.2573 -0.0544
10046TIP3    H151553   1.654   5.712   3.924  0.3236 -2.7636 -2.4320
10046TIP3    H251554   1.804   5.700   3.944  0.2963  1.0448  0.7108
10047TIP3   OH251555   0.575   1.076  12.280 -0.2212  0.1222 -0.1802
10047TIP3    H151556   0.562   1.155  12.227  0.0043 -1.3593 -2.5067
10047TIP3    H251557   0.669   1.058  12.274  0.4310  1.7146  3.4301
10048TIP3   OH251558   6.722   2.725   2.371 -0.3082 -0.6460  0.1706
10048TIP3    H151559   6.756   2.653   2.318 -0.7860 -0.8566  0.1471
10048TIP3    H251560   6.789   2.793   2.364 -1.6290  0.4074 -2.9933
10049TIP3   OH251561   2.169   3.239   2.561 -0.1764  0.8519 -0.3934
10049TIP3    H151562   2.075   3.237   2.546 -0.3134  1.5741  0.3243
10049TIP3    H251563   2.180   3.291   2.640  0.7142 -0.5267  0.4226
10050TIP3   OH251564   2.775   5.762  13.013  0.1906  0.0561 -0.5961
10050TIP3    H151565   2.782   5.668  13.028 -0.1204 -0.0392 -1.0394
10050TIP3    H251566   2.682   5.781  13.018 -0.1923 -0.3939 -4.6849
10051TIP3   OH251567   2.876   4.115   5.959 -0.0334  0.5812 -0.0680
10051TIP3    H151568   2.949   4.139   6.017 -1.2120  0.2934  1.5587
10051TIP3    H251569   2.877   4.019   5.958  0.1031  0.5830 -0.7143
10052TIP3   OH251570   6.004   1.291  13.260  0.6521 -0.3769  0.5812
10052TIP3    H151571   6.005   1.246  13.345 -0.0767 -0.6027  0.4748
10052TIP3    H251572   6.056   1.370  13.274 -0.0622 -0.0483  1.4476
10053TIP3   OH251573   3.536   2.690   4.275  0.3503 -0.0079  0.0910
10053TIP3    H151574   3.548   2.738   4.193 -0.0998  1.6419  0.9630
10053TIP3    H251575   3.483   2.614   4.251 -0.5704  0.9551 -0.9791
10054TIP3   OH251576   1.989   0.917   4.971 -0.5852  0.2920  0.0296
10054TIP3    H151577   2.033   0.961   4.898 -0.8043  1.1385  0.4016
10054TIP3    H251578   1.902   0.957   4.975 -1.3149 -1.1787 -0.5253
10055TIP3   OH251579   2.759   4.468  16.222 -0.3112 -0.1856  0.1064
10055TIP3    H151580   2.812   4.521  16.281 -0.1225  0.1311 -0.3414
10055TIP3    H251581   2.703   4.531  16.176  0.3230 -0.2953 -0.8472
10056TIP3   OH251582   2.191   3.618   5.871 -0.1401 -0.5771 -0.2744
10056TIP3    H151583   2.106   3.593   5.908  0.2727  0.8124  1.7390
10056TIP3    H251584   2.251   3.549   5.900  0.0403  0.1457  1.1613
10057TIP3   OH251585   0.640   4.571   6.237  0.2733 -0.0302  0.0900
10057TIP3    H151586   0.720   4.592   6.284  0.8626 -1.5523 -0.1912
10057TIP3    H251587   0.660   4.589   6.145  0.4656 -0.8706 -0.0376
10058TIP3   OH251588   3.791   4.709   0.219 -0.3398 -0.4024  0.0715
10058TIP3    H151589   3.708   4.728   0.175  0.5728 -0.9721 -1.9589
10058TIP3    H251590   3.849   4.680   0.149  1.8369  0.7992  1.3113
10059TIP3   OH251591   1.772   5.696  16.973 -0.3302  0.1572 -0.1421
10059TIP3    H151592   1.829   5.739  17.036 -0.1717 -0.2162 -0.0330
10059TIP3    H251593   1.684   5.725  16.996 -0.3406 -0.5204  0.6750
10060TIP3   OH251594   1.421   1.938  16.060  0.0817 -0.0788 -0.0562
10060TIP3    H151595   1.352   1.959  16.124 -0.4394 -0.1301 -0.6020
10060TIP3    H251596   1.415   2.008  15.995 -0.1620 -0.6717 -0.6704
10061TIP3   OH251597   5.039   2.915  15.958 -0.0380 -0.5479  0.5854
10061TIP3    H151598   4.957   2.962  15.947 -1.1648 -2.2967  1.2506
10061TIP3    H251599   5.029   2.867  16.040  1.7017 -0.6891  0.7382
10062TIP3   OH251600   5.361   5.189  10.855 -0.2550 -0.2749 -0.2302
10062TIP3    H151601   5.316   5.211  10.774  0.9163  3.8550  0.0891
10062TIP3    H251602   5.302   5.222  10.924  0.0996 -1.1026  0.4776
10063TIP3   OH251603   4.679   6.461   3.729 -0.5449  0.0960  0.0880
10063TIP3    H151604   4.634   6.485   3.810 -0.5459 -1.9761  0.7031
10063TIP3    H251605   4.639   6.378   3.703 -0.5528  0.7311 -2.0512
10064TIP3   OH251606   2.163   5.323  14.471 -0.1806  0.2669 -0.2245
10064TIP3    H151607   2.090   5.275  14.510 -0.3907  1.7175  1.2138
10064TIP3    H251608   2.146   5.321  14.377 -1.9429  0.4012  0.0834
10065TIP3   OH251609   2.174   4.918   2.284  0.7003 -0.2589 -0.0575
10065TIP3    H151610   2.103   4.863   2.317  0.4186  0.5739  0.7409
10065TIP3    H251611   2.178   4.992   2.345  1.4054  0.3525 -0.8281
10066TIP3   OH251612   2.554   1.681  11.957 -0.3072  0.2448  0.0744
10066TIP3    H151613   2.561   1.585  11.957 -0.2173  0.2503  0.3938
10066TIP3    H251614   2.510   1.702  11.874  2.0260  0.1039 -1.2397
10067TIP3   OH251615   5.804   0.776   4.458  0.0526  0.1251  0.3229
10067TIP3    H151616   5.788   0.854   4.405  0.4392 -1.1599 -1.7465
10067TIP3    H251617   5.873   0.803   4.519 -0.1101  1.5237 -0.0916
10068TIP3   OH251618   5.551   6.174   5.795 -0.0087  0.2332  0.8409
10068TIP3    H151619   5.473   6.202   5.842  1.2150  0.3741  2.8163
10068TIP3    H251620   5.567   6.084   5.825 -0.1811 -0.2974 -0.5910
10069TIP3   OH251621   3.064   3.674   5.519 -0.8089  0.0569  0.1068
10069TIP3    H151622   3.156   3.693   5.501 -0.0935 -0.4540  3.0148
10069TIP3    H251623   3.038   3.740   5.583 -2.6611  0.5125 -1.0619
10070TIP3   OH251624   2.095   2.919  11.212  0.5621  0.2684 -0.3512
10070TIP3    H151625   2.154   2.868  11.156 -0.3661 -0.5998 -0.5390
10070TIP3    H251626   2.015   2.929  11.160 -0.1250 -0.1279  0.6242
10071TIP3   OH251627   4.980   1.378   5.869 -0.1768  0.4841 -0.3068
10071TIP3    H151628   5.051   1.314   5.875  0.6255  1.0938 -2.9424
10071TIP3    H251629   5.006   1.448   5.929  0.1212 -0.5261  0.7655
10072TIP3   OH251630   1.218   1.813   3.416  0.5141  0.1123 -0.8079
10072TIP3    H151631   1.127   1.791   3.394  0.5669 -0.0198 -0.8919
10072TIP3    H251632   1.211   1.891   3.471  0.4286  0.9965 -2.0568
10073TIP3   OH251633   1.128   4.547   4.584  0.3147  0.3060  0.1245
10073TIP3    H151634   1.045   4.573   4.626 -1.4258 -0.0809 -2.9430
10073TIP3    H251635   1.174   4.497   4.651 -1.9561  0.4807  1.8805
10074TIP3   OH251636   5.486   5.986  12.766  0.5093 -0.4807  0.7240
10074TIP3    H151637   5.581   5.994  12.769  0.6129 -1.1923 -0.4917
10074TIP3    H251638   5.469   5.928  12.691 -0.7804 -2.0055  2.1673
10075TIP3   OH251639   0.393   0.102   5.031 -0.7981 -0.4839 -0.2539
10075TIP3    H151640   0.368   0.059   4.949  0.8222 -0.3037 -0.8604
10075TIP3    H251641   0.321   0.082   5.091 -1.6019 -1.3335 -1.4654
10076TIP3   OH251642   2.305   3.332   3.210  0.1663  0.3961 -0.3330
10076TIP3    H151643   2.218   3.298   3.188  0.2801 -1.6244  2.0970
10076TIP3    H251644   2.289   3.414   3.256 -0.4871 -0.1917  0.4983
10077TIP3   OH251645   4.074   6.749  11.889 -0.0152  0.1806  0.8446
10077TIP3    H151646   4.112   6.775  11.973  0.4209  1.2586  0.3126
10077TIP3    H251647   3.981   6.733  11.910 -0.1177  1.3675  1.3422
10078TIP3   OH251648   6.541   0.836  15.101  0.3659  0.2856 -0.0165
10078TIP3    H151649   6.634   0.828  15.079  0.9219  0.0797  2.2923
10078TIP3    H251650   6.525   0.930  15.104  0.9034  0.3420  1.1887
10079TIP3   OH251651   2.962   2.634   5.013 -0.4606 -0.1672  0.0897
10079TIP3    H151652   2.896   2.637   5.082 -1.1079 -0.9519 -0.4804
10079TIP3    H251653   2.939   2.708   4.956  0.1282  0.5327  0.7594
10080TIP3   OH251654   4.834   3.790  15.377 -0.2291  0.2899 -0.1237
10080TIP3    H151655   4.801   3.707  15.342  0.0174  0.5958 -1.0822
10080TIP3    H251656   4.764   3.852  15.360 -1.2959 -0.1231  2.4350
10081TIP3   OH251657   2.979   1.476  15.538 -0.1499  0.0282  0.4669
10081TIP3    H151658   3.021   1.421  15.605 -1.7263 -1.6760  0.1090
10081TIP3    H251659   2.966   1.417  15.464  0.8124  1.6834 -1.0651
10082TIP3   OH251660   2.453   3.435  13.224 -0.3272 -0.3840  0.4269
10082TIP3    H151661   2.415   3.385  13.152  2.2083 -0.2106 -1.0818
10082TIP3    H251662   2.417   3.523  13.213  0.1536 -0.3223 -0.7111
10083TIP3   OH251663   4.698   1.200   4.675  0.4899 -0.4427 -0.0352
10083TIP3    H151664   4.737   1.268   4.730 -0.3810 -0.2499  0.3588
10083TIP3    H251665   4.772   1.152   4.640  1.0790 -0.2197  0.8780
10084TIP3   OH251666   5.675   3.619  16.144 -0.6638  0.4436 -0.6688
10084TIP3    H151667   5.616   3.634  16.070 -1.8947 -1.3247 -0.0906
10084TIP3    H251668   5.620   3.574  16.209  0.7059  0.9454  0.8457
10085TIP3   OH251669   0.834   3.784  10.810  0.1967 -0.0337  0.3071
10085TIP3    H151670   0.826   3.688  10.814 -1.7384  0.0975 -0.0119
10085TIP3    H251671   0.843   3.804  10.717  1.6171  0.0372  0.4484
10086TIP3   OH251672   2.880   6.177  14.648  0.0174  0.4956 -0.4417
10086TIP3    H151673   2.973   6.188  14.667 -0.0017  0.3549 -0.2612
10086TIP3    H251674   2.876   6.100  14.591  0.0244  0.5869 -0.5641
10087TIP3   OH251675   3.707   5.203  11.466  0.0536  0.4876  0.4810
10087TIP3    H151676   3.628   5.149  11.477  1.0027 -0.8510  0.9455
10087TIP3    H251677   3.712   5.218  11.372  0.3562 -1.1996  0.1960
10088TIP3   OH251678   3.675   3.086  13.383 -0.3852 -0.4989 -0.1919
10088TIP3    H151679   3.585   3.080  13.414 -0.5593  0.2710 -0.5322
10088TIP3    H251680   3.669   3.071  13.288 -0.3962  1.4292 -0.5073
10089TIP3   OH251681   6.302   6.571   0.951  0.4175 -0.4076  0.0467
10089TIP3    H151682   6.391   6.583   0.984  0.1008 -0.7306  1.0311
10089TIP3    H251683   6.264   6.504   1.007 -1.4291  1.8614  1.6107
10090TIP3   OH251684   0.825   3.107  16.360 -0.1306 -0.6933  0.0160
10090TIP3    H151685   0.905   3.110  16.413  0.3388  0.3036 -0.7280
10090TIP3    H251686   0.841   3.037  16.297 -1.0711 -2.5219  1.7630
10091TIP3   OH251687   5.166   6.070  11.682  0.0176 -0.1705 -0.2009
10091TIP3    H151688   5.258   6.057  11.657  0.1322 -0.5773  0.4565
10091TIP3    H251689   5.116   6.028  11.611  0.2924  2.0890 -1.8053
10092TIP3   OH251690   6.058   3.744  13.759  0.0939 -0.6239  0.2544
10092TIP3    H151691   6.084   3.677  13.696  1.2269  0.5417 -0.5301
10092TIP3    H251692   6.100   3.718  13.841 -0.7223 -1.6942  0.3628
10093TIP3   OH251693   5.806   2.015  16.830  0.1721  0.4912 -0.2444
10093TIP3    H151694   5.801   2.025  16.925  0.3440  0.7150 -0.2568
10093TIP3    H251695   5.896   1.989  16.813  0.4145  1.4220 -0.4207
10094TIP3   OH251696   2.267   6.614   4.709 -0.2526  0.1808  0.1136
10094TIP3    H151697   2.177   6.640   4.690 -0.2199  0.5707  0.4903
10094TIP3    H251698   2.280   6.534   4.657 -0.6673  0.3708 -0.2912
10095TIP3   OH251699   6.784   5.087  14.454 -0.0334 -0.6304 -0.1752
10095TIP3    H151700   6.869   5.116  14.485  0.7709 -2.0971 -0.9316
10095TIP3    H251701   6.731   5.079  14.533 -0.0428  2.0568  0.1072
10096TIP3   OH251702   6.551   3.804   0.690 -0.2208 -0.2015 -0.4223
10096TIP3    H151703   6.461   3.773   0.698  0.7450 -3.2818 -0.9957
10096TIP3    H251704   6.564   3.818   0.597  0.1843 -0.7552 -0.4541
10097TIP3   OH251705   0.681   0.200  16.969  0.4874 -0.0135  0.4413
10097TIP3    H151706   0.703   0.201  16.876  0.9019  1.1609  0.5400
10097TIP3    H251707   0.689   0.291  16.996 -0.1476 -0.2671  1.5103
10098TIP3   OH251708   2.653   1.140   4.895  0.5555 -0.8093  0.3120
10098TIP3    H151709   2.569   1.110   4.932 -0.1546 -0.9180 -1.3542
10098TIP3    H251710   2.710   1.149   4.971 -1.0415 -0.4973  1.5168
10099TIP3   OH251711   4.860   1.835  12.456 -0.1259 -0.2614 -0.0870
10099TIP3    H151712   4.837   1.873  12.372 -2.0861  0.3795  0.7066
10099TIP3    H251713   4.920   1.764  12.435 -0.5791 -0.1004 -2.0078
10100TIP3   OH251714   0.316   5.897  14.803  0.1215 -0.3848  0.0975
10100TIP3    H151715   0.324   5.985  14.768 -1.1044 -0.4869 -0.4542
10100TIP3    H251716   0.372   5.897  14.881 -2.7968  2.0059  2.2927
10101TIP3   OH251717   4.200   3.094  14.720  0.2983  0.1435 -0.2489
10101TIP3    H151718   4.202   3.172  14.665  1.5007 -0.4536 -1.0831
10101TIP3    H251719   4.264   3.111  14.789 -1.8145  1.2473  1.5214
10102TIP3   OH251720   2.083   1.022   2.313 -0.5058 -0.1947 -0.1273
10102TIP3    H151721   2.056   1.036   2.223 -0.3373  2.2819  0.1976
10102TIP3    H251722   2.015   0.964   2.349 -0.1318 -1.8801 -2.0192
10103TIP3   OH251723   4.042   4.990   3.468 -0.1880  0.1302 -0.0996
10103TIP3    H151724   3.994   4.999   3.551 -0.7039  0.5785 -0.4445
10103TIP3    H251725   3.974   4.985   3.402  0.2386  3.2996 -0.8586
10104TIP3   OH251726   4.757   3.393   1.644 -0.1956 -0.1202  0.1576
10104TIP3    H151727   4.802   3.429   1.567  0.6139  1.1576  1.2134
10104TIP3    H251728   4.669   3.430   1.639 -0.7003 -1.4709 -1.1243
10105TIP3   OH251729   3.335   3.400   0.128  0.2957 -0.1900  0.0607
10105TIP3    H151730   3.260   3.419   0.071  0.6524 -0.6267 -0.5635
10105TIP3    H251731   3.296   3.367   0.209 -0.2845  1.9408  0.6897
10106TIP3   OH251732   2.651   0.871  10.817 -0.7601  0.4876 -0.1037
10106TIP3    H151733   2.629   0.964  10.821 -1.8558  0.2780 -0.9989
10106TIP3    H251734   2.708   0.863  10.741  1.1100  0.7696  1.2566
10107TIP3   OH251735   2.437   0.117   4.004  0.0008 -0.3867 -0.4807
10107TIP3    H151736   2.509   0.172   4.034  1.3125 -1.3780 -1.7572
10107TIP3    H251737   2.416   0.151   3.917 -0.0871 -1.0310 -0.7132
10108TIP3   OH251738   1.752   6.356   5.096  0.7934 -0.0802 -0.1362
10108TIP3    H151739   1.745   6.349   5.191  1.2073 -0.6223 -0.1407
10108TIP3    H251740   1.840   6.390   5.080 -0.1079  2.2553 -0.2456
10109TIP3   OH251741   2.078   1.182  14.040 -0.3454 -0.2099 -0.1533
10109TIP3    H151742   2.066   1.112  14.104  0.4084  0.2190  0.4676
10109TIP3    H251743   2.072   1.139  13.955 -2.4763 -0.6222  0.1765
10110TIP3   OH251744   1.993   3.221  11.903  0.1723  0.0042  0.3104
10110TIP3    H151745   2.069   3.191  11.854  1.3611  1.4566  1.1874
10110TIP3    H251746   1.976   3.309  11.869 -1.3236 -0.4159 -0.0859
10111TIP3   OH251747   2.121   3.768  13.002 -0.4279  0.0856 -0.1099
10111TIP3    H151748   2.154   3.841  12.949  0.8858  2.7771  4.1583
10111TIP3    H251749   2.036   3.800  13.035  0.2078 -0.2194  1.8751
10112TIP3   OH251750   5.348   2.727   0.665  0.0589 -0.1208  0.1151
10112TIP3    H151751   5.364   2.821   0.674  1.4820 -0.4449  1.2410
10112TIP3    H251752   5.295   2.719   0.586  0.5170  1.5740 -0.3868
10113TIP3   OH251753   3.608   0.739  10.243  0.0528 -0.1697  0.6752
10113TIP3    H151754   3.583   0.802  10.176 -1.5426 -0.0424  1.3607
10113TIP3    H251755   3.699   0.760  10.263  0.3282  0.2469 -0.9226
10114TIP3   OH251756   4.933   2.808   1.990 -0.6066  0.1037 -0.3813
10114TIP3    H151757   4.850   2.856   1.983 -0.5106  0.4241  0.6067
10114TIP3    H251758   4.974   2.843   2.069  1.5340  1.5848 -2.0947
10115TIP3   OH251759   3.956   0.691   1.303  0.0159  0.0501 -0.4472
10115TIP3    H151760   3.948   0.785   1.322  0.3778 -0.0192  0.0795
10115TIP3    H251761   4.006   0.657   1.377 -1.6816 -0.8843  0.2905
10116TIP3   OH251762   6.049   6.712  14.516  0.4466  0.4950  0.5386
10116TIP3    H151763   6.024   6.641  14.458 -0.6146 -0.4253  2.0663
10116TIP3    H251764   6.094   6.775  14.460 -0.8049 -0.2218 -1.3140
10117TIP3   OH251765   1.504   4.605   3.778 -0.6894  0.9746  0.3203
10117TIP3    H151766   1.411   4.625   3.791 -1.3077 -0.9450 -0.9575
10117TIP3    H251767   1.516   4.609   3.683 -0.2848 -2.1531  0.1903
10118TIP3   OH251768   4.302   5.846   1.683  0.6859 -0.3962 -0.0948
10118TIP3    H151769   4.358   5.824   1.757 -0.2429 -0.8134  0.4924
10118TIP3    H251770   4.298   5.942   1.682  1.6394 -0.3572 -0.3202
10119TIP3   OH251771   3.724   5.387   5.508  0.3998 -0.3062  0.2039
10119TIP3    H151772   3.760   5.386   5.596  0.9171 -1.6589 -0.0110
10119TIP3    H251773   3.644   5.335   5.514  1.4085 -1.9902 -0.5083
10120TIP3   OH251774   4.678   4.480  13.755  0.3854 -0.5181  0.1174
10120TIP3    H151775   4.772   4.467  13.744  0.2990  1.0185 -2.8938
10120TIP3    H251776   4.639   4.442  13.676 -1.3323  0.7959  0.3083
10121TIP3   OH251777   5.745   5.680  15.541 -0.0528  0.0260  0.7075
10121TIP3    H151778   5.825   5.729  15.563  0.7588 -0.2754 -1.4703
10121TIP3    H251779   5.694   5.741  15.487 -0.6093 -0.3374  0.8161
10122TIP3   OH251780   1.570   1.785  13.020 -0.5529 -0.2416 -0.1188
10122TIP3    H151781   1.512   1.831  12.959 -0.3011  0.3980  0.1233
10122TIP3    H251782   1.605   1.712  12.969 -1.9445 -0.9239 -0.1367
10123TIP3   OH251783   1.437   6.589  13.454  0.3015 -0.4430 -0.4305
10123TIP3    H151784   1.481   6.673  13.439 -0.3234 -0.0671 -0.1729
10123TIP3    H251785   1.344   6.611  13.463  0.5236 -0.7395  3.1629
10124TIP3   OH251786   2.799   5.057  14.212 -0.2414  0.1689 -0.4499
10124TIP3    H151787   2.790   4.970  14.251  1.1717  1.0040  1.8417
10124TIP3    H251788   2.861   5.045  14.140 -1.8323 -1.1301 -1.6578
10125TIP3   OH251789   1.231   1.461  11.830 -0.0791  0.8926 -0.3091
10125TIP3    H151790   1.309   1.515  11.825 -0.2568  1.0629 -1.1974
10125TIP3    H251791   1.262   1.377  11.863  0.4115  1.0832 -0.2838
10126TIP3   OH251792   5.083   4.854  14.913  0.1685 -0.0968 -0.9313
10126TIP3    H151793   5.105   4.801  14.837  2.3649 -0.8636  0.2115
10126TIP3    H251794   5.022   4.799  14.963 -0.2362 -0.1289 -1.4531
10127TIP3   OH251795   1.785   5.108  12.360 -0.0457  0.2791  0.2768
10127TIP3    H151796   1.871   5.149  12.367 -0.8319  2.0365  0.1092
10127TIP3    H251797   1.757   5.096  12.451  0.5308 -0.6371  0.3337
10128TIP3   OH251798   0.556   4.513   5.133  0.4420  0.0483  0.5908
10128TIP3    H151799   0.479   4.558   5.100  0.1672 -0.1740  0.9244
10128TIP3    H251800   0.524   4.426   5.159  0.3203  0.7229  2.8484
10129TIP3   OH251801   5.088   1.755  16.546 -0.0416  0.1895  0.4516
10129TIP3    H151802   5.020   1.811  16.584 -0.4313 -0.3200  0.5096
10129TIP3    H251803   5.060   1.666  16.567 -1.3904 -0.2163 -2.8181
10130TIP3   OH251804   4.818   6.518   3.234 -0.0070  0.1653 -0.2112
10130TIP3    H151805   4.894   6.536   3.179 -0.8009  0.3600 -1.2743
10130TIP3    H251806   4.743   6.548   3.182 -0.8274 -0.2091  0.7293
10131TIP3   OH251807   6.623   0.445  11.605 -0.0716 -0.4128 -0.4282
10131TIP3    H151808   6.713   0.418  11.591  0.0534  0.4385 -1.2484
10131TIP3    H251809   6.596   0.396  11.683  1.1875 -0.4366  0.0103
10132TIP3   OH251810   4.996   2.373  16.766  0.2349 -0.3351  0.0072
10132TIP3    H151811   4.926   2.416  16.716  1.5557  0.7092 -0.9722
10132TIP3    H251812   5.049   2.329  16.700  1.2354 -0.0632  0.6141
10133TIP3   OH251813   2.972   2.949  16.980  0.2262 -0.1069 -0.4394
10133TIP3    H151814   2.938   3.018  17.037  1.2444  0.1184 -0.0902
10133TIP3    H251815   2.895   2.911  16.939 -0.3075  1.4968 -0.9324
10134TIP3   OH251816   3.573   5.481   1.422 -0.0615  0.1581 -0.6385
10134TIP3    H151817   3.516   5.472   1.345 -1.0609  2.3810 -0.2127
10134TIP3    H251818   3.562   5.573   1.449 -0.9496 -0.9517  3.1007
10135TIP3   OH251819   0.024   3.823   2.560  0.1484  0.1237 -0.7301
10135TIP3    H151820   0.048   3.898   2.506  0.1561  0.7249  0.1052
10135TIP3    H251821  -0.011   3.759   2.498  1.0769  0.4203 -1.5738
10136TIP3   OH251822   5.457   6.378  15.716  0.5068  0.3064  0.3515
10136TIP3    H151823   5.443   6.451  15.776  0.6175  1.2882 -0.8170
10136TIP3    H251824   5.395   6.392  15.645  1.6759  0.1726 -0.7048
10137TIP3   OH251825   3.218   5.523   1.832 -0.1257 -0.1248 -0.7524
10137TIP3    H151826   3.174   5.504   1.915  2.8049 -0.8529  0.6865
10137TIP3    H251827   3.237   5.617   1.835  0.1409 -0.1874 -0.5394
10138TIP3   OH251828   3.269   6.530   1.266  1.1214 -0.3002  0.3430
10138TIP3    H151829   3.286   6.624   1.262  1.7495 -0.4127  0.3864
10138TIP3    H251830   3.200   6.521   1.332 -0.4381  0.3330 -1.1667
10139TIP3   OH251831   4.285   5.254   3.093  0.1319  0.4887  0.4791
10139TIP3    H151832   4.369   5.250   3.048 -1.7396 -0.3728 -3.0702
10139TIP3    H251833   4.248   5.339   3.068 -1.0592 -0.1158  0.1574
10140TIP3   OH251834   0.893   2.464  11.301 -0.9452 -0.8777  0.0575
10140TIP3    H151835   0.974   2.489  11.256  1.2583 -3.3702  2.4395
10140TIP3    H251836   0.878   2.535  11.364 -0.2685 -0.6866  0.0044
10141TIP3   OH251837   5.973   0.983   3.729  0.2714 -0.9190  0.3596
10141TIP3    H151838   5.917   0.924   3.679 -1.0329  0.0817  0.6272
10141TIP3    H251839   5.958   1.069   3.690  0.7390 -0.4496  1.2008
10142TIP3   OH251840   2.945   2.773   0.930 -0.1232  0.3052  0.1983
10142TIP3    H151841   2.899   2.726   0.861 -1.2372  1.8641 -0.1533
10142TIP3    H251842   3.030   2.795   0.893 -0.1554 -0.1681 -0.1490
10143TIP3   OH251843   3.369   2.501  10.876 -0.5313 -0.0047  0.4363
10143TIP3    H151844   3.339   2.451  10.952 -1.6107 -2.0780 -1.2913
10143TIP3    H251845   3.317   2.580  10.877 -1.5776 -0.6953  1.0483
10144TIP3   OH251846   3.341   4.651   0.950 -0.1631 -0.0004  0.2689
10144TIP3    H151847   3.373   4.673   0.863 -3.7450 -0.9381 -1.3913
10144TIP3    H251848   3.281   4.722   0.972 -0.1768 -0.3693  1.4738
10145TIP3   OH251849   5.204   4.939   5.105  0.7090 -0.0027 -0.4869
10145TIP3    H151850   5.185   5.009   5.168  1.8685 -1.3281  1.4003
10145TIP3    H251851   5.226   4.985   5.024  0.5916  1.7899  0.4727
10146TIP3   OH251852   5.829   2.290  11.985  0.1521 -0.6203 -0.1508
10146TIP3    H151853   5.876   2.345  12.047 -1.7080 -0.3801  1.0864
10146TIP3    H251854   5.818   2.206  12.030 -1.0631 -0.4988 -0.2016
10147TIP3   OH251855   3.467   5.009  15.352 -0.1271 -0.0017 -0.0557
10147TIP3    H151856   3.388   5.023  15.300 -1.3914 -1.2155  1.4922
10147TIP3    H251857   3.501   5.098  15.366 -2.3686  0.7483  0.9826
10148TIP3   OH251858   0.047   6.103   0.922 -0.5679 -0.0344  0.5479
10148TIP3    H151859  -0.017   6.038   0.951  0.2038 -1.2499 -0.4566
10148TIP3    H251860   0.088   6.135   1.002 -2.7605  1.1132  1.2520
10149TIP3   OH251861   2.976   0.292  13.346  0.6193  0.0244 -0.1729
10149TIP3    H151862   2.956   0.368  13.291  0.8499  0.6277  0.5710
10149TIP3    H251863   2.895   0.240  13.347  0.7707 -0.2502 -1.4916
10150TIP3   OH251864   4.050   6.020  12.152 -0.1738 -0.4362  0.5055
10150TIP3    H151865   4.034   5.959  12.080 -1.1063 -0.5828  0.8280
10150TIP3    H251866   4.145   6.017  12.165 -0.1026 -1.0897 -0.1142
10151TIP3   OH251867   5.533   4.381   2.559 -0.4895  0.2046  0.2439
10151TIP3    H151868   5.567   4.403   2.472 -0.3222  1.8185  0.7003
10151TIP3    H251869   5.441   4.359   2.543  0.1421 -1.9679 -0.6693
10152TIP3   OH251870   2.490   0.066  16.850 -0.0913  0.8710 -0.3895
10152TIP3    H151871   2.475   0.030  16.938 -0.2594 -0.9919 -1.1521
10152TIP3    H251872   2.585   0.067  16.840 -0.0809  0.7988 -0.2956
10153TIP3   OH251873   5.711   4.135   1.430  0.7930 -0.1893  0.6575
10153TIP3    H151874   5.688   4.224   1.458 -0.0034 -0.5103  1.0202
10153TIP3    H251875   5.805   4.128   1.448  1.0074  0.8116 -0.0022
10154TIP3   OH251876   5.035   4.351  11.785 -0.1537 -0.2410  0.3424
10154TIP3    H151877   5.069   4.263  11.769 -1.8073 -0.6568 -1.0824
10154TIP3    H251878   4.988   4.343  11.868 -0.2547 -0.6950  0.2458
10155TIP3   OH251879   3.823   0.555  15.986 -0.3090  0.5110 -0.0447
10155TIP3    H151880   3.916   0.562  15.966 -0.6986 -0.0059 -2.1664
10155TIP3    H251881   3.786   0.640  15.959 -0.7544  0.0186 -1.0021
10156TIP3   OH251882   3.781   5.887   1.809  0.5211  0.6629 -0.1657
10156TIP3    H151883   3.826   5.810   1.775  0.3560 -0.1640  1.4280
10156TIP3    H251884   3.718   5.852   1.872 -0.6086  1.9967 -0.5309
10157TIP3   OH251885   4.975   5.343  14.080  0.1880 -0.0626 -0.7439
10157TIP3    H151886   5.065   5.355  14.047  0.6927  2.4000  1.3272
10157TIP3    H251887   4.986   5.305  14.167 -0.8047 -0.1655 -0.6575
10158TIP3   OH251888   4.970   2.381  14.359  0.1634 -0.4091  0.2337
10158TIP3    H151889   4.961   2.302  14.306  1.4078  0.2247 -0.9510
10158TIP3    H251890   5.003   2.350  14.443 -0.2249 -1.2442  0.0835
10159TIP3   OH251891   1.885   4.392   2.413  0.2092 -0.1857 -0.2216
10159TIP3    H151892   1.818   4.434   2.467  0.2877  0.3634 -0.5536
10159TIP3    H251893   1.842   4.376   2.329  0.1241 -0.9329 -0.0403
10160TIP3   OH251894   5.660   5.186   3.565 -0.0208 -0.0300 -0.3713
10160TIP3    H151895   5.694   5.263   3.610  0.6551 -0.6604  0.2237
10160TIP3    H251896   5.738   5.131   3.551 -0.6333 -1.0051  0.0322
10161TIP3   OH251897   5.655   1.860  14.812 -0.6854  0.2536 -0.1119
10161TIP3    H151898   5.634   1.946  14.775 -0.3982  1.3573  2.1780
10161TIP3    H251899   5.746   1.845  14.786 -1.4248 -0.4218 -2.4245
10162TIP3   OH251900   3.353   4.288  15.359 -0.2546  0.1949 -0.7830
10162TIP3    H151901   3.270   4.311  15.319 -0.4383 -0.1502 -0.5976
10162TIP3    H251902   3.406   4.254  15.287 -0.6884 -0.7088 -0.6776
10163TIP3   OH251903   5.928   4.528  12.693  0.0682 -0.4314 -0.4380
10163TIP3    H151904   5.908   4.606  12.641  1.2821 -0.6474 -1.2505
10163TIP3    H251905   5.874   4.537  12.772 -1.7482 -0.0644 -1.6868
10164TIP3   OH251906   2.446   5.806  13.769 -0.8291  0.5864 -0.0599
10164TIP3    H151907   2.395   5.849  13.838  0.8279  0.8037  1.0420
10164TIP3    H251908   2.491   5.877  13.724  0.9193  0.1558  0.9566
10165TIP3   OH251909   5.972   0.050  14.763 -0.2719 -0.1749 -0.3235
10165TIP3    H151910   6.029   0.122  14.792 -0.1083 -0.0939 -0.8431
10165TIP3    H251911   5.982   0.049  14.668 -1.8327  0.4340 -0.5110
10166TIP3   OH251912   2.065   0.433  16.176 -0.2711 -0.0964 -0.2543
10166TIP3    H151913   2.098   0.355  16.221 -0.8757 -0.0266  0.3239
10166TIP3    H251914   2.067   0.501  16.244 -0.4259  0.2148 -0.5640
10167TIP3   OH251915   0.732   0.959   3.206  0.2152  0.3412 -0.6821
10167TIP3    H151916   0.791   1.012   3.259  2.0822 -1.7114 -0.6112
10167TIP3    H251917   0.689   0.900   3.269 -1.2320  1.1857 -0.8549
10168TIP3   OH251918   6.146   1.023   3.956  0.3076  0.8982  0.0537
10168TIP3    H151919   6.091   0.991   3.884  0.1109  0.2254  0.5039
10168TIP3    H251920   6.118   0.973   4.032  0.4040  1.7313  0.6372
10169TIP3   OH251921   1.915   0.149  16.703  0.5748  0.0621  0.6214
10169TIP3    H151922   1.963   0.087  16.757  1.2368  0.1580  0.1470
10169TIP3    H251923   1.915   0.110  16.616 -2.0769 -0.9762  1.0542
10170TIP3   OH251924   5.562   5.882  12.137  0.3306 -0.0662  0.0406
10170TIP3    H151925   5.614   5.879  12.218  0.8097  1.5145 -0.1823
10170TIP3    H251926   5.474   5.907  12.165  1.0433  2.7716 -0.1334
10171TIP3   OH251927   2.645   2.467  16.248  0.0159  0.3052 -0.4517
10171TIP3    H151928   2.667   2.558  16.272 -0.4770  0.2596  0.1948
10171TIP3    H251929   2.730   2.425  16.233  0.3326  0.4426  0.8841
10172TIP3   OH251930   4.824   4.406  14.941  0.2533  0.3554  0.4984
10172TIP3    H151931   4.886   4.475  14.966 -0.2562  1.3545 -0.9084
10172TIP3    H251932   4.789   4.435  14.857 -1.0295 -0.9347  0.5703
10173TIP3   OH251933   6.019   5.254   1.454 -0.2797  0.6710  0.5671
10173TIP3    H151934   6.104   5.296   1.452  0.7513 -1.2856  1.7137
10173TIP3    H251935   5.997   5.240   1.361  1.0790  0.3686  0.2793
10174TIP3   OH251936   4.912   3.888   6.127  0.0801  0.5178  0.0276
10174TIP3    H151937   4.882   3.943   6.200 -0.3682  0.0214  0.2130
10174TIP3    H251938   4.997   3.925   6.103  0.0304  0.9499  0.5201
10175TIP3   OH251939   4.768   4.283   1.888 -0.0018  0.6535  0.1737
10175TIP3    H151940   4.694   4.312   1.836  0.3355  1.5305  0.1778
10175TIP3    H251941   4.842   4.281   1.827 -0.2775 -1.4276 -0.1242
10176TIP3   OH251942   2.469   4.289   1.830 -0.0354 -0.7347 -0.1333
10176TIP3    H151943   2.492   4.219   1.892  0.6341 -0.4724 -0.0879
10176TIP3    H251944   2.397   4.336   1.872  0.2508 -0.7134  0.3261
10177TIP3   OH251945   3.301   0.870   2.326 -0.1872  0.3131 -0.0935
10177TIP3    H151946   3.300   0.958   2.287  2.0694  1.4489  2.2682
10177TIP3    H251947   3.302   0.811   2.251  0.5825  2.3483 -1.7346
10178TIP3   OH251948   4.042   1.349   1.934 -0.3686  0.2400 -0.7767
10178TIP3    H151949   4.051   1.408   2.009  2.8526 -0.8629 -0.2565
10178TIP3    H251950   4.106   1.281   1.949  0.2472 -0.0704 -4.4927
10179TIP3   OH251951   4.304   4.708  12.297 -0.2135  0.3005 -0.2379
10179TIP3    H151952   4.322   4.642  12.231 -0.7370 -0.1728  0.0873
10179TIP3    H251953   4.360   4.685  12.371 -0.6350  0.0312 -0.0027
10180TIP3   OH251954   0.334   4.669  15.927 -0.3250  0.5347 -0.2495
10180TIP3    H151955   0.238   4.664  15.931 -0.1951 -1.4968  0.7359
10180TIP3    H251956   0.354   4.757  15.960 -1.8861  1.4366 -1.5954
10181TIP3   OH251957   1.033   4.300  11.849  0.1431 -0.1525 -0.1828
10181TIP3    H151958   0.976   4.339  11.782 -0.0094 -1.1208 -0.6236
10181TIP3    H251959   0.980   4.299  11.928  0.9974  2.8328  0.4765
10182TIP3   OH251960   0.754   6.382   3.160  0.1448 -0.5938  0.2997
10182TIP3    H151961   0.806   6.381   3.080 -0.1831 -0.1818  0.0806
10182TIP3    H251962   0.688   6.314   3.146 -1.7886  1.5090 -1.0365
10183TIP3   OH251963   0.939   4.834  12.119 -0.2520  0.6038 -0.5054
10183TIP3    H151964   0.992   4.828  12.198  1.2991  0.0059 -1.5787
10183TIP3    H251965   0.906   4.745  12.105 -0.9762  0.8242 -0.2348
10184TIP3   OH251966   4.359   6.324   3.086 -0.0471  0.4452  0.5498
10184TIP3    H151967   4.297   6.387   3.122 -0.5457 -0.4771  1.3425
10184TIP3    H251968   4.308   6.273   3.024 -0.5808 -1.4660  2.4762
10185TIP3   OH251969   4.388   2.242   0.156  0.3781 -0.0816  0.9896
10185TIP3    H151970   4.468   2.237   0.104 -1.0853  2.4878 -1.6734
10185TIP3    H251971   4.376   2.153   0.191  0.8224 -2.3028 -4.0523
10186TIP3   OH251972   0.094   6.260  13.420 -0.3083  0.6430 -0.1172
10186TIP3    H151973   0.153   6.333  13.400 -0.4305  0.5937 -0.6713
10186TIP3    H251974   0.126   6.225  13.503  2.0215 -0.9520 -1.6247
10187TIP3   OH251975   3.613   1.759   5.234  0.1473  0.5648  0.2958
10187TIP3    H151976   3.677   1.824   5.262  1.6528 -0.7048 -0.1366
10187TIP3    H251977   3.616   1.691   5.302  1.6202 -1.0538 -1.3213
10188TIP3   OH251978   6.362   4.413  16.290  0.0325  0.4564 -0.1952
10188TIP3    H151979   6.296   4.353  16.254 -0.2963  0.0225  1.1083
10188TIP3    H251980   6.386   4.374  16.374  0.8183  1.4415  0.0372
10189TIP3   OH251981   2.803   2.577  13.591 -0.1405  0.0338 -0.2752
10189TIP3    H151982   2.830   2.645  13.653  0.0060 -0.2243 -0.0577
10189TIP3    H251983   2.728   2.534  13.633 -1.1179  0.9653 -1.0191
10190TIP3   OH251984   3.550   4.458  12.903  0.3237  0.3316  0.4584
10190TIP3    H151985   3.474   4.442  12.847 -0.6842  1.6499  1.4323
10190TIP3    H251986   3.570   4.371  12.940 -0.8375  0.0092  0.3616
10191TIP3   OH251987   4.659   0.126   4.954 -0.1346 -0.0666 -0.4959
10191TIP3    H151988   4.690   0.187   4.888 -0.6849  0.6953 -0.0467
10191TIP3    H251989   4.596   0.070   4.908 -0.9487  0.8286 -0.4833
10192TIP3   OH251990   4.983   5.541  13.544 -0.3680  0.6930  0.0796
10192TIP3    H151991   5.035   5.489  13.483 -1.3745  1.2604 -1.2853
10192TIP3    H251992   4.892   5.522  13.521 -0.7678  1.1768  1.1926
10193TIP3   OH251993   5.447   3.525  11.418 -0.3980 -0.3058 -0.1321
10193TIP3    H151994   5.459   3.507  11.511  0.6742  0.6829 -0.0705
10193TIP3    H251995   5.425   3.618  11.414  2.1704  0.3076 -1.0434
10194TIP3   OH251996   0.665   0.771  16.270  0.0922  0.0815 -0.4353
10194TIP3    H151997   0.736   0.708  16.258 -0.3350 -0.4163 -0.3807
10194TIP3    H251998   0.709   0.855  16.279  0.6269 -0.0939 -1.3537
10195TIP3   OH251999   4.161   5.841   1.224 -0.8131 -0.4551  0.1550
10195TIP3    H152000   4.114   5.923   1.238 -1.0570 -0.6452  0.4819
10195TIP3    H252001   4.094   5.780   1.192 -0.6788 -0.5820  0.1145
10196TIP3   OH252002   1.037   5.129   5.328 -0.0475  0.1322 -0.4371
10196TIP3    H152003   1.101   5.194   5.298  0.3996  0.9554  2.2030
10196TIP3    H252004   0.978   5.118   5.254  1.1949  1.8770 -1.7341
10197TIP3   OH252005   1.803   2.703   1.475 -0.2502 -0.0375  0.3990
10197TIP3    H152006   1.888   2.731   1.511 -0.7088  1.0680  0.6561
10197TIP3    H252007   1.765   2.784   1.440 -1.2272 -0.5175  0.3469
10198TIP3   OH252008   6.003   1.248   2.512 -0.1837 -0.3551 -0.4737
10198TIP3    H152009   6.011   1.163   2.556  0.1712  0.1326  0.4246
10198TIP3    H252010   6.047   1.309   2.571 -1.0263  0.5633 -0.7861
10199TIP3   OH252011   0.640   2.029  16.390 -0.5622  0.4309  0.0521
10199TIP3    H152012   0.611   2.120  16.393 -0.1652  0.5314  0.9879
10199TIP3    H252013   0.735   2.034  16.382 -0.6073  0.0963 -0.7569
10200TIP3   OH252014   5.027   6.032  12.931  0.0693 -0.4982  0.1939
10200TIP3    H152015   5.058   6.043  13.021 -1.6599 -1.2986  0.9266
10200TIP3    H252016   4.940   5.992  12.941 -0.7392  0.7173 -1.7970
10201TIP3   OH252017   0.333   4.043  12.197 -0.2380  0.3827  0.6316
10201TIP3    H152018   0.310   3.951  12.212 -0.8883  0.5777  0.8665
10201TIP3    H252019   0.253   4.081  12.161 -0.2837  1.0713  1.4450
10202TIP3   OH252020   6.428   0.331  12.019  0.1307  0.0676 -0.3939
10202TIP3    H152021   6.333   0.330  12.033 -0.3185 -1.2246 -3.2083
10202TIP3    H252022   6.454   0.239  12.031  0.7566  0.1379 -1.1955
10203TIP3   OH252023   6.645   1.671   6.381 -0.0541 -0.1025  0.2878
10203TIP3    H152024   6.551   1.659   6.372 -0.1580 -1.0909  2.3440
10203TIP3    H252025   6.669   1.618   6.458  2.0096  0.8859  0.3660
10204TIP3   OH252026   6.425   6.522   2.046  0.1681  0.0021 -0.6349
10204TIP3    H152027   6.438   6.442   2.096  0.8211 -0.0460 -0.8694
10204TIP3    H252028   6.439   6.593   2.109  2.2462 -0.0433 -1.0229
10205TIP3   OH252029   1.053   4.363   5.838 -0.0374 -0.2849 -0.2845
10205TIP3    H152030   1.116   4.435   5.840 -0.8747  0.4374  1.7772
10205TIP3    H252031   1.106   4.284   5.833  1.0217  0.3319  0.9028
10206TIP3   OH252032   5.814   3.543   3.129 -0.0443 -0.1364  0.1719
10206TIP3    H152033   5.793   3.529   3.221 -0.2580 -1.8658 -0.1166
10206TIP3    H252034   5.841   3.635   3.123  0.2178 -0.0913  1.9911
10207TIP3   OH252035   2.420   0.726  14.176  0.3074  0.2345 -0.9370
10207TIP3    H152036   2.434   0.780  14.098 -2.9298 -0.7263 -2.2581
10207TIP3    H252037   2.368   0.652  14.145  0.1396 -0.8931  1.9025
10208TIP3   OH252038   5.830   6.313  12.161  0.5034 -0.4925 -0.1837
10208TIP3    H152039   5.848   6.323  12.068  0.0870 -0.1492 -0.2283
10208TIP3    H252040   5.769   6.384  12.182 -0.7664 -1.5863 -0.0446
10209TIP3   OH252041   6.421   1.194   5.615 -0.2957  0.1801  0.6520
10209TIP3    H152042   6.362   1.186   5.691  0.4747 -0.1847  1.2161
10209TIP3    H252043   6.508   1.199   5.653  0.1230 -0.2967 -0.2387
10210TIP3   OH252044   0.999   1.815  11.990  0.0013 -0.1319  0.0431
10210TIP3    H152045   1.086   1.782  12.012  0.8583  2.0691  0.0977
10210TIP3    H252046   0.939   1.756  12.035  1.4085 -2.2444 -0.7614
10211TIP3   OH252047   2.434   4.667   5.657 -0.4040 -0.0530  0.4922
10211TIP3    H152048   2.498   4.739   5.660  0.5865 -0.9014  0.0682
10211TIP3    H252049   2.449   4.618   5.738 -1.0190  0.1671  0.7390
10212TIP3   OH252050   6.051   1.606  13.801 -0.0412  0.0840  0.0416
10212TIP3    H152051   6.142   1.576  13.807  0.0999  0.6674  0.8486
10212TIP3    H252052   6.026   1.625  13.891 -1.7697 -2.4156  0.1316
10213TIP3   OH252053   6.263   4.442   1.405 -0.6854  0.3447  0.1777
10213TIP3    H152054   6.299   4.397   1.328 -2.1611  0.9919 -0.9078
10213TIP3    H252055   6.176   4.405   1.416 -0.4389  0.1572  1.6487
10214TIP3   OH252056   3.005   6.230   4.164 -0.5353  0.1103 -0.4789
10214TIP3    H152057   2.993   6.174   4.087 -0.8309 -0.9481  0.3307
10214TIP3    H252058   3.085   6.198   4.205 -1.2751 -0.3895  0.5674
10215TIP3   OH252059   2.246   0.162   5.447 -0.9476 -0.2553 -0.6004
10215TIP3    H152060   2.280   0.224   5.511 -1.0643 -1.1550  0.3358
10215TIP3    H252061   2.268   0.201   5.362 -3.0120  2.1723 -0.0632
10216TIP3   OH252062   0.583   4.257  14.055 -0.3757 -0.1090 -0.3111
10216TIP3    H152063   0.677   4.272  14.047 -0.6627  1.0461 -1.9833
10216TIP3    H252064   0.547   4.341  14.084 -1.0960  0.0657 -1.6418
10217TIP3   OH252065   3.396   3.919   0.059  0.6858 -0.0388 -0.4770
10217TIP3    H152066   3.405   3.823   0.054 -0.0872 -0.3089  2.4394
10217TIP3    H252067   3.302   3.934   0.052  0.4601  0.2067  2.6385
10218TIP3   OH252068   3.399   5.170   4.326 -0.0694 -0.6725 -0.6402
10218TIP3    H152069   3.306   5.160   4.345 -0.8245  0.9625 -3.1916
10218TIP3    H252070   3.441   5.098   4.373 -2.4765 -0.7794  1.4520
10219TIP3   OH252071   6.259   1.732  12.943 -0.6644 -0.1509  0.2483
10219TIP3    H152072   6.172   1.760  12.917 -0.9886 -1.9187 -0.6677
10219TIP3    H252073   6.319   1.784  12.890 -1.0883  2.1728  1.9779
10220TIP3   OH252074   3.901   6.219   0.400  0.0081 -0.3578  0.2437
10220TIP3    H152075   3.900   6.137   0.351 -0.7877 -0.1965 -0.0168
10220TIP3    H252076   3.977   6.266   0.366  0.5400 -1.0340  0.4820
10221TIP3   OH252077   0.360   1.917  12.853 -0.1747 -0.0988  0.0034
10221TIP3    H152078   0.314   1.982  12.800 -0.1423 -0.4110 -0.4049
10221TIP3    H252079   0.431   1.967  12.895 -0.5787  0.2783  0.2520
10222TIP3   OH252080   0.512   2.449  16.747 -0.5129 -0.0399  0.0183
10222TIP3    H152081   0.431   2.402  16.767 -0.1743 -1.5326 -1.9436
10222TIP3    H252082   0.578   2.379  16.739  0.4821  0.9723 -0.6891
10223TIP3   OH252083   3.040   4.454   4.482 -0.2538 -0.0944  0.6193
10223TIP3    H152084   3.110   4.476   4.544  0.2144 -0.4648  0.2246
10223TIP3    H252085   3.021   4.362   4.501  0.8578 -0.6150 -0.7295
10224TIP3   OH252086   2.715   2.255  14.183  0.2865 -0.0314 -0.0956
10224TIP3    H152087   2.799   2.300  14.185  0.2718 -0.0007 -0.1519
10224TIP3    H252088   2.694   2.238  14.275  1.1102 -1.4654 -0.1606
10225TIP3   OH252089   3.139   5.043  11.880  0.2118 -0.2742 -0.6541
10225TIP3    H152090   3.094   5.127  11.882  0.3942 -0.1915  1.5009
10225TIP3    H252091   3.069   4.978  11.870 -0.3113 -0.0718  1.4640
10226TIP3   OH252092   0.279   6.068  15.190 -0.4857  0.2004  0.6484
10226TIP3    H152093   0.341   6.048  15.119  0.3461  0.8620  1.1713
10226TIP3    H252094   0.209   6.117  15.147 -0.4130 -0.1449  0.1332
10227TIP3   OH252095   1.454   5.505  15.333  0.0088  0.4316 -0.0154
10227TIP3    H152096   1.360   5.508  15.316  0.0409  2.4097  0.0073
10227TIP3    H252097   1.475   5.412  15.337 -1.3460 -0.0767 -3.2932
10228TIP3   OH252098   5.293   4.728  16.342 -0.1208  0.3030 -0.3246
10228TIP3    H152099   5.362   4.661  16.342  0.7294  1.1372  2.0301
10228TIP3    H252100   5.327   4.797  16.399 -1.6208  2.1044 -1.5763
10229TIP3   OH252101   5.895   3.064   1.805  0.0096 -0.6601  0.0506
10229TIP3    H152102   5.931   3.073   1.893 -0.1241 -1.4252  0.1861
10229TIP3    H252103   5.936   2.985   1.770  0.0534 -0.3647 -0.5678
10230TIP3   OH252104   2.281   1.229   2.963  0.1950  0.7901 -0.4727
10230TIP3    H152105   2.350   1.269   2.909  0.2192  2.2501  0.6246
10230TIP3    H252106   2.208   1.290   2.956  0.0437  0.7517  0.7860
10231TIP3   OH252107   0.369   5.546  10.617  0.1012  0.4359  0.8983
10231TIP3    H152108   0.388   5.453  10.629  0.8634  0.6823  1.6248
10231TIP3    H252109   0.453   5.584  10.591 -0.5380  0.6742 -0.8405
10232TIP3   OH252110   6.192   3.786   6.334  0.0595 -0.1635  0.0608
10232TIP3    H152111   6.244   3.865   6.352 -0.1714  0.0990 -0.4216
10232TIP3    H252112   6.129   3.813   6.267 -1.9386  0.0566  1.9305
10233TIP3   OH252113   2.338   0.132  17.142 -0.3250 -0.3826 -0.6142
10233TIP3    H152114   2.384   0.178  17.213  0.4324 -0.6053 -0.9495
10233TIP3    H252115   2.404   0.073  17.105 -0.0603  1.2679 -2.8866
10234TIP3   OH252116   6.534   3.502  13.081  0.0583 -0.1006 -0.0997
10234TIP3    H152117   6.443   3.472  13.077 -0.0877  0.5140 -1.4805
10234TIP3    H252118   6.576   3.462  13.005  0.9917 -0.5049  0.6113
10235TIP3   OH252119   6.314   3.370   0.240 -0.2473 -0.3861 -0.8807
10235TIP3    H152120   6.343   3.280   0.253 -0.7940 -0.4873 -0.3493
10235TIP3    H252121   6.280   3.372   0.150 -1.1531 -0.9586 -0.5477
10236TIP3   OH252122   2.362   3.578  16.543  0.0248 -0.3547 -0.0614
10236TIP3    H152123   2.327   3.654  16.497  2.1453  1.1299  0.7195
10236TIP3    H252124   2.443   3.557  16.497 -0.4206 -2.0247 -0.1308
10237TIP3   OH252125   5.816   3.948  12.948  0.4013  0.6648  0.5905
10237TIP3    H152126   5.884   3.882  12.966 -0.4737  0.1384  1.9973
10237TIP3    H252127   5.734   3.902  12.963 -0.3612  0.8021 -2.7634
10238TIP3   OH252128   3.129   3.307   4.166 -0.3161  0.5885 -0.0753
10238TIP3    H152129   3.205   3.247   4.166  0.2372  1.2720 -1.0548
10238TIP3    H252130   3.160   3.384   4.118 -1.5957  0.9304 -0.3589
10239TIP3   OH252131   1.757   6.578  13.503 -0.4878  0.2427  0.0204
10239TIP3    H152132   1.741   6.637  13.428 -0.6038  0.6598  0.3708
10239TIP3    H252133   1.784   6.496  13.463 -2.7728 -0.2596 -0.5792
10240TIP3   OH252134   4.036   6.090   1.268 -0.2295  0.6880 -0.0909
10240TIP3    H152135   3.941   6.101   1.271 -0.5356 -1.8763  0.1502
10240TIP3    H252136   4.069   6.154   1.331 -1.8363  0.9314  0.5308
10241TIP3   OH252137   6.267   4.546   5.151  0.2298  0.2924  0.0985
10241TIP3    H152138   6.228   4.585   5.229  0.1264  0.8680 -0.2423
10241TIP3    H252139   6.224   4.461   5.142 -0.9497  0.9299 -0.2818
10242TIP3   OH252140   2.650   4.404   3.950 -0.6120 -0.2391 -0.4432
10242TIP3    H152141   2.588   4.429   4.019  0.6279 -0.2861  0.7160
10242TIP3    H252142   2.625   4.457   3.874 -2.3704 -0.6196 -0.1529
10243TIP3   OH252143   3.546   1.722  12.175 -0.1427 -0.1640  0.2274
10243TIP3    H152144   3.499   1.805  12.172 -0.8181 -0.5934 -1.9984
10243TIP3    H252145   3.490   1.665  12.228  0.0133  0.5858  1.2255
10244TIP3   OH252146   6.530   2.750   5.655 -0.0507 -0.1299 -0.4221
10244TIP3    H152147   6.554   2.843   5.663 -1.4304  0.1674  0.3370
10244TIP3    H252148   6.465   2.736   5.723  0.0740 -1.6455 -0.6034
10245TIP3   OH252149   1.767   2.344  15.793  0.5154 -0.1574  0.4104
10245TIP3    H152150   1.687   2.292  15.783  0.0589  0.1969  2.0225
10245TIP3    H252151   1.837   2.279  15.803  0.3179 -0.4691 -0.2157
10246TIP3   OH252152   0.102   4.228  11.332 -0.5015 -0.5137 -0.1069
10246TIP3    H152153   0.138   4.199  11.249 -1.6213 -0.1734 -0.7271
10246TIP3    H252154   0.127   4.321  11.339 -3.1926  0.3935 -1.6653
10247TIP3   OH252155   5.889   6.685   0.040  0.3292  0.2393 -0.6888
10247TIP3    H152156   5.848   6.707   0.124 -1.8033 -0.5870 -1.4769
10247TIP3    H252157   5.921   6.769   0.006 -1.8847  1.1431 -0.6301
10248TIP3   OH252158   3.926   2.764   0.612  0.3240 -0.6435 -0.4745
10248TIP3    H152159   3.869   2.839   0.593  0.8333 -0.1391 -0.0386
10248TIP3    H252160   3.876   2.688   0.583  0.1609 -0.0670 -1.7262
10249TIP3   OH252161   2.894   4.626  17.002 -0.5544 -0.0777  0.0065
10249TIP3    H152162   2.900   4.665  16.915  0.5530 -0.0531  0.0831
10249TIP3    H252163   2.801   4.629  17.024 -0.9729 -0.9992 -1.5976
10250TIP3   OH252164   2.591   4.397   2.826  0.1497  1.1605 -0.4673
10250TIP3    H152165   2.498   4.403   2.808  0.2505  2.8539 -0.4515
10250TIP3    H252166   2.624   4.333   2.762 -1.0668  0.3106 -0.2492
10251TIP3   OH252167   0.872   6.267  14.130  0.1545 -0.4720 -0.2727
10251TIP3    H152168   0.901   6.176  14.119 -1.0412 -1.1056  1.5277
10251TIP3    H252169   0.780   6.260  14.158  0.3674  1.2427  0.9579
10252TIP3   OH252170   1.477   3.923   1.993  0.0171 -0.2864  0.0516
10252TIP3    H152171   1.511   3.835   2.005 -1.4452 -0.5574  2.5144
10252TIP3    H252172   1.556   3.978   1.985  0.9510 -1.5609  0.3457
10253TIP3   OH252173   0.962   1.892   6.226  0.7708 -0.4347 -0.6865
10253TIP3    H152174   0.898   1.953   6.190  0.2475 -1.5380 -1.6432
10253TIP3    H252175   1.033   1.948   6.258 -0.4084  0.7664 -0.1048
10254TIP3   OH252176   4.308   2.632  12.985 -0.7651 -0.4548 -0.3942
10254TIP3    H152177   4.283   2.719  13.017  0.1850  0.2414 -1.5265
10254TIP3    H252178   4.399   2.621  13.013 -0.1179 -0.0814 -2.3124
10255TIP3   OH252179   2.792   6.059   4.271 -0.1755  0.0764  0.3169
10255TIP3    H152180   2.751   6.114   4.337 -0.6978  0.0536  0.0101
10255TIP3    H252181   2.844   6.120   4.218 -2.3008  0.5776 -1.2327
10256TIP3   OH252182   5.449   3.805  16.070 -0.3806 -0.2631 -0.1445
10256TIP3    H152183   5.489   3.892  16.073 -0.7551 -0.1119  0.5237
10256TIP3    H252184   5.418   3.790  16.159  1.9280 -2.1349  0.3647
10257TIP3   OH252185   2.472   2.834  12.120 -0.2670  0.1263  0.7052
10257TIP3    H152186   2.566   2.824  12.129 -0.2765 -0.0384  0.6211
10257TIP3    H252187   2.438   2.825  12.209 -0.1323  0.9501  0.8431
10258TIP3   OH252188   0.596   2.595   3.678  0.0368  0.1265 -0.5451
10258TIP3    H152189   0.611   2.500   3.683  2.2038  0.4585  0.0903
10258TIP3    H252190   0.550   2.608   3.596  1.0153 -1.3490 -1.3498
10259TIP3   OH252191   2.381   2.587   5.331 -0.4058 -0.0872  0.0160
10259TIP3    H152192   2.402   2.655   5.394 -0.1955 -1.0339  0.9736
10259TIP3    H252193   2.465   2.546   5.311 -0.9152 -2.0216  1.7158
10260TIP3   OH252194   6.674   5.918   3.983 -0.0409  0.2739  0.3164
10260TIP3    H152195   6.585   5.882   3.985  0.3679 -0.7802 -0.2453
10260TIP3    H252196   6.666   5.996   3.927 -0.3667 -0.5373 -0.7977
10261TIP3   OH252197   0.106   4.771   4.961 -0.4082  0.2410 -0.8944
10261TIP3    H152198   0.065   4.807   5.040  0.2949 -0.7318 -0.0632
10261TIP3    H252199   0.103   4.842   4.897  1.4804  2.0000  0.8805
10262TIP3   OH252200   3.453   5.069  11.456  0.3711 -0.1955  0.0976
10262TIP3    H152201   3.395   5.052  11.382 -0.0087 -0.2231  0.4020
10262TIP3    H252202   3.497   4.986  11.473  0.1536 -0.2963  0.1680
10263TIP3   OH252203   1.899   4.373  12.226  0.0979  0.2474 -0.1363
10263TIP3    H152204   1.920   4.465  12.239 -0.0460  0.1109  1.1981
10263TIP3    H252205   1.857   4.346  12.308 -0.0701 -0.9431 -0.5968
10264TIP3   OH252206   3.302   5.037  16.065 -0.8136  0.6394  0.0028
10264TIP3    H152207   3.300   5.128  16.039 -1.5391  0.5412 -0.2897
10264TIP3    H252208   3.223   4.998  16.026 -0.6382 -0.0527  0.3186
10265TIP3   OH252209   5.562   1.499   3.846  0.5501 -0.0064  0.3928
10265TIP3    H152210   5.610   1.425   3.884 -0.8554 -0.3648  1.4898
10265TIP3    H252211   5.631   1.560   3.818  1.6470 -0.1266  2.7158
10266TIP3   OH252212   1.864   4.015  12.915  0.5533 -0.4044  0.3376
10266TIP3    H152213   1.837   4.068  12.840 -0.9760  0.7307  1.6668
10266TIP3    H252214   1.942   4.060  12.949  0.8073 -0.4962 -0.1222
10267TIP3   OH252215   4.193   2.242  14.358 -0.4741 -0.0612  0.0712
10267TIP3    H152216   4.222   2.275  14.443  0.2587  1.9994 -0.9342
10267TIP3    H252217   4.115   2.294  14.337 -0.9395 -0.8899 -0.3088
10268TIP3   OH252218   3.278   6.651  12.173  0.0347 -0.5323 -0.1355
10268TIP3    H152219   3.345   6.715  12.194 -0.6857 -0.5467  2.3010
10268TIP3    H252220   3.326   6.568  12.166  0.5172 -0.2459 -0.2785
10269TIP3   OH252221   6.374   3.908   3.261  0.0867 -0.5349 -0.0349
10269TIP3    H152222   6.354   3.999   3.240 -0.4612 -0.9314 -1.3180
10269TIP3    H252223   6.316   3.886   3.334  0.8211  0.3894  0.8276
10270TIP3   OH252224   6.750   2.474  11.326 -0.7315  0.1648  0.8664
10270TIP3    H152225   6.746   2.533  11.402  0.3220  0.1605  0.9325
10270TIP3    H252226   6.843   2.453  11.317 -1.0811 -1.3345  0.7129
10271TIP3   OH252227   3.772   0.556  17.043  0.1010 -0.1904 -0.2455
10271TIP3    H152228   3.824   0.523  17.117  0.2244 -0.0973 -0.2908
10271TIP3    H252229   3.786   0.491  16.974  0.6444  0.1513 -0.4576
10272TIP3   OH252230   0.055   3.580  14.966  0.2679  0.4770 -0.2885
10272TIP3    H152231   0.084   3.661  14.924  2.2496 -0.0198  0.0369
10272TIP3    H252232   0.044   3.603  15.058 -0.4196  0.6712 -0.4160
10273TIP3   OH252233   0.787   5.208  11.563  0.6881  0.7278  0.3823
10273TIP3    H152234   0.705   5.225  11.611  0.6675  2.0812 -0.1197
10273TIP3    H252235   0.759   5.189  11.474  0.6995 -2.1958  0.9512
10274TIP3   OH252236   3.014   6.414  10.223 -0.2620 -0.4031 -0.1210
10274TIP3    H152237   3.044   6.374  10.304  1.2770  1.2440  0.1606
10274TIP3    H252238   2.926   6.379  10.209 -0.8530 -0.1046  2.6515
10275TIP3   OH252239   6.447   2.371  15.277  0.3361 -0.0994 -0.2953
10275TIP3    H152240   6.481   2.358  15.189  1.4330 -3.4361  0.5383
10275TIP3    H252241   6.513   2.425  15.321  0.9077 -0.3197 -0.8785
10276TIP3   OH252242   6.752   2.561  13.019  0.4691  0.5205  0.0201
10276TIP3    H152243   6.702   2.588  12.942  0.4665  0.0780 -0.1370
10276TIP3    H252244   6.830   2.518  12.984  0.7910  0.9012  0.2659
10277TIP3   OH252245   0.695   1.763   1.830 -0.6615 -0.0651 -0.4920
10277TIP3    H152246   0.625   1.742   1.770 -0.0902  0.8244 -1.4828
10277TIP3    H252247   0.765   1.702   1.808 -0.4474  0.2696 -0.7555
10278TIP3   OH252248   3.349   4.719   4.440  0.3141 -0.1456  0.1509
10278TIP3    H152249   3.364   4.688   4.350 -2.3376 -0.3967 -0.2376
10278TIP3    H252250   3.306   4.645   4.483  3.3426 -0.7680  2.2409
10279TIP3   OH252251   1.224   4.668   3.837 -0.3176  0.5439 -0.4391
10279TIP3    H152252   1.258   4.636   3.921 -1.7372  0.2259  0.0246
10279TIP3    H252253   1.153   4.727   3.861 -1.6783 -0.6660 -1.4525
10280TIP3   OH252254   4.486   1.199   1.641 -0.3489  0.0951 -0.5287
10280TIP3    H152255   4.520   1.110   1.648 -1.4046 -0.2415  0.4702
10280TIP3    H252256   4.394   1.188   1.620 -0.6363  0.9525  0.2730
10281TIP3   OH252257   6.017   6.374  12.371  0.3135  0.2051 -0.5181
10281TIP3    H152258   6.067   6.450  12.343  0.5543  0.2825  0.1135
10281TIP3    H252259   5.945   6.368  12.308  0.6903  0.5371 -0.9813
10282TIP3   OH252260   2.449   6.657   4.167 -0.3017 -0.1203  0.0823
10282TIP3    H152261   2.541   6.667   4.189 -0.4868 -0.0228  0.8072
10282TIP3    H252262   2.435   6.715   4.092  0.1931 -0.0492  0.0477
10283TIP3   OH252263   2.603   0.499  17.238 -0.1690  0.2300  0.0157
10283TIP3    H152264   2.631   0.481  17.148 -0.3542 -1.2504  0.2539
10283TIP3    H252265   2.534   0.565  17.229  0.5330  0.8658 -0.8476
10284TIP3   OH252266   4.829   5.605   1.630  0.3735 -0.4291  0.3200
10284TIP3    H152267   4.840   5.689   1.586  1.8521 -0.4685  0.5957
10284TIP3    H252268   4.750   5.567   1.590 -1.3552  1.8531  1.4380
10285TIP3   OH252269   1.193   3.873   0.702 -0.8317  0.1362  0.1962
10285TIP3    H152270   1.177   3.864   0.608 -0.0262  1.2421 -0.0596
10285TIP3    H252271   1.162   3.960   0.724  0.9236  0.7171  0.5097
10286TIP3   OH252272   4.364   6.782  11.969  0.2952 -0.4671 -0.1604
10286TIP3    H152273   4.349   6.821  11.882 -0.9588  0.0518  0.2847
10286TIP3    H252274   4.444   6.730  11.958  0.4761  0.0694 -1.4737
10287TIP3   OH252275   2.548   5.439   0.343  0.2761  0.5550 -0.6565
10287TIP3    H152276   2.508   5.521   0.315 -1.0182 -0.3081 -1.4442
10287TIP3    H252277   2.475   5.376   0.344  0.9289 -0.2232  1.4857
10288TIP3   OH252278   6.315   2.836  11.547  0.6766  0.5791  0.0366
10288TIP3    H152279   6.263   2.916  11.538  1.9201  1.1755 -2.3120
10288TIP3    H252280   6.256   2.766  11.521  0.1125  0.9201  0.3888
10289TIP3   OH252281   3.789   1.202   1.372  0.5368  0.0882  0.7796
10289TIP3    H152282   3.789   1.276   1.433  1.0251  1.2520 -0.5953
10289TIP3    H252283   3.704   1.206   1.330  0.9090  0.4403  0.0467
10290TIP3   OH252284   2.018   2.770   2.764 -0.4436 -0.0968 -0.3994
10290TIP3    H152285   2.067   2.750   2.844  1.1743 -3.7165 -2.2094
10290TIP3    H252286   1.936   2.722   2.774  0.7059 -2.4033 -1.8797
10291TIP3   OH252287   0.589   1.893   1.225 -0.7702 -0.6670  0.1792
10291TIP3    H152288   0.638   1.968   1.257  2.3836 -1.9128 -1.4760
10291TIP3    H252289   0.546   1.857   1.302 -0.0435  1.1786  1.4597
10292TIP3   OH252290   3.408   0.809  17.151 -0.1729 -0.1972  0.1111
10292TIP3    H152291   3.369   0.897  17.147  2.5077  0.9988 -1.0183
10292TIP3    H252292   3.395   0.781  17.241 -0.9052  1.4207  0.5304
10293TIP3   OH252293   0.315   5.136  16.786  0.2305 -0.7597  0.3049
10293TIP3    H152294   0.398   5.142  16.833  1.8772  2.1402 -2.7348
10293TIP3    H252295   0.275   5.222  16.796 -1.5692 -1.5491  0.2112
10294TIP3   OH252296   0.016   6.667   5.578 -0.1052  0.4126 -0.4687
10294TIP3    H152297  -0.026   6.615   5.646 -0.2177 -0.0632 -0.8976
10294TIP3    H252298   0.104   6.683   5.611 -0.5933  1.3373  0.3884
10295TIP3   OH252299   4.488   5.120   2.833 -0.0999  0.4454 -0.3127
10295TIP3    H152300   4.414   5.070   2.867 -0.0959  0.6762  0.0425
10295TIP3    H252301   4.550   5.124   2.905  0.3531  0.0675 -0.6838
10296TIP3   OH252302   0.474   1.165   0.557  0.2503  0.6949  0.0581
10296TIP3    H152303   0.455   1.167   0.463 -4.1990 -0.8875  0.7919
10296TIP3    H252304   0.427   1.240   0.593  1.5652  1.0405  1.0999
10297TIP3   OH252305   2.138   5.537  14.026  0.1501  0.0383 -0.0345
10297TIP3    H152306   2.166   5.591  13.951 -0.2131 -0.3255 -0.4339
10297TIP3    H252307   2.155   5.592  14.102 -0.2963  0.7503 -0.4456
10298TIP3   OH252308   0.717   1.471  11.826 -0.1514 -0.0740 -0.0784
10298TIP3    H152309   0.667   1.532  11.771  1.1055  2.2686  1.3209
10298TIP3    H252310   0.806   1.474  11.790 -0.2810 -1.9298 -0.6431
10299TIP3   OH252311   2.415   2.705  15.710 -0.2837 -0.5239  0.0567
10299TIP3    H152312   2.388   2.646  15.780  2.0654 -2.6511 -0.7748
10299TIP3    H252313   2.452   2.781  15.756  1.9738 -2.2363  1.1906
10300TIP3   OH252314   3.419   0.229   4.193 -0.0529 -0.7094 -0.5365
10300TIP3    H152315   3.335   0.190   4.216  0.4198 -1.0939  0.6093
10300TIP3    H252316   3.476   0.153   4.176  0.0337 -0.4502 -1.4114
10301TIP3   OH252317   0.929   2.853   0.563  0.2340  0.2364 -0.0723
10301TIP3    H152318   0.888   2.808   0.637 -0.5530 -0.3331 -0.8403
10301TIP3    H252319   1.006   2.895   0.600  1.3322 -2.2508  0.5556
10302TIP3   OH252320   5.698   5.979  13.255 -0.0907 -0.5298  0.1003
10302TIP3    H152321   5.624   5.971  13.196 -1.2280 -1.0043  1.5728
10302TIP3    H252322   5.660   6.010  13.337  1.6878  1.9099  0.0901
10303TIP3   OH252323   3.651   4.818  11.698 -0.0849  0.3573  0.1653
10303TIP3    H152324   3.618   4.814  11.608  0.1579  0.8586  0.0538
10303TIP3    H252325   3.745   4.829  11.688 -0.0648  0.4630  0.4838
10304TIP3   OH252326   4.858   0.069  11.670  0.2053  0.1437  0.2992
10304TIP3    H152327   4.814   0.081  11.586  0.8686 -2.6112 -0.4997
10304TIP3    H252328   4.942   0.030  11.648  1.0728  0.8740  2.1598
10305TIP3   OH252329   4.939   2.295   3.882  0.7763 -0.0913  0.8240
10305TIP3    H152330   4.955   2.293   3.788  0.0465 -0.6462  0.7149
10305TIP3    H252331   4.974   2.212   3.915  2.1290  0.6145  1.2251
10306TIP3   OH252332   3.815   4.637   4.487  0.8192  0.0485 -0.2461
10306TIP3    H152333   3.782   4.711   4.537 -0.6798 -1.6953  1.4497
10306TIP3    H252334   3.751   4.624   4.417  0.0299 -0.8172  0.6181
10307TIP3   OH252335   3.477   6.728   0.595 -0.1759 -0.1072 -0.2839
10307TIP3    H152336   3.426   6.746   0.515  1.2512  0.4721 -1.0778
10307TIP3    H252337   3.528   6.650   0.573  0.0055 -0.1157  0.1765
10308TIP3   OH252338   1.886   0.005  10.890 -0.3497  0.1026  0.0168
10308TIP3    H152339   1.842  -0.075  10.919 -0.5440  0.3607  0.4456
10308TIP3    H252340   1.853   0.019  10.802  0.5096 -0.8811 -0.4651
10309TIP3   OH252341   0.104   6.257   4.073  0.3526  0.4721 -0.5992
10309TIP3    H152342   0.130   6.194   4.140 -2.1951 -0.5085 -0.4642
10309TIP3    H252343   0.086   6.338   4.122 -2.1358 -0.4232  0.0619
10310TIP3   OH252344   4.432   0.786   3.591  0.2636  0.8209 -0.2532
10310TIP3    H152345   4.478   0.786   3.507  2.9708  0.7824  1.1696
10310TIP3    H252346   4.449   0.873   3.628  1.1528  0.0219  1.2982
10311TIP3   OH252347   2.149   0.905   5.369 -0.2604 -0.0978 -0.1589
10311TIP3    H152348   2.066   0.858   5.378 -0.2547 -0.0266  0.3242
10311TIP3    H252349   2.135   0.986   5.420  0.2899 -0.3391  0.3774
10312TIP3   OH252350   2.835   6.206   1.441 -0.1050  0.1004 -0.1254
10312TIP3    H152351   2.776   6.277   1.415  1.9759  1.1255 -2.1810
10312TIP3    H252352   2.794   6.127   1.405 -0.9755  0.5973 -0.2500
10313TIP3   OH252353   6.120   0.735   3.577  0.5949 -0.1673 -0.1517
10313TIP3    H152354   6.059   0.671   3.615 -2.0760  1.4434 -1.5786
10313TIP3    H252355   6.154   0.691   3.499 -1.3432  0.1505 -1.2088
10314TIP3   OH252356   0.209   0.895   0.282 -0.7924 -0.2416  0.0252
10314TIP3    H152357   0.253   0.899   0.366  0.5393 -0.1630 -0.6576
10314TIP3    H252358   0.279   0.885   0.218 -1.6110  1.6945 -1.2496
10315TIP3   OH252359   1.908   1.471  11.910 -0.4756 -1.3551 -0.4898
10315TIP3    H152360   1.995   1.486  11.874 -0.4837 -0.7771 -0.2855
10315TIP3    H252361   1.852   1.457  11.834 -0.9238  2.0985 -0.8872
10316TIP3   OH252362   3.208   3.876  16.574  0.5367  0.1020 -0.0527
10316TIP3    H152363   3.225   3.891  16.481 -0.6772 -1.3305 -0.5289
10316TIP3    H252364   3.294   3.879  16.616  1.2374 -0.5399 -1.4192
10317TIP3   OH252365   2.003   5.603  11.432  0.4487 -0.7486  0.3734
10317TIP3    H152366   2.055   5.683  11.431 -0.2572 -0.2813 -0.0921
10317TIP3    H252367   1.993   5.582  11.525  1.4812 -0.8550  0.4579
10318TIP3   OH252368   2.783   2.033  16.383 -0.1941  0.5690  0.2780
10318TIP3    H152369   2.713   2.076  16.432 -0.0998  0.7214  0.2834
10318TIP3    H252370   2.840   2.105  16.356 -1.0633  0.6607 -1.3687
10319TIP3   OH252371   0.094   2.643  15.005  0.2676 -0.4219  0.4397
10319TIP3    H152372   0.104   2.554  14.973  0.6054 -0.4465  0.6090
10319TIP3    H252373   0.002   2.665  14.988  0.7996  0.0791 -1.8363
10320TIP3   OH252374   3.165   1.820  14.592  0.3185 -0.0922 -0.1574
10320TIP3    H152375   3.209   1.899  14.563 -0.7733  1.1328  1.4408
10320TIP3    H252376   3.097   1.804  14.527  0.7126  0.1266 -0.6239
10321TIP3   OH252377   5.761   0.987   4.770 -0.1796  0.1937 -0.1638
10321TIP3    H152378   5.790   1.073   4.800 -0.0102 -0.1442  0.6781
10321TIP3    H252379   5.704   1.004   4.695  0.7108  0.9727 -0.6587
10322TIP3   OH252380   0.168   2.027  14.246  0.5233 -0.5207  0.1168
10322TIP3    H152381   0.233   2.088  14.281 -1.7514  0.5260  2.7631
10322TIP3    H252382   0.084   2.071  14.261 -0.9617 -2.9245 -0.8979
10323TIP3   OH252383   2.246   4.857  14.300 -0.0429  0.1234  0.0922
10323TIP3    H152384   2.193   4.858  14.380  1.4067  0.7322  1.0610
10323TIP3    H252385   2.335   4.875  14.330  0.2971  1.8739 -1.8224
10324TIP3   OH252386   6.047   4.955   5.062 -0.0909  0.0431  0.8727
10324TIP3    H152387   6.114   4.998   5.115 -1.0246  1.7445  0.7173
10324TIP3    H252388   6.054   4.862   5.084  1.5392  0.3480  1.7081
10325TIP3   OH252389   0.821   0.488  12.914 -0.2200  0.4602 -0.6489
10325TIP3    H152390   0.895   0.549  12.910 -0.8409  1.3411  0.7203
10325TIP3    H252391   0.837   0.426  12.843  1.1447  1.4119 -1.1997
10326TIP3   OH252392   1.247   0.566  11.720 -0.4846 -0.1632 -0.2619
10326TIP3    H152393   1.258   0.620  11.798 -0.1025  0.1881 -0.5581
10326TIP3    H252394   1.159   0.530  11.728 -0.7144  0.4460 -0.0277
10327TIP3   OH252395   0.169   2.225   0.461 -0.1597 -0.4980  0.1982
10327TIP3    H152396   0.240   2.286   0.480 -1.9674  2.1878 -1.3268
10327TIP3    H252397   0.181   2.203   0.368 -0.5333 -1.1386  0.2975
10328TIP3   OH252398   4.762   5.553   0.121  0.0666 -0.4541  0.1701
10328TIP3    H152399   4.835   5.615   0.129  0.4498 -0.6602 -1.5480
10328TIP3    H252400   4.700   5.596   0.062  0.6882 -1.9970 -1.6492
10329TIP3   OH252401   5.575   4.190   0.402  0.0746  0.5590  0.3131
10329TIP3    H152402   5.669   4.198   0.386  0.3397 -0.5042  1.2973
10329TIP3    H252403   5.568   4.141   0.485 -1.3623 -2.6977 -1.6157
10330TIP3   OH252404   1.731   4.503   2.210 -0.3140  0.7568 -0.2133
10330TIP3    H152405   1.799   4.529   2.147 -0.0295 -1.3599 -0.8345
10330TIP3    H252406   1.649   4.511   2.160 -0.4454  2.4181  0.2481
10331TIP3   OH252407   2.117   5.665   3.641 -0.4602 -0.3971 -0.1039
10331TIP3    H152408   2.064   5.608   3.586 -1.0279 -1.9838  1.9935
10331TIP3    H252409   2.148   5.734   3.583 -1.0894 -1.9656 -2.3529
10332TIP3   OH252410   4.856   6.319  11.152 -0.0373  0.5708 -0.0680
10332TIP3    H152411   4.826   6.243  11.202  1.8939  0.4933  1.0413
10332TIP3    H252412   4.777   6.356  11.114 -1.5304  0.3241  2.6540
10333TIP3   OH252413   0.263   3.193  14.847 -0.2789  0.1920  0.5924
10333TIP3    H152414   0.243   3.236  14.931  0.2864  0.0446  0.8075
10333TIP3    H252415   0.228   3.253  14.781  0.0238  0.7316  0.9102
10334TIP3   OH252416   5.590   2.646  11.560 -0.5168 -0.7746 -0.1972
10334TIP3    H152417   5.614   2.623  11.649  1.3969  0.8442 -0.2624
10334TIP3    H252418   5.629   2.578  11.505 -1.4070 -1.5816  0.1671
10335TIP3   OH252419   0.805   0.811  15.017  0.1739  0.0487 -0.1450
10335TIP3    H152420   0.741   0.754  15.061 -0.4750  1.4377  0.7642
10335TIP3    H252421   0.783   0.806  14.924  1.1248 -2.3956 -0.2554
10336TIP3   OH252422   2.848   2.650   3.747  0.0631 -0.3034  0.5560
10336TIP3    H152423   2.772   2.709   3.741  0.8418  0.9575  2.4973
10336TIP3    H252424   2.821   2.583   3.810  0.9192  0.7716  2.1055
10337TIP3   OH252425   1.937   2.353  16.954  0.7656  0.3928 -0.0004
10337TIP3    H152426   2.027   2.384  16.950  0.4034  1.5146  0.4304
10337TIP3    H252427   1.909   2.347  16.863  2.0682 -2.3498 -0.2614
10338TIP3   OH252428   5.304   0.442  12.415 -0.0406  0.0685  0.0638
10338TIP3    H152429   5.260   0.395  12.345 -2.1813  2.0997 -0.0059
10338TIP3    H252430   5.233   0.479  12.468  1.5623  0.8120  1.7525
10339TIP3   OH252431   0.125   2.003  16.131 -0.2084 -0.2751  0.1359
10339TIP3    H152432   0.045   2.014  16.183  0.7565  1.2639  1.3729
10339TIP3    H252433   0.127   1.911  16.107 -2.1275 -0.4109  0.4667
10340TIP3   OH252434   5.036   1.946  16.737  0.0710 -0.1376 -0.0055
10340TIP3    H152435   5.077   1.876  16.788 -0.6925 -0.8453 -0.3535
10340TIP3    H252436   4.944   1.944  16.761 -0.1365  0.1075 -0.7433
10341TIP3   OH252437   0.017   1.158  13.565 -0.3283  0.2669  0.1792
10341TIP3    H152438   0.016   1.226  13.633 -1.6997 -0.2985  0.7490
10341TIP3    H252439  -0.021   1.081  13.608  1.9214 -1.1010 -0.2329
10342TIP3   OH252440   2.794   2.423   6.291 -0.0787  0.2313 -0.2285
10342TIP3    H152441   2.843   2.344   6.269  2.1764  1.4195  0.3695
10342TIP3    H252442   2.861   2.491   6.302 -1.7765  1.6562  1.7139
10343TIP3   OH252443   0.791   1.199  11.701 -0.6139  0.3395 -0.8714
10343TIP3    H152444   0.844   1.277  11.717  1.7556 -1.1896 -0.9549
10343TIP3    H252445   0.713   1.210  11.755  1.1295  1.3455  1.5114
10344TIP3   OH252446   5.424   2.481  17.023  0.6374 -0.9887  0.4292
10344TIP3    H152447   5.497   2.421  17.004  0.1703 -1.5036  0.2507
10344TIP3    H252448   5.392   2.507  16.937  2.1296  1.1246  0.4881
10345TIP3   OH252449   3.293   1.623   1.063 -0.0944  0.3637 -0.2901
10345TIP3    H152450   3.292   1.605   0.969 -0.3895  2.0234 -0.6118
10345TIP3    H252451   3.386   1.619   1.087 -0.1291 -1.4117 -0.3683
10346TIP3   OH252452   1.004   2.738   3.436  0.0974  0.4032 -0.1142
10346TIP3    H152453   0.937   2.790   3.391 -0.1231 -0.1855 -0.4697
10346TIP3    H252454   0.968   2.722   3.524  0.6176  1.7280  0.3504
10347TIP3   OH252455   3.134   2.834   3.355  0.0888  0.0432 -0.1013
10347TIP3    H152456   3.055   2.882   3.332 -0.8110 -1.4058 -0.0283
10347TIP3    H252457   3.182   2.826   3.272 -1.4498 -2.0346 -0.8130
10348TIP3   OH252458   5.660   2.000   1.035  0.4595 -0.2471 -0.0073
10348TIP3    H152459   5.610   2.034   0.961  1.6414  0.7998 -0.3319
10348TIP3    H252460   5.649   2.065   1.104 -0.1406 -0.9242  0.5427
10349TIP3   OH252461   1.505   5.369  14.137 -0.3005 -0.4437 -0.3027
10349TIP3    H152462   1.564   5.294  14.139  0.4014  0.1446  1.8373
10349TIP3    H252463   1.555   5.438  14.094  0.1226 -0.3069  0.4167
10350TIP3   OH252464   2.170   2.065   4.462 -0.3190 -0.5386 -0.0630
10350TIP3    H152465   2.172   1.980   4.416  0.3728 -1.7214  2.0780
10350TIP3    H252466   2.142   2.044   4.550  0.3024  1.4184  0.6283
10351TIP3   OH252467   1.347   2.213  17.148  0.5605 -0.0803  0.1542
10351TIP3    H152468   1.302   2.256  17.220  0.3218 -1.1091  0.6311
10351TIP3    H252469   1.366   2.125  17.181  1.1289 -0.3060 -0.7653
10352TIP3   OH252470   1.698   5.101   0.844  0.3258  0.3638  0.3731
10352TIP3    H152471   1.693   5.089   0.939 -2.0642  1.2660  0.4004
10352TIP3    H252472   1.667   5.190   0.830 -0.3906 -0.1518 -1.3514
10353TIP3   OH252473   2.442   3.904  11.414 -0.3998  0.2655  0.4398
10353TIP3    H152474   2.369   3.896  11.352  0.3727 -3.0533 -0.1684
10353TIP3    H252475   2.518   3.924  11.359 -0.0583 -0.8361  0.4877
10354TIP3   OH252476   1.245   5.130   5.666  0.2196  0.2065 -0.2487
10354TIP3    H152477   1.210   5.074   5.597  1.7574 -1.1054  0.0017
10354TIP3    H252478   1.173   5.190   5.687 -0.1629  0.8720 -3.2091
10355TIP3   OH252479   0.795   5.688  14.181  0.0077 -0.1212  0.1424
10355TIP3    H152480   0.849   5.643  14.116  0.5534 -1.6875  1.6334
10355TIP3    H252481   0.839   5.772  14.194  1.2121 -0.7311  0.1558
10356TIP3   OH252482   1.840   5.228   4.689  0.1288 -0.0765  0.1253
10356TIP3    H152483   1.808   5.201   4.775 -0.4112 -1.6156 -0.5497
10356TIP3    H252484   1.814   5.320   4.682  0.3524  0.1243  1.6743
10357TIP3   OH252485   0.677   5.571   4.314  0.1751  0.5139 -0.6864
10357TIP3    H152486   0.731   5.493   4.315 -2.1315 -1.1224  0.1176
10357TIP3    H252487   0.675   5.598   4.222 -0.0544 -1.1350 -1.1839
10358TIP3   OH252488   3.350   5.106  13.212  0.7161 -0.2826  0.2564
10358TIP3    H152489   3.267   5.124  13.167  0.1955 -0.9876  0.9388
10358TIP3    H252490   3.327   5.045  13.282  1.6463  0.2816  1.0583
10359TIP3   OH252491   0.099   5.784   0.778  0.0126  0.5163 -0.0367
10359TIP3    H152492   0.009   5.806   0.757 -0.5100 -1.2451  0.2399
10359TIP3    H252493   0.104   5.793   0.874 -1.1009 -3.4394  0.4970
10360TIP3   OH252494   1.224   3.884  14.871  0.2658 -0.0067  0.3278
10360TIP3    H152495   1.238   3.818  14.939 -1.8385 -1.0984 -0.2468
10360TIP3    H252496   1.169   3.950  14.914  2.8699  1.7471  1.0905
10361TIP3   OH252497   1.591   3.626  10.956 -0.3182 -0.0690  0.0764
10361TIP3    H152498   1.564   3.717  10.941 -0.2037 -0.0508 -0.0184
10361TIP3    H252499   1.680   3.621  10.921 -0.8395 -0.5855 -1.1909
10362TIP3   OH252500   5.738   3.880  14.276 -0.0769  0.0472 -0.4844
10362TIP3    H152501   5.731   3.915  14.364  1.2178  3.0098 -1.5002
10362TIP3    H252502   5.832   3.865  14.263 -0.2382 -0.1945 -1.4096
10363TIP3   OH252503   1.657   1.562   5.262  0.1410  0.1983  0.6487
10363TIP3    H152504   1.614   1.497   5.317 -0.2250 -0.8687 -0.8643
10363TIP3    H252505   1.738   1.520   5.234  1.1367  1.3793  1.7287
10364TIP3   OH252506   5.263   0.024   0.183  0.3583 -0.1288 -0.1943
10364TIP3    H152507   5.250   0.087   0.112  0.7976  0.4685  0.2388
10364TIP3    H252508   5.308   0.075   0.251  0.5790 -0.8792  0.2234
10365TIP3   OH252509   1.154   1.362   0.441  0.2775 -0.4030 -0.1570
10365TIP3    H152510   1.200   1.386   0.522  1.3807 -3.0130  0.0623
10365TIP3    H252511   1.061   1.364   0.465  0.5458 -0.1433  0.8927
10366TIP3   OH252512   5.590   5.091   5.343  0.2540 -0.2260  0.2599
10366TIP3    H152513   5.533   5.164   5.365  1.0395  0.3339  0.4404
10366TIP3    H252514   5.532   5.026   5.303 -0.5704  0.1780  0.7965
10367TIP3   OH252515   2.522   1.162   2.343  0.0693 -0.5079 -0.0505
10367TIP3    H152516   2.513   1.153   2.438 -1.5508  1.5227  0.0104
10367TIP3    H252517   2.575   1.241   2.332 -1.3487  0.3429 -0.8596
10368TIP3   OH252518   0.312   2.273  16.854  0.1432 -0.1200 -0.7625
10368TIP3    H152519   0.378   2.226  16.905  0.7903  1.1937 -0.3534
10368TIP3    H252520   0.232   2.266  16.906  0.7404  1.0152  0.3620
10369TIP3   OH252521   4.010   4.563  13.902  0.0154 -0.2948 -0.1002
10369TIP3    H152522   4.032   4.544  13.811 -1.8553 -1.8292 -0.2657
10369TIP3    H252523   3.995   4.477  13.942 -2.5952  0.5009  0.7464
10370TIP3   OH252524   6.744   0.302  12.455 -0.5438  0.7072  0.6600
10370TIP3    H152525   6.664   0.309  12.402 -0.6396  1.2816  0.8783
10370TIP3    H252526   6.715   0.257  12.534 -0.7589  1.3489  0.9499
10371TIP3   OH252527   0.885   2.449  15.929  0.2115 -0.0991 -0.5452
10371TIP3    H152528   0.839   2.386  15.984  0.4028  1.0008  0.9108
10371TIP3    H252529   0.821   2.519  15.914  0.5669  0.2114 -0.6359
10372TIP3   OH252530   4.515   4.117   4.718 -0.1149 -0.2025 -0.2530
10372TIP3    H152531   4.572   4.185   4.682  0.8027 -0.2006  1.1421
10372TIP3    H252532   4.456   4.164   4.777 -1.2632 -0.2696 -1.3328
10373TIP3   OH252533   0.238   0.794  11.149  0.7509 -0.0208  0.3552
10373TIP3    H152534   0.334   0.790  11.140  0.8155 -0.1562  1.0693
10373TIP3    H252535   0.208   0.707  11.123  1.1215 -1.1569  3.5228
10374TIP3   OH252536   0.858   1.326   2.765  0.1124  0.0952  0.3767
10374TIP3    H152537   0.906   1.259   2.716  0.7998  0.5920  0.3603
10374TIP3    H252538   0.783   1.347   2.711  0.7691  0.5066 -0.3819
10375TIP3   OH252539   1.550   4.484   5.626 -0.0868  0.5322 -0.8698
10375TIP3    H152540   1.548   4.536   5.706  2.1112  0.5018 -0.7780
10375TIP3    H252541   1.586   4.400   5.653 -3.5157 -1.0640 -1.0374
10376TIP3   OH252542   5.129   0.899   5.347 -0.0243 -0.1408  0.0499
10376TIP3    H152543   5.066   0.851   5.401 -0.4023 -0.5823 -0.7757
10376TIP3    H252544   5.200   0.837   5.332  0.0457 -0.0459 -0.0077
10377TIP3   OH252545   1.358   5.536   3.585 -0.3353 -0.1834  0.8208
10377TIP3    H152546   1.290   5.477   3.617 -1.4676  1.1677  0.9549
10377TIP3    H252547   1.346   5.538   3.490 -1.1068  0.7902  0.9315
10378TIP3   OH252548   1.240   4.709  17.031 -0.1836 -0.1277  0.1271
10378TIP3    H152549   1.290   4.632  17.059 -1.0404 -0.5101  0.6317
10378TIP3    H252550   1.288   4.743  16.955 -0.2458 -1.6505 -0.6119
10379TIP3   OH252551   1.039   1.633  15.343  0.1151  0.2558 -0.9951
10379TIP3    H152552   1.021   1.565  15.278 -0.5983  1.3500 -1.9819
10379TIP3    H252553   1.051   1.713  15.291  3.8773  0.3803 -0.0743
10380TIP3   OH252554   0.443   2.386   5.031  0.1440 -0.1440 -0.1738
10380TIP3    H152555   0.511   2.428   5.083  0.0404  0.5454 -0.5894
10380TIP3    H252556   0.486   2.309   4.994  0.7124  0.3157 -0.4793
10381TIP3   OH252557   3.813   1.925   1.803 -0.3125  0.5235 -0.0834
10381TIP3    H152558   3.738   1.929   1.744  0.4344  0.7643 -1.0186
10381TIP3    H252559   3.889   1.914   1.746  0.3318 -0.1502  0.8801
10382TIP3   OH252560   1.363   6.157  13.697  0.0425 -0.1837  0.2955
10382TIP3    H152561   1.435   6.179  13.638  0.8890  0.3549  1.5234
10382TIP3    H252562   1.347   6.063  13.682  2.6663 -0.9088  1.8050
10383TIP3   OH252563   3.604   2.261   5.631  0.8038  0.2762  0.2578
10383TIP3    H152564   3.699   2.267   5.640  1.0785 -3.8138  0.9235
10383TIP3    H252565   3.590   2.193   5.565 -1.5826 -2.4022  3.3051
10384TIP3   OH252566   1.326   0.678   0.829 -0.3570  0.4562 -0.1558
10384TIP3    H152567   1.281   0.758   0.857 -0.1614 -0.2875  2.3713
10384TIP3    H252568   1.261   0.609   0.836 -0.0210  0.0860 -0.6186
10385TIP3   OH252569   1.340   2.599  12.689  0.2104  0.7222 -0.6550
10385TIP3    H152570   1.275   2.575  12.622  0.7680 -1.0820 -0.5729
10385TIP3    H252571   1.419   2.551  12.663  0.6917  0.7276  0.8034
10386TIP3   OH252572   3.917   4.322  16.278  0.2110  0.0628 -0.0590
10386TIP3    H152573   3.920   4.229  16.301 -1.2841 -0.5351 -2.0610
10386TIP3    H252574   4.008   4.350  16.277  0.8764 -2.0225 -1.7918
10387TIP3   OH252575   5.856   2.552   0.445  1.2583 -0.1289  0.0575
10387TIP3    H152576   5.849   2.464   0.407 -3.1428 -0.0137  0.2774
10387TIP3    H252577   5.848   2.538   0.539  0.3963  0.4851  0.0800
10388TIP3   OH252578   6.539   1.255  11.014  0.0167 -0.0098 -0.2445
10388TIP3    H152579   6.567   1.302  10.935  0.7523 -0.3445 -0.1830
10388TIP3    H252580   6.467   1.199  10.984  0.8071 -0.7244 -0.8486
10389TIP3   OH252581   1.975   5.333  13.827 -0.1417 -0.1785 -0.1690
10389TIP3    H152582   2.011   5.299  13.909 -0.5855 -0.7454 -0.2046
10389TIP3    H252583   1.885   5.359  13.850 -0.3411 -0.5494 -0.5349
10390TIP3   OH252584   6.082   3.032  15.826 -0.0518  0.2139  0.3111
10390TIP3    H152585   6.020   3.105  15.829  1.2620  1.2730  2.0719
10390TIP3    H252586   6.157   3.061  15.878  2.1916 -0.8491 -2.2177
10391TIP3   OH252587   5.801   2.841  11.036 -0.4114  0.0472  0.3705
10391TIP3    H152588   5.844   2.758  11.016 -0.4000 -0.3130  1.8470
10391TIP3    H252589   5.869   2.895  11.076 -0.5386  0.6093 -0.1596
10392TIP3   OH252590   2.452   2.080   4.366  0.0365  0.0657 -0.2745
10392TIP3    H152591   2.461   2.008   4.428 -0.8899  0.9967  0.9685
10392TIP3    H252592   2.361   2.109   4.375  0.7334  2.2456  0.2437
10393TIP3   OH252593   4.301   3.764  11.859 -0.4039  0.3951 -0.2907
10393TIP3    H152594   4.245   3.709  11.913 -0.1752 -0.4056 -0.8643
10393TIP3    H252595   4.321   3.839  11.914  0.2283 -0.6469  0.9328
10394TIP3   OH252596   4.370   0.167  13.190  0.4116  0.0024 -0.4521
10394TIP3    H152597   4.411   0.119  13.262  1.2636 -1.4423 -1.8701
10394TIP3    H252598   4.400   0.257  13.200  0.0150 -0.0602  1.3583
10395TIP3   OH252599   1.176   6.609  12.441 -0.4381 -0.3729 -0.3813
10395TIP3    H152600   1.254   6.601  12.496  0.0893 -1.1512 -1.2322
10395TIP3    H252601   1.160   6.704  12.435 -0.0016 -0.2467  0.4088
10396TIP3   OH252602   3.886   2.047   5.874  0.0789 -0.3661  0.4391
10396TIP3    H152603   3.833   2.060   5.795 -0.7262 -1.4915  0.7966
10396TIP3    H252604   3.869   1.957   5.900  3.5732 -1.3734 -0.4807
10397TIP3   OH252605   1.019   0.982  15.764 -0.2879  0.1004 -0.0780
10397TIP3    H152606   1.070   0.957  15.841 -1.2222 -0.4163  0.3832
10397TIP3    H252607   0.992   1.072  15.782 -0.4929 -0.0151  0.2021
10398TIP3   OH252608   1.580   4.601  13.308 -0.1402  0.1290 -0.1382
10398TIP3    H152609   1.498   4.638  13.274 -0.2372 -0.8718 -1.0208
10398TIP3    H252610   1.633   4.586  13.231  0.8331  0.6358  0.4260
10399TIP3   OH252611   3.277   5.271   6.509  0.2007  0.1587 -0.0487
10399TIP3    H152612   3.218   5.345   6.521 -0.9186 -0.4998 -1.3381
10399TIP3    H252613   3.232   5.215   6.446  1.7939 -0.7980 -0.3530
10400TIP3   OH252614   2.965   4.657  16.743 -0.0554 -0.1490 -0.1482
10400TIP3    H152615   3.002   4.579  16.785  0.6821 -0.5055 -1.4189
10400TIP3    H252616   3.014   4.665  16.661 -0.1769  1.6195 -0.0613
10401TIP3   OH252617   2.647   0.940   2.230 -0.1229  0.0642  0.0511
10401TIP3    H152618   2.569   0.888   2.208  1.0609 -0.2268 -3.8349
10401TIP3    H252619   2.614   1.028   2.245 -1.0731  0.4799 -3.8823
10402TIP3   OH252620   5.747   6.610  11.672  0.2419 -0.0730 -0.5884
10402TIP3    H152621   5.725   6.543  11.607  0.2383  0.8876 -1.5912
10402TIP3    H252622   5.801   6.673  11.624 -0.8560  1.3269  0.0036
10403TIP3   OH252623   0.359   3.123  11.605 -0.3876 -0.4298 -0.3406
10403TIP3    H152624   0.273   3.103  11.643  0.6826 -1.2533  1.7550
10403TIP3    H252625   0.372   3.216  11.621 -0.0509 -0.7232  1.1262
10404TIP3   OH252626   4.020   2.220   4.866  0.4865 -0.4162 -0.8388
10404TIP3    H152627   3.937   2.193   4.826  0.4777  1.1412 -1.9161
10404TIP3    H252628   4.086   2.165   4.824  0.1869 -0.4968 -1.2060
10405TIP3   OH252629   4.317   0.005  12.757 -0.1515 -0.3916 -0.0867
10405TIP3    H152630   4.369   0.043  12.828 -0.4074  0.1442 -0.1777
10405TIP3    H252631   4.270   0.080  12.720  0.6290 -0.5302 -1.3792
10406TIP3   OH252632   5.326   1.181   1.731  0.0744  0.4592 -0.4841
10406TIP3    H152633   5.324   1.244   1.659 -1.1206  0.1839 -0.6919
10406TIP3    H252634   5.234   1.167   1.754  0.3420 -1.0366 -0.2759
10407TIP3   OH252635   3.813   1.051   0.652 -0.0924 -0.3119  0.2409
10407TIP3    H152636   3.885   0.994   0.680  0.9299  0.3398 -0.9691
10407TIP3    H252637   3.800   1.111   0.726  0.2998 -0.7269  0.6532
10408TIP3   OH252638   4.477   4.447   1.979  0.5756  0.3840  0.0234
10408TIP3    H152639   4.431   4.487   2.053  2.8002  0.3023  1.4769
10408TIP3    H252640   4.485   4.354   2.003  0.0564  0.0657 -0.9796
10409TIP3   OH252641   1.661   2.722   4.824 -0.1384 -0.3918 -0.2103
10409TIP3    H152642   1.737   2.781   4.825 -2.0529  2.1454  0.1078
10409TIP3    H252643   1.648   2.698   4.916  0.1729 -0.7140 -0.2483
10410TIP3   OH252644   5.463   6.147   2.682 -0.1497 -0.2008  0.5443
10410TIP3    H152645   5.383   6.110   2.719 -0.5087  2.1368  2.2183
10410TIP3    H252646   5.447   6.241   2.677  1.8187  0.1088 -0.8372
10411TIP3   OH252647   4.130   5.753  12.718 -0.1513  0.3490  0.0508
10411TIP3    H152648   4.104   5.843  12.738  0.6406  0.3719  1.0118
10411TIP3    H252649   4.115   5.706  12.800  0.0242 -0.2596 -0.2706
10412TIP3   OH252650   2.537   4.355   1.302 -0.1343 -0.5521  0.2724
10412TIP3    H152651   2.561   4.419   1.235 -1.7893  0.6746  0.8122
10412TIP3    H252652   2.550   4.402   1.385 -1.4779 -0.8598  0.6634
10413TIP3   OH252653   2.071   6.056  11.042 -0.1484 -0.0700 -0.5335
10413TIP3    H152654   1.984   6.023  11.064  0.8140 -2.0475  0.3354
10413TIP3    H252655   2.089   6.021  10.955  0.6704 -1.4452  0.1841
10414TIP3   OH252656   3.080   4.780  11.271  0.1588  0.0712  0.6775
10414TIP3    H152657   3.061   4.758  11.179  1.5257  0.5361  0.2718
10414TIP3    H252658   3.122   4.702  11.306 -0.7761 -0.2757  1.0536
10415TIP3   OH252659   5.292   4.332  12.905  0.5690  0.3418  0.1389
10415TIP3    H152660   5.380   4.321  12.943  0.6108 -1.0444 -0.3086
10415TIP3    H252661   5.233   4.319  12.979  0.6973 -0.6445  0.0760
10416TIP3   OH252662   3.897   2.322   2.324  0.5756 -0.4928 -0.3420
10416TIP3    H152663   3.818   2.313   2.271 -0.9616  1.0309  1.6113
10416TIP3    H252664   3.906   2.237   2.367  0.0642 -0.7123 -0.6635
10417TIP3   OH252665   0.171   5.062  12.778  0.0323  0.3561  0.5465
10417TIP3    H152666   0.165   5.037  12.686  0.9100  1.7880  0.0892
10417TIP3    H252667   0.201   4.983  12.822  3.0555  0.6185 -0.9162
10418TIP3   OH252668   4.985   1.742   3.373  0.3532  0.1426 -0.2816
10418TIP3    H152669   5.056   1.804   3.362  0.0423  0.4129 -0.7629
10418TIP3    H252670   4.936   1.746   3.291 -0.1410 -0.1361 -0.0041
10419TIP3   OH252671   0.196   4.037  11.119 -0.0708  0.9803 -0.6137
10419TIP3    H152672   0.187   4.124  11.081  2.3795  1.5981  0.0754
10419TIP3    H252673   0.291   4.024  11.125 -0.3181 -2.6480 -2.7308
10420TIP3   OH252674   5.343   0.976  12.356  0.8227 -0.1888  0.1767
10420TIP3    H152675   5.316   1.066  12.338 -1.4954 -1.2710 -2.0343
10420TIP3    H252676   5.434   0.971  12.328  0.5838  1.1429 -0.8473
10421TIP3   OH252677   2.090   2.262   2.617 -0.5426  0.0594 -0.3260
10421TIP3    H152678   2.045   2.222   2.543  0.5224  1.5636 -1.8326
10421TIP3    H252679   2.181   2.232   2.610 -0.7249 -0.8818  1.1782
10422TIP3   OH252680   4.244   1.057   4.417  0.1078  0.3774 -0.8431
10422TIP3    H152681   4.305   1.103   4.474 -1.9933  2.5820 -0.3209
10422TIP3    H252682   4.292   1.046   4.334  1.7355  0.6848  0.0477
10423TIP3   OH252683   1.333   4.867   5.260  0.7761 -0.3096  0.1222
10423TIP3    H152684   1.392   4.792   5.247 -0.4258 -1.1952 -0.2922
10423TIP3    H252685   1.390   4.944   5.249  2.0669 -1.1525  0.7840
10424TIP3   OH252686   0.745   1.521   0.459  0.1335  0.1336  0.3940
10424TIP3    H152687   0.730   1.558   0.545  0.5354  2.0505 -0.3261
10424TIP3    H252688   0.814   1.576   0.421  1.3848 -1.8918 -0.4010
10425TIP3   OH252689   0.827   1.108  15.496  0.1835  0.2329 -0.2604
10425TIP3    H152690   0.843   1.038  15.432  0.0152 -1.0157  1.0188
10425TIP3    H252691   0.756   1.074  15.551  0.3366  1.2756  0.5916
10426TIP3   OH252692   5.792   6.416  12.619 -0.1326  0.2419  0.3227
10426TIP3    H152693   5.864   6.372  12.573 -1.2984 -0.4639 -0.8619
10426TIP3    H252694   5.803   6.390  12.711  0.7505 -0.3652  0.0539
10427TIP3   OH252695   3.215   2.686  15.769 -0.0705  0.1735  0.0338
10427TIP3    H152696   3.271   2.641  15.832  0.5055  1.6906  0.6253
10427TIP3    H252697   3.219   2.632  15.691  0.4798 -0.8908  0.7839
10428TIP3   OH252698   1.599   0.331  10.618  0.2336  0.2003 -0.0216
10428TIP3    H152699   1.517   0.330  10.570  1.0205  1.0144 -1.4107
10428TIP3    H252700   1.601   0.247  10.663 -1.9164  0.6828  1.0122
10429TIP3   OH252701   2.572   1.961   3.069  0.5579  0.1761  0.2131
10429TIP3    H152702   2.632   1.888   3.054  1.0349  0.8336 -1.1455
10429TIP3    H252703   2.607   2.033   3.015 -1.5457  0.5077 -0.7557
10430TIP3   OH252704   2.055   1.845  12.521 -0.3516 -0.1350 -0.0903
10430TIP3    H152705   2.005   1.804  12.592  0.9803 -1.7807 -0.0690
10430TIP3    H252706   2.033   1.938  12.526 -3.0776 -0.7495  0.1813
10431TIP3   OH252707   1.238   0.612   0.148 -0.2088  0.1067  0.0409
10431TIP3    H152708   1.150   0.630   0.179  0.1915  0.4693  1.0005
10431TIP3    H252709   1.295   0.658   0.210  0.6358  0.2399 -0.8289
10432TIP3   OH252710   5.184   4.565   5.874  0.0336  0.0263 -0.1779
10432TIP3    H152711   5.112   4.527   5.824  1.3163 -1.6726 -0.7774
10432TIP3    H252712   5.231   4.620   5.811 -0.4192  0.7089  0.0765
10433TIP3   OH252713   3.493   1.359  14.105  0.2870 -0.3241  0.3267
10433TIP3    H152714   3.467   1.395  14.191  0.8023 -0.2670  0.4631
10433TIP3    H252715   3.567   1.302  14.125  0.4610 -0.2435 -0.0944
10434TIP3   OH252716   3.312   0.872  10.278 -0.1072 -0.0615  0.0180
10434TIP3    H152717   3.379   0.805  10.267 -1.6053 -1.5050 -0.6631
10434TIP3    H252718   3.356   0.943  10.323  2.4939 -0.0142 -2.4148
10435TIP3   OH252719   4.311   5.400   4.499 -0.1337  0.0002 -0.4806
10435TIP3    H152720   4.260   5.473   4.462 -2.2189 -0.1569  1.9434
10435TIP3    H252721   4.397   5.437   4.517 -0.3600  1.1526 -1.6915
10436TIP3   OH252722   2.046   4.693   1.631  0.0686  0.5153 -0.4730
10436TIP3    H152723   2.129   4.724   1.593 -0.4894  2.1194 -0.4088
10436TIP3    H252724   2.010   4.769   1.676 -0.4216 -0.7428  1.3209
10437TIP3   OH252725   4.734   4.243  12.331  0.8817 -0.2248  0.4174
10437TIP3    H152726   4.812   4.299  12.328  1.9516 -1.6972 -0.1129
10437TIP3    H252727   4.750   4.177  12.263  0.2391 -1.8861  1.8449
10438TIP3   OH252728   1.373   2.285  11.464 -0.4668  0.1298  0.9202
10438TIP3    H152729   1.370   2.193  11.490  1.1767 -0.2464 -0.1692
10438TIP3    H252730   1.381   2.333  11.547 -1.5547 -0.6788  1.5055
10439TIP3   OH252731   6.150   2.564  12.831  0.3106 -0.2780 -0.3046
10439TIP3    H152732   6.223   2.570  12.893 -0.0273 -0.6282  0.1282
10439TIP3    H252733   6.090   2.634  12.858 -1.0967 -2.0655  1.4382
10440TIP3   OH252734   3.806   1.563   3.425  0.0471  0.3277  0.5725
10440TIP3    H152735   3.797   1.542   3.518  0.6203  0.8076  0.7361
10440TIP3    H252736   3.750   1.499   3.381  1.3615 -1.2354  1.1008
10441TIP3   OH252737   3.413   4.056  15.502 -0.0542  0.6771 -0.1361
10441TIP3    H152738   3.508   4.058  15.495 -0.0290 -0.8628 -0.2980
10441TIP3    H252739   3.385   4.143  15.472  1.2031  0.6710 -1.3795
10442TIP3   OH252740   4.410   2.335   3.508 -0.3694 -0.4786  0.0970
10442TIP3    H152741   4.409   2.313   3.601  1.4868  1.5931  0.6320
10442TIP3    H252742   4.349   2.272   3.469  0.4521 -2.8068  2.3667
10443TIP3   OH252743   5.358   3.533  14.496 -0.2517  0.0956  0.0205
10443TIP3    H152744   5.288   3.590  14.465 -0.4400 -0.0120  0.2524
10443TIP3    H252745   5.420   3.530  14.423 -0.8249 -0.3660 -0.4478
10444TIP3   OH252746   4.247   1.928   3.018 -0.0101 -0.9563  0.4999
10444TIP3    H152747   4.167   1.935   3.070 -0.8999  1.9690 -1.1480
10444TIP3    H252748   4.318   1.946   3.080 -0.8781 -0.2146  1.2940
10445TIP3   OH252749   3.702   6.324   1.133  0.1806  0.3580 -0.8099
10445TIP3    H152750   3.661   6.360   1.212 -2.5902 -0.9312 -1.6171
10445TIP3    H252751   3.734   6.238   1.160 -1.3460 -0.3508 -1.2653
10446TIP3   OH252752   6.368   0.995   5.447 -0.0144 -0.3541  0.0922
10446TIP3    H152753   6.299   0.948   5.495 -2.6285  1.6084 -1.6334
10446TIP3    H252754   6.393   1.067   5.505 -0.4602 -0.2170  0.1154
10447TIP3   OH252755   5.392   3.150   0.157 -0.2167 -0.6360 -0.1166
10447TIP3    H152756   5.391   3.057   0.135 -1.0147 -0.7461  0.4014
10447TIP3    H252757   5.463   3.159   0.220  0.5726 -0.7063 -0.9802
10448TIP3   OH252758   1.550   6.637  11.696  0.3689 -0.7398  0.2207
10448TIP3    H152759   1.563   6.578  11.770  0.9747  0.2583  0.9204
10448TIP3    H252760   1.513   6.582  11.628  1.2502 -2.0093  0.7450
10449TIP3   OH252761   1.852   2.810   2.102  0.7506 -0.2490 -0.3032
10449TIP3    H152762   1.840   2.793   2.195  0.2939  0.5115 -0.2239
10449TIP3    H252763   1.824   2.900   2.090 -1.5214 -1.0956 -1.6368
10450TIP3   OH252764   4.782   6.111   0.220 -0.9583 -0.2844  0.2188
10450TIP3    H152765   4.762   6.203   0.201 -0.3357 -0.2026 -0.0448
10450TIP3    H252766   4.855   6.090   0.162 -2.3676 -1.5301 -1.1461
10451TIP3   OH252767   2.891   4.139   0.552 -0.8016 -0.0709  0.3565
10451TIP3    H152768   2.941   4.145   0.633 -2.5378  0.8708  1.3999
10451TIP3    H252769   2.932   4.203   0.494  0.3684 -0.6516  0.5471
10452TIP3   OH252770   3.338   2.884  13.142 -0.0496  0.0703 -0.2770
10452TIP3    H152771   3.293   2.907  13.061  2.0829  0.3786 -1.4074
10452TIP3    H252772   3.269   2.881  13.208 -1.5436  1.6724 -1.7219
10453TIP3   OH252773   4.596   5.255  16.599  0.2445 -0.0806  0.1213
10453TIP3    H152774   4.609   5.330  16.657  0.5375 -0.5057  0.6131
10453TIP3    H252775   4.655   5.188  16.633  2.4750  0.5644 -2.2815
10454TIP3   OH252776   5.058   5.630   3.773  0.0120  0.3948  0.9759
10454TIP3    H152777   4.993   5.565   3.798 -0.5175  1.2516  1.8469
10454TIP3    H252778   5.041   5.704   3.831  1.3897  0.8439  0.8066
10455TIP3   OH252779   4.452   3.314  17.193 -0.6555  0.5542  0.3326
10455TIP3    H152780   4.425   3.399  17.228 -1.0659  0.3237  0.5673
10455TIP3    H252781   4.383   3.253  17.220 -0.4266  0.1698  0.0533
10456TIP3   OH252782   6.397   2.180   1.699  0.1018 -0.1883 -0.5619
10456TIP3    H152783   6.460   2.107   1.701 -0.0581 -0.3037  1.0283
10456TIP3    H252784   6.343   2.162   1.623  0.8118 -1.1041 -0.8706
10457TIP3   OH252785   6.427   2.961  15.628 -0.7003 -0.4096  0.3696
10457TIP3    H152786   6.438   2.971  15.722  0.7531  0.2024  0.1469
10457TIP3    H252787   6.444   3.048  15.592  1.2280 -1.1877 -0.6633
10458TIP3   OH252788   2.268   2.637   4.931 -0.2908 -0.4124 -0.0082
10458TIP3    H152789   2.357   2.608   4.909  0.1217  0.7390  0.0943
10458TIP3    H252790   2.279   2.688   5.011 -1.0126 -0.0773 -0.1201
10459TIP3   OH252791   2.207   4.105  14.037  0.1380 -0.5364 -0.6401
10459TIP3    H152792   2.199   4.126  13.944  0.7554  0.8251 -0.4083
10459TIP3    H252793   2.137   4.156  14.078  0.1316 -0.8083 -0.3153
10460TIP3   OH252794   0.031   2.531   2.224  0.4901 -0.0528 -0.0952
10460TIP3    H152795   0.030   2.499   2.134  0.0542  2.9175 -1.2297
10460TIP3    H252796   0.110   2.494   2.262  0.1601 -2.1567 -1.3814
10461TIP3   OH252797   2.969   0.806   6.390 -0.0432  0.3612  0.1867
10461TIP3    H152798   3.021   0.751   6.449 -0.3988 -0.7315 -0.5063
10461TIP3    H252799   2.963   0.890   6.435 -0.1167 -0.3938  1.6144
10462TIP3   OH252800   3.611   1.290   5.143 -0.3422 -0.6124  0.0374
10462TIP3    H152801   3.554   1.240   5.084  0.3129  0.0283 -1.1549
10462TIP3    H252802   3.563   1.371   5.158 -1.6336 -1.7323  2.3650
10463TIP3   OH252803   3.271   1.139  13.929 -0.1412 -0.4431  0.6837
10463TIP3    H152804   3.266   1.234  13.924 -1.4868 -0.5721 -0.7546
10463TIP3    H252805   3.230   1.108  13.848  0.3555 -2.2384  1.0911
10464TIP3   OH252806   1.664   2.098   3.474  0.0199 -1.0548  0.4672
10464TIP3    H152807   1.757   2.094   3.453 -0.2392 -0.0399 -0.8698
10464TIP3    H252808   1.622   2.040   3.411 -0.2738 -1.4161  0.9902
10465TIP3   OH252809   6.397   3.473  10.287  0.1335  0.5121  0.0384
10465TIP3    H152810   6.484   3.486  10.325 -0.8594  2.5779  1.6910
10465TIP3    H252811   6.393   3.536  10.215  0.4717 -0.5030 -0.8825
10466TIP3   OH252812   4.218   4.926   2.824  0.1199 -0.1658  0.1804
10466TIP3    H152813   4.225   4.947   2.731  0.2051  1.4336  0.5393
10466TIP3    H252814   4.253   4.837   2.831  1.7240  0.3393 -1.0624
10467TIP3   OH252815   4.899   4.803   5.401  0.7450  0.1258 -0.0848
10467TIP3    H152816   4.923   4.863   5.331 -1.8314  1.0538 -0.2234
10467TIP3    H252817   4.856   4.858   5.466  0.2557 -1.2352  0.7622
10468TIP3   OH252818   6.272   5.588  16.771  0.2346 -0.0254 -0.4627
10468TIP3    H152819   6.252   5.679  16.748 -0.2963 -0.2303 -0.8129
10468TIP3    H252820   6.319   5.555  16.695  0.9090  0.1167 -0.1112
10469TIP3   OH252821   1.643   0.083  16.304  0.0613 -0.3197 -0.7234
10469TIP3    H152822   1.564   0.127  16.337 -0.4105 -0.8112 -1.1864
10469TIP3    H252823   1.615   0.044  16.221  0.9636  0.0341 -1.1947
10470TIP3   OH252824   6.580   3.974  15.547  0.4156  0.0082 -0.1577
10470TIP3    H152825   6.501   4.003  15.502 -0.1836 -0.4470  0.5839
10470TIP3    H252826   6.554   3.968  15.639  1.7851  1.5024  0.3426
10471TIP3   OH252827   3.633   5.903  11.880  0.1275  0.3156 -0.1820
10471TIP3    H152828   3.669   5.881  11.966 -0.4319  3.1757  0.8235
10471TIP3    H252829   3.709   5.934  11.830 -0.1439  2.0051  0.4445
10472TIP3   OH252830   4.013   1.383   4.591 -0.0115  0.0201 -0.3610
10472TIP3    H152831   3.923   1.361   4.567 -0.3758  2.1751 -1.0887
10472TIP3    H252832   4.030   1.331   4.669 -1.9344 -0.3172 -0.1334
10473TIP3   OH252833   0.936   5.229  15.342 -0.0755  0.6057 -0.0055
10473TIP3    H152834   0.846   5.253  15.366 -0.2010  0.0163  0.1116
10473TIP3    H252835   0.950   5.274  15.258 -0.9179 -0.2901 -0.6421
10474TIP3   OH252836   3.209   0.907  14.913 -0.2642 -0.0833  0.8423
10474TIP3    H152837   3.226   0.818  14.881  1.6423 -0.0708  1.7247
10474TIP3    H252838   3.236   0.904  15.005 -2.3089  0.8298  1.4908
10475TIP3   OH252839   0.697   5.577   2.757 -0.1479  1.0364 -0.4993
10475TIP3    H152840   0.705   5.514   2.828  0.9980 -0.0027 -1.5255
10475TIP3    H252841   0.755   5.649   2.783 -0.5595  1.1498  0.1175
10476TIP3   OH252842   3.597   5.774   1.996  0.1069 -0.0061 -0.2035
10476TIP3    H152843   3.556   5.689   2.010 -0.8981  0.4220 -0.4981
10476TIP3    H252844   3.613   5.808   2.084  3.6818 -1.9566  0.0194
10477TIP3   OH252845   5.444   3.731   2.249  0.0893 -0.1173  0.2168
10477TIP3    H152846   5.364   3.677   2.251 -0.1829  0.2472 -0.5948
10477TIP3    H252847   5.501   3.687   2.187 -0.1763  0.5871 -0.5299
10478TIP3   OH252848   0.435   3.724   5.231 -0.0410  0.4061 -0.8270
10478TIP3    H152849   0.364   3.786   5.220 -0.9907 -0.4900  0.1505
10478TIP3    H252850   0.408   3.669   5.305  1.2174 -0.5488 -1.0557
10479TIP3   OH252851   4.163   2.490  10.920 -0.7167  0.4349 -0.0916
10479TIP3    H152852   4.127   2.457  10.838 -1.2009  0.1880  0.2206
10479TIP3    H252853   4.247   2.444  10.930 -0.5230  0.6760 -0.5879
10480TIP3   OH252854   1.642   4.372   3.815  0.4160 -0.2850  0.1010
10480TIP3    H152855   1.716   4.390   3.757 -0.7720  0.1937 -1.2954
10480TIP3    H252856   1.581   4.444   3.799 -0.8815 -1.3024  0.3621
10481TIP3   OH252857   2.998   2.395  15.855  0.2554  0.1040 -0.0704
10481TIP3    H152858   2.932   2.415  15.788  0.0234  1.0947  0.4429
10481TIP3    H252859   2.951   2.401  15.938  0.2700 -2.2750  0.1373
10482TIP3   OH252860   2.314   5.137  11.888 -0.3564 -0.0966  1.3071
10482TIP3    H152861   2.376   5.095  11.828 -1.0694  1.8108 -0.8679
10482TIP3    H252862   2.368   5.196  11.941 -0.2506  1.5196 -0.5429
10483TIP3   OH252863   1.542   1.602  11.274 -0.0373  0.2867 -0.1369
10483TIP3    H152864   1.523   1.509  11.260 -0.4868  0.3873 -0.2027
10483TIP3    H252865   1.571   1.634  11.189  0.5265  0.1123 -0.0141
10484TIP3   OH252866   4.646   5.882  11.874 -0.5260  0.6062  0.3978
10484TIP3    H152867   4.598   5.965  11.878 -1.6094  0.1440 -2.2568
10484TIP3    H252868   4.696   5.887  11.792 -1.9760 -2.0733 -0.7227
10485TIP3   OH252869   2.539   2.334   5.241  0.2385 -0.4476  0.5573
10485TIP3    H152870   2.545   2.330   5.337  0.1334  0.4745  0.6045
10485TIP3    H252871   2.599   2.405   5.216  1.1423 -1.4482 -0.1491
10486TIP3   OH252872   5.255   1.098  11.818  0.0511 -0.3895  0.5343
10486TIP3    H152873   5.221   1.051  11.894 -1.1657  0.1276  0.3252
10486TIP3    H252874   5.197   1.073  11.746 -0.0219  0.6699  0.2122
10487TIP3   OH252875   6.333   4.460  16.738  0.6566  0.3070  0.4652
10487TIP3    H152876   6.371   4.518  16.803  1.0705 -0.4671  0.9227
10487TIP3    H252877   6.239   4.461  16.757  0.6628  0.8381  0.4618
10488TIP3   OH252878   0.937   2.152   3.730 -0.0838  0.2880  0.1100
10488TIP3    H152879   0.884   2.160   3.651  0.8333  1.3270 -0.4170
10488TIP3    H252880   0.970   2.062   3.727 -1.7628 -0.3523  0.4230
10489TIP3   OH252881   4.006   1.860   4.238  0.0031  0.3188  0.2123
10489TIP3    H152882   4.049   1.795   4.183  0.1855  0.8004 -0.2116
10489TIP3    H252883   4.077   1.912   4.275 -0.1461  0.3111  0.5202
10490TIP3   OH252884   5.918   1.430  16.018  0.5172 -0.6305  0.3944
10490TIP3    H152885   5.880   1.369  16.081 -0.0759 -0.4337  0.2292
10490TIP3    H252886   5.981   1.378  15.969 -0.2449 -1.1966  0.0083
10491TIP3   OH252887   5.062   3.557   2.591 -0.1432 -0.3643 -0.2989
10491TIP3    H152888   5.155   3.551   2.613 -0.4822 -0.5555  1.1385
10491TIP3    H252889   5.059   3.541   2.497  1.2882 -0.2609 -0.3805
10492TIP3   OH252890   2.194   0.671   6.086  0.2375  0.3167  0.3097
10492TIP3    H152891   2.129   0.738   6.109 -0.3561 -0.3582  0.6310
10492TIP3    H252892   2.177   0.654   5.993  1.5641  1.8780 -0.2344
10493TIP3   OH252893   4.558   5.093   2.454  0.8444  0.2097  0.0480
10493TIP3    H152894   4.576   5.159   2.388 -0.1246 -0.1375 -0.5794
10493TIP3    H252895   4.583   5.133   2.537 -2.8875  2.6714  0.0888
10494TIP3   OH252896   6.301   4.259  15.814 -0.2906  0.3175 -0.6245
10494TIP3    H152897   6.297   4.232  15.905  1.5018  2.4412  0.1173
10494TIP3    H252898   6.217   4.302  15.798 -0.6472 -0.1471 -0.0359
10495TIP3   OH252899   0.494   2.321   2.063 -0.6439  0.1212  0.3989
10495TIP3    H152900   0.587   2.319   2.041 -1.0556  0.7620 -1.5046
10495TIP3    H252901   0.485   2.393   2.125 -0.2034  1.4623 -1.0861
10496TIP3   OH252902   0.441   6.373   2.839 -0.4644 -1.0152  0.1752
10496TIP3    H152903   0.452   6.323   2.920  1.1489 -0.1534  0.5174
10496TIP3    H252904   0.353   6.409   2.846  0.2044  0.3510  2.3414
10497TIP3   OH252905   3.039   6.684  10.118 -0.0588  0.3986  0.6593
10497TIP3    H152906   3.036   6.596  10.154  0.2150 -0.2463 -0.8680
10497TIP3    H252907   3.106   6.729  10.169 -0.6513 -0.0737  1.8707
10498TIP3   OH252908   4.953   6.655   6.238 -0.3172  0.1737 -0.0131
10498TIP3    H152909   5.020   6.589   6.251  0.8576  0.8053 -2.5386
10498TIP3    H252910   4.872   6.606   6.224  0.1352 -0.6456  0.2717
10499TIP3   OH252911   0.392   2.865  13.661  0.3009  0.0798 -0.0650
10499TIP3    H152912   0.468   2.808  13.667  1.1470  1.0895 -0.9403
10499TIP3    H252913   0.427   2.950  13.634 -0.8663  1.1760  1.7778
10500TIP3   OH252914   2.852   6.204   1.989  0.1581  0.1376  0.8460
10500TIP3    H152915   2.899   6.264   2.046  0.2682 -0.3607  1.2906
10500TIP3    H252916   2.802   6.260   1.930  3.1133  0.7659 -1.2058
10501TIP3   OH252917   1.110   6.056  13.644 -0.0966 -0.0328 -0.2024
10501TIP3    H152918   1.155   6.139  13.661 -0.0968 -0.0033 -0.3403
10501TIP3    H252919   1.114   6.009  13.727  1.7088 -0.7553 -0.6667
10502TIP3   OH252920   2.492   6.176   5.104  0.0729  0.1017  0.2021
10502TIP3    H152921   2.493   6.085   5.077  0.0150  0.3312 -0.5936
10502TIP3    H252922   2.400   6.203   5.094 -0.5775 -0.6625  3.5769
10503TIP3   OH252923   4.276   1.658   2.591 -0.1439 -0.6300  0.4090
10503TIP3    H152924   4.244   1.703   2.513 -1.1321 -1.4389  0.3406
10503TIP3    H252925   4.230   1.700   2.664 -0.1772 -0.7344  0.4486
10504TIP3   OH252926   3.820   3.505  16.939 -0.3868  0.2234  0.3322
10504TIP3    H152927   3.784   3.424  16.974  0.0239 -0.7652 -1.4922
10504TIP3    H252928   3.746   3.546  16.894 -0.6813  1.0479  1.5441
10505TIP3   OH252929   4.006   0.379   5.537 -0.4146 -0.2181  0.0486
10505TIP3    H152930   3.977   0.354   5.449 -0.7434 -0.1004  0.1225
10505TIP3    H252931   4.053   0.303   5.569  0.0584 -0.1157 -0.3877
10506TIP3   OH252932   5.392   2.750   4.341 -0.0054  0.2302 -0.1089
10506TIP3    H152933   5.347   2.818   4.291  0.7358  0.5760 -0.3257
10506TIP3    H252934   5.325   2.686   4.362 -0.7514  1.1109  0.2219
10507TIP3   OH252935   6.734   0.197  12.092 -0.6747  0.0033  0.0538
10507TIP3    H152936   6.766   0.126  12.036 -1.7689 -0.7239  0.3196
10507TIP3    H252937   6.653   0.162  12.130 -2.4307  2.2227 -1.5192
10508TIP3   OH252938   2.522   6.537   1.270  0.5737 -0.1626 -0.3083
10508TIP3    H152939   2.481   6.567   1.189  1.0368 -0.2753 -0.5792
10508TIP3    H252940   2.516   6.612   1.329  1.1859  0.2537 -0.7865
10509TIP3   OH252941   6.386   2.523   2.896  0.5812 -0.4957  0.2613
10509TIP3    H152942   6.382   2.618   2.901  0.4343 -0.5820  2.0477
10509TIP3    H252943   6.444   2.505   2.822  1.2350  0.9660  0.4077
10510TIP3   OH252944   6.229   6.069  13.064  0.0843  0.4907 -0.2161
10510TIP3    H152945   6.178   5.990  13.082  0.3595  0.1285 -1.0003
10510TIP3    H252946   6.236   6.113  13.149  0.5954 -0.7166  0.3816
10511TIP3   OH252947   1.839   5.473   0.155  0.3374 -0.3778 -0.3895
10511TIP3    H152948   1.912   5.518   0.113 -0.1556  0.4971 -0.3072
10511TIP3    H252949   1.855   5.380   0.135  0.3991 -0.0323 -2.0777
10512TIP3   OH252950   4.670   3.533  14.813 -0.3590  0.2147  0.5641
10512TIP3    H152951   4.765   3.537  14.824 -0.5142  2.6405  1.3410
10512TIP3    H252952   4.654   3.583  14.732 -0.8887 -1.2168 -0.2357
10513TIP3   OH252953   4.601   2.773   5.697  0.2215 -0.5403 -0.5287
10513TIP3    H152954   4.563   2.860   5.715  1.9661  0.3308 -0.9036
10513TIP3    H252955   4.535   2.711   5.727 -0.3641  0.9208  1.3183
10514TIP3   OH252956   2.939   3.418   2.761 -0.3792  0.0588  0.1828
10514TIP3    H152957   2.938   3.513   2.751  0.2619  0.0380 -0.0419
10514TIP3    H252958   2.928   3.404   2.855  0.7089  0.3807  0.3620
10515TIP3   OH252959   1.850   2.880  15.208  0.2842 -0.3485  0.1876
10515TIP3    H152960   1.764   2.840  15.216  0.2185 -0.0539  1.0185
10515TIP3    H252961   1.849   2.952  15.271  1.0344 -0.1599 -0.0083
10516TIP3   OH252962   6.765   5.825   5.892 -0.1751  0.4862  0.4435
10516TIP3    H152963   6.758   5.903   5.837 -1.1285 -0.9137 -1.5263
10516TIP3    H252964   6.837   5.775   5.853 -1.8738 -1.2656 -0.5972
10517TIP3   OH252965   4.502   6.115  12.791 -0.1783  0.4921  0.3748
10517TIP3    H152966   4.458   6.192  12.755 -0.1189  0.7296  0.8111
10517TIP3    H252967   4.502   6.052  12.718  0.5850  1.2242 -0.2662
10518TIP3   OH252968   0.019   4.471   6.094  0.1763  0.2472 -0.7858
10518TIP3    H152969   0.099   4.518   6.070  0.4549 -0.5993 -1.5214
10518TIP3    H252970  -0.040   4.539   6.126  0.6306  1.0837 -1.7021
10519TIP3   OH252971   5.129   3.307  14.743 -0.4286  0.3697  0.2731
10519TIP3    H152972   5.113   3.213  14.735 -2.0973  0.5795  0.9494
10519TIP3    H252973   5.172   3.332  14.661 -2.6863 -0.4318 -1.1975
10520TIP3   OH252974   1.015   0.081  13.620  0.5951 -0.5362 -0.1467
10520TIP3    H152975   1.101   0.124  13.617  0.8124 -1.0304 -1.0912
10520TIP3    H252976   0.962   0.127  13.556 -0.3045  0.7090  1.4537
10521TIP3   OH252977   5.446   0.820   4.341 -1.1188  0.6099  0.2501
10521TIP3    H152978   5.480   0.731   4.351 -1.4883  0.5217  0.7249
10521TIP3    H252979   5.351   0.809   4.337 -1.0703  0.7601 -2.0481
10522TIP3   OH252980   0.610   1.091  14.207 -0.1872  0.1232  0.2085
10522TIP3    H152981   0.700   1.096  14.175  0.0519  0.6235  0.9418
10522TIP3    H252982   0.558   1.138  14.142  0.0214 -0.5283 -0.4331
10523TIP3   OH252983   3.254   1.278  11.447  0.1816  0.0391 -0.4084
10523TIP3    H152984   3.349   1.266  11.440 -0.1027 -2.8067 -0.0950
10523TIP3    H252985   3.222   1.269  11.357  0.0129 -1.2380 -0.2320
10524TIP3   OH252986   2.698   5.017  11.043 -0.0203 -0.1666  0.1699
10524TIP3    H152987   2.748   5.013  11.125 -0.0089  1.6284  0.2800
10524TIP3    H252988   2.723   4.938  10.996  2.7330  0.5604  0.3294
10525TIP3   OH252989   0.782   3.816  12.702  0.3660 -0.2981 -0.1844
10525TIP3    H152990   0.792   3.767  12.784 -1.6632 -0.6224 -0.0982
10525TIP3    H252991   0.849   3.883  12.706  1.6218 -1.5676  0.8156
10526TIP3   OH252992   5.381   2.416  16.220  0.0465  0.0148 -0.3331
10526TIP3    H152993   5.311   2.361  16.186  0.8321  0.3477 -2.5645
10526TIP3    H252994   5.448   2.355  16.248 -0.7779 -0.2779  1.0201
10527TIP3   OH252995   1.321   5.661   0.322  0.4268  0.0948 -0.2104
10527TIP3    H152996   1.345   5.703   0.239  1.5051 -0.2247 -0.0604
10527TIP3    H252997   1.293   5.734   0.378  0.8817  0.4521 -0.4428
10528TIP3   OH252998   5.896   2.178   2.252 -0.4790 -0.1158  0.6105
10528TIP3    H152999   5.807   2.158   2.223 -0.5181  1.3419 -0.3043
10528TIP3    H253000   5.889   2.184   2.347 -1.5649  1.0062  0.4727
10529TIP3   OH253001   4.903   1.538   4.312 -0.3913  0.3707  0.1927
10529TIP3    H153002   4.810   1.544   4.287 -0.5127 -0.4394  0.4361
10529TIP3    H253003   4.945   1.496   4.237  0.0766  2.2305 -0.6132
10530TIP3   OH253004   2.248   0.791   1.706  0.4305  0.2665  0.4015
10530TIP3    H153005   2.275   0.744   1.784  1.1078 -0.3175 -0.1765
10530TIP3    H253006   2.153   0.777   1.700  0.5380 -0.5429  0.5548
10531TIP3   OH253007   0.310   4.200  14.423  0.4760  0.0939 -0.4294
10531TIP3    H153008   0.245   4.237  14.484  1.2152 -0.0758  0.4647
10531TIP3    H253009   0.304   4.106  14.436 -0.2299 -0.0198 -1.5136
10532TIP3   OH253010   2.007   4.034   4.305 -0.1063 -0.4186  0.3875
10532TIP3    H153011   1.925   3.989   4.287  0.1726 -0.8727  0.2480
10532TIP3    H253012   1.993   4.123   4.273  0.2505 -1.0962 -1.7241
10533TIP3   OH253013   1.879   5.233   2.220  0.0806  0.2745  0.1106
10533TIP3    H153014   1.867   5.235   2.126 -3.0800 -3.3589  0.3265
10533TIP3    H253015   1.796   5.265   2.256  1.1791  1.4653  1.7198
10534TIP3   OH253016   4.217   4.971  14.032 -0.0551  0.2990  0.1940
10534TIP3    H153017   4.251   4.909  14.097  1.5612 -0.0284 -0.9156
10534TIP3    H253018   4.230   5.057  14.072 -2.1117 -0.0405  1.6525
10535TIP3   OH253019   5.980   1.288   5.858  0.6865 -0.5216  0.7086
10535TIP3    H153020   5.902   1.233   5.859  1.4380 -1.6156  2.8028
10535TIP3    H253021   5.974   1.338   5.940  0.8014  1.4129 -0.4354
10536TIP3   OH253022   6.012   4.925  13.122  0.2659 -0.0421  0.1275
10536TIP3    H153023   6.042   4.843  13.161  2.4871  0.8241  0.3586
10536TIP3    H253024   6.027   4.990  13.190 -0.8555  0.6553 -0.2930
10537TIP3   OH253025   4.897   1.179  15.614  0.4613 -0.0484  0.2766
10537TIP3    H153026   4.815   1.191  15.568  0.1156  2.6931  1.5138
10537TIP3    H253027   4.881   1.106  15.674 -0.3935 -0.8702 -0.9408
10538TIP3   OH253028   0.459   0.619  15.531  0.1582 -0.1001  0.5122
10538TIP3    H153029   0.493   0.668  15.456 -0.0506  0.2743  0.6606
10538TIP3    H253030   0.510   0.538  15.532 -1.1564 -0.9992 -1.2240
10539TIP3   OH253031   0.854   2.002  10.736 -0.9965  0.0394  0.6748
10539TIP3    H153032   0.914   1.932  10.761 -1.4580 -0.2960  0.8566
10539TIP3    H253033   0.808   1.968  10.658 -1.8636 -0.2320  1.2955
10540TIP3   OH253034   5.130   4.244   3.120 -0.4858  0.0171 -0.3263
10540TIP3    H153035   5.125   4.185   3.045  0.1056 -1.5819  0.8648
10540TIP3    H253036   5.053   4.300   3.111 -0.4770 -0.2004 -2.0692
10541TIP3   OH253037   5.670   5.809  11.614 -0.0813 -0.1054  0.1717
10541TIP3    H153038   5.677   5.766  11.699 -1.0544 -0.2391  0.1902
10541TIP3    H253039   5.597   5.765  11.570  0.6114 -0.2453 -0.8565
10542TIP3   OH253040   2.105   2.373   1.452 -0.1127 -0.3629  0.5654
10542TIP3    H153041   2.199   2.357   1.447 -0.1554 -0.8597  1.3242
10542TIP3    H253042   2.097   2.469   1.450  0.5349 -0.2558  2.3950
10543TIP3   OH253043   0.680   0.483   4.933 -1.4289 -0.6683 -0.3028
10543TIP3    H153044   0.642   0.568   4.954 -0.5034  0.1292 -1.7833
10543TIP3    H253045   0.750   0.502   4.870 -1.4813 -2.5574 -0.9833
10544TIP3   OH253046   1.646   3.100  10.965 -0.0313 -0.4949 -0.6875
10544TIP3    H153047   1.610   3.174  10.917 -0.7955 -0.1766  0.3807
10544TIP3    H253048   1.572   3.041  10.979  0.0426 -0.2948  0.6386
10545TIP3   OH253049   0.706   0.076   3.346  0.1704  0.1670  0.0980
10545TIP3    H153050   0.613   0.053   3.342  0.2749  0.0439 -4.1902
10545TIP3    H253051   0.751  -0.005   3.323  1.2418  0.7230  0.2186
10546TIP3   OH253052   0.687   4.667  14.504 -0.4941  0.2643 -0.5688
10546TIP3    H153053   0.628   4.600  14.470 -0.0914 -0.1417 -0.4780
10546TIP3    H253054   0.646   4.697  14.585 -0.5774 -0.0078 -0.5122
10547TIP3   OH253055   3.688   0.625   1.618 -0.1352  0.3392  0.4796
10547TIP3    H153056   3.766   0.607   1.566 -0.6688 -0.3068 -0.1088
10547TIP3    H253057   3.680   0.549   1.676 -0.1856  0.5228  0.7141
10548TIP3   OH253058   4.549   3.642  12.164 -0.0369  0.2229  0.2497
10548TIP3    H153059   4.488   3.675  12.098  1.6364  1.6775 -0.6217
10548TIP3    H253060   4.495   3.625  12.241 -1.6486  0.7513 -0.7522
10549TIP3   OH253061   4.164   6.394  15.028 -0.3401 -0.6183  0.1354
10549TIP3    H153062   4.185   6.373  14.937 -1.7870 -0.8204 -0.1701
10549TIP3    H253063   4.195   6.484  15.040 -1.4442 -0.0782 -0.9882
10550TIP3   OH253064   1.427   5.071  11.995 -0.1289 -0.0645  0.2653
10550TIP3    H153065   1.463   4.992  11.955 -0.6058 -1.2990  2.2250
10550TIP3    H253066   1.495   5.102  12.054 -0.0388  0.8686 -0.3184
10551TIP3   OH253067   0.698   0.459   0.054 -0.8460  0.1044 -0.0112
10551TIP3    H153068   0.614   0.441   0.012  0.0189  0.9282 -2.1569
10551TIP3    H253069   0.747   0.378   0.044 -0.7496  0.2008 -0.3162
10552TIP3   OH253070   3.593   6.097  15.989 -0.1342 -0.1219  0.3829
10552TIP3    H153071   3.652   6.170  15.970 -0.3858  0.3858  1.5087
10552TIP3    H253072   3.646   6.038  16.043 -0.3040 -0.1979  0.4634
10553TIP3   OH253073   2.777   3.740  13.617 -0.0101  0.4927  0.1658
10553TIP3    H153074   2.767   3.834  13.632 -0.8613  0.5075 -0.4402
10553TIP3    H253075   2.688   3.706  13.622  0.5168 -0.6220  2.5836
10554TIP3   OH253076   2.839   2.818  14.440  1.1462  0.2515 -0.2109
10554TIP3    H153077   2.840   2.861  14.526  0.8689  0.3637 -0.2611
10554TIP3    H253078   2.773   2.867  14.390 -0.8440 -1.6792  0.4664
10555TIP3   OH253079   3.905   5.195  12.739 -0.1145  0.6368 -0.1056
10555TIP3    H153080   3.882   5.146  12.660  1.4244 -0.3388  0.0143
10555TIP3    H253081   3.958   5.134  12.790  2.1725  2.5463 -0.1105
10556TIP3   OH253082   1.157   1.003   1.777 -0.7662 -0.7025 -0.0554
10556TIP3    H153083   1.151   1.012   1.682  1.2542 -2.2962 -0.3802
10556TIP3    H253084   1.161   1.093   1.810  0.7368 -0.1596 -1.6713
10557TIP3   OH253085   0.708   6.509  16.161 -0.0587  0.1828  0.3831
10557TIP3    H153086   0.714   6.424  16.117 -1.5562 -0.3112  1.0880
10557TIP3    H253087   0.743   6.571  16.097 -0.9230 -0.6915 -0.9696
10558TIP3   OH253088   1.374   2.125  12.299 -0.5327  1.1581 -0.3069
10558TIP3    H153089   1.433   2.198  12.316  0.6791 -0.0911  0.9883
10558TIP3    H253090   1.423   2.067  12.240 -1.5002  1.3910 -1.3687
10559TIP3   OH253091   0.897   1.460  10.325 -0.5834  0.4243  0.2954
10559TIP3    H153092   0.846   1.509  10.261 -1.5098  0.4837  1.0764
10559TIP3    H253093   0.925   1.525  10.389 -0.3385  0.2250  0.3923
10560TIP3   OH253094   3.825   2.877   1.645 -0.2374 -0.4950 -0.2116
10560TIP3    H153095   3.838   2.918   1.730 -0.9579 -0.3133 -0.1898
10560TIP3    H253096   3.909   2.835   1.625  0.1681  0.1147  0.2320
10561TIP3   OH253097   4.396   2.084  13.221  0.0065  0.3595  0.3465
10561TIP3    H153098   4.366   2.063  13.310 -0.9395 -1.5063 -0.3808
10561TIP3    H253099   4.328   2.141  13.185 -0.9867 -1.0911 -0.1092
10562TIP3   OH253100   3.084   0.192   0.902  0.3181 -0.0751  0.4933
10562TIP3    H153101   3.173   0.166   0.879 -0.7897 -1.5443 -2.3671
10562TIP3    H253102   3.058   0.130   0.969  0.1853 -2.0041 -1.2987
10563TIP3   OH253103   1.861   5.374  14.365  0.1063  0.2113  0.3091
10563TIP3    H153104   1.829   5.284  14.376 -1.4298  0.3916 -2.2169
10563TIP3    H253105   1.932   5.367  14.302  0.3879  0.6957  0.5722
10564TIP3   OH253106   1.223   4.298  14.738  0.6600  0.0532 -0.4159
10564TIP3    H153107   1.232   4.319  14.645 -0.0352 -1.0627 -0.7409
10564TIP3    H253108   1.272   4.216  14.749 -1.3517 -1.1589 -0.3251
10565TIP3   OH253109   3.713   1.563   4.328 -0.3453 -0.3229 -0.2301
10565TIP3    H153110   3.769   1.631   4.366 -1.4020  0.3866  0.0960
10565TIP3    H253111   3.628   1.577   4.369 -0.9306 -0.9765 -1.2003
10566TIP3   OH253112   4.234   4.752  13.849 -0.0538 -0.9569  0.2746
10566TIP3    H153113   4.164   4.729  13.910 -0.1315 -0.2692  0.4508
10566TIP3    H253114   4.245   4.847  13.860 -0.0555 -0.8314 -0.7520
10567TIP3   OH253115   0.323   1.931   2.275 -0.5581 -0.8347  0.2864
10567TIP3    H153116   0.353   1.943   2.184  1.7969  1.4116  1.2762
10567TIP3    H253117   0.228   1.935   2.270 -0.4471 -0.4938 -2.0668
10568TIP3   OH253118   5.813   4.421  11.513 -0.0848  0.3443 -0.2854
10568TIP3    H153119   5.751   4.368  11.463 -2.1861  1.9887  0.4740
10568TIP3    H253120   5.768   4.439  11.596  0.9286  2.4965 -0.1571
10569TIP3   OH253121   0.125   5.167  11.575 -0.3847 -0.3432  0.1038
10569TIP3    H153122   0.060   5.102  11.550 -0.6345 -0.1066  0.1284
10569TIP3    H253123   0.101   5.191  11.664  1.0876 -1.9011  0.9429
10570TIP3   OH253124   6.193   2.301   5.460  0.6819  0.1622  0.0504
10570TIP3    H153125   6.204   2.274   5.369 -0.1304  1.4294 -0.4434
10570TIP3    H253126   6.098   2.309   5.471  0.8520  1.7755  0.4686
10571TIP3   OH253127   4.229   6.028   5.219  0.3032  0.5682  0.3851
10571TIP3    H153128   4.228   5.965   5.291 -1.2431  0.0535 -0.0748
10571TIP3    H253129   4.211   6.112   5.261  2.8848  0.8308  1.0745
10572TIP3   OH253130   1.000   5.836   0.127  0.1930 -0.1120  0.0854
10572TIP3    H153131   0.952   5.764   0.169  0.5441  0.1589  0.9702
10572TIP3    H253132   1.084   5.838   0.173 -0.3506  1.7673  1.0160
10573TIP3   OH253133   6.419   5.557  12.635  0.3143 -0.0850 -0.0284
10573TIP3    H153134   6.387   5.481  12.587  1.7835 -0.3498 -0.6045
10573TIP3    H253135   6.463   5.611  12.570 -1.3483  1.6448  0.2384
10574TIP3   OH253136   4.812   6.719   0.165 -0.0482 -0.3361 -0.8517
10574TIP3    H153137   4.839   6.627   0.176 -1.0604 -0.8318 -2.4033
10574TIP3    H253138   4.867   6.752   0.094 -1.5915 -0.5658 -2.1847
10575TIP3   OH253139   1.859   5.548  16.164 -0.4120  0.4663 -0.3694
10575TIP3    H153140   1.861   5.621  16.102  1.4515  1.4768  0.8555
10575TIP3    H253141   1.851   5.589  16.250 -2.8556 -0.9145  0.1304
10576TIP3   OH253142   5.218   0.730  11.012 -0.1012 -0.4912 -0.2040
10576TIP3    H153143   5.207   0.720  10.917 -0.1615 -3.7480  0.0724
10576TIP3    H253144   5.282   0.662  11.036  0.6153  0.8823  1.9763
10577TIP3   OH253145   3.894   4.900  14.060  0.4664  0.0113  1.0630
10577TIP3    H153146   3.937   4.983  14.040 -0.2130  0.3669  1.0604
10577TIP3    H253147   3.892   4.853  13.977 -1.5547  1.1190  0.4275
10578TIP3   OH253148   1.381   1.729  16.699  0.0137 -0.8731  0.1778
10578TIP3    H153149   1.323   1.805  16.702  0.3540 -0.4468 -2.6058
10578TIP3    H253150   1.469   1.766  16.695  0.2353 -1.4271 -0.0888
10579TIP3   OH253151   3.506   6.074  16.818 -0.1052  0.6078 -0.0078
10579TIP3    H153152   3.522   6.152  16.765 -1.6527  1.6050  0.9552
10579TIP3    H253153   3.430   6.032  16.778 -0.1993  0.4125  0.3665
10580TIP3   OH253154   6.075   0.217  15.303 -0.0792 -0.3567  0.3186
10580TIP3    H153155   6.009   0.150  15.321 -0.2042 -0.4352 -0.4116
10580TIP3    H253156   6.076   0.271  15.382 -0.1634 -1.0587  0.8130
10581TIP3   OH253157   3.863   5.085   4.029  0.0289  0.2591  0.1190
10581TIP3    H153158   3.774   5.101   4.059  1.1406  1.7037  2.7398
10581TIP3    H253159   3.894   5.013   4.084  0.9981  0.7912  0.2723
10582TIP3   OH253160   0.433   1.206  12.730 -0.2399 -0.0897 -0.6235
10582TIP3    H153161   0.374   1.131  12.731  0.8092 -0.9262 -1.1447
10582TIP3    H253162   0.491   1.191  12.655  0.8567  0.5518  0.0832
10583TIP3   OH253163   4.307   1.050  13.568 -0.5485  0.4461 -0.0396
10583TIP3    H153164   4.390   1.096  13.576 -0.3487  0.1370 -0.3282
10583TIP3    H253165   4.331   0.957  13.561 -0.9655  0.2600  0.9592
10584TIP3   OH253166   3.803   2.276   0.526 -0.1630  0.8021  0.7624
10584TIP3    H153167   3.886   2.254   0.569 -0.4822  0.8025  1.3898
10584TIP3    H253168   3.809   2.235   0.440 -1.2238 -2.8468  2.3057
10585TIP3   OH253169   3.155   5.196  15.432  0.0903 -0.1795 -0.0555
10585TIP3    H153170   3.145   5.248  15.512 -0.7036 -0.1695 -0.1559
10585TIP3    H253171   3.173   5.108  15.463  0.0532 -0.1212  0.1366
10586TIP3   OH253172   5.480   6.741  12.158  0.4268 -0.1648  0.4702
10586TIP3    H153173   5.388   6.765  12.167  0.1397 -0.3089 -1.8305
10586TIP3    H253174   5.516   6.748  12.247 -1.3619  1.6677  1.0708
10587TIP3   OH253175   5.294   6.267  16.895  0.2494  0.0551  0.1230
10587TIP3    H153176   5.246   6.235  16.971 -0.7020 -2.5192 -1.5190
10587TIP3    H253177   5.374   6.305  16.931  0.4861 -2.4174  2.2917
10588TIP3   OH253178   6.706   1.268  14.452 -0.1050  0.0771 -0.6635
10588TIP3    H153179   6.698   1.359  14.424  1.0468  0.6682  0.8845
10588TIP3    H253180   6.800   1.253  14.461 -0.1458 -1.9455 -3.0506
10589TIP3   OH253181   0.619   2.585  15.089  0.6083  0.1814  0.6061
10589TIP3    H153182   0.630   2.672  15.128  0.1528  0.5813 -0.1366
10589TIP3    H253183   0.550   2.597  15.024 -0.4064 -1.0455  1.4350
10590TIP3   OH253184   6.373   3.412  12.376  0.5444  0.1336 -0.3532
10590TIP3    H153185   6.347   3.399  12.285 -0.7875 -0.1170  0.0616
10590TIP3    H253186   6.328   3.492  12.402 -1.9024 -1.6659  1.1428
10591TIP3   OH253187   1.587   1.804   4.027 -0.8671 -0.0733  0.4970
10591TIP3    H153188   1.659   1.754   3.989  0.5334  1.5538  0.9231
10591TIP3    H253189   1.509   1.775   3.979  0.4152 -0.2048 -1.5610
10592TIP3   OH253190   6.348   0.971   4.332  0.2791 -0.5905 -0.4654
10592TIP3    H153191   6.338   1.060   4.364  2.2997 -0.1890 -0.8764
10592TIP3    H253192   6.396   0.925   4.401  1.7764 -0.5721 -1.4579
10593TIP3   OH253193   6.451   1.866  12.799  0.2782  0.0733 -0.3155
10593TIP3    H153194   6.419   1.939  12.746 -1.9764 -0.5070  0.1768
10593TIP3    H253195   6.514   1.821  12.743 -0.9847  0.3167 -1.9713
10594TIP3   OH253196   1.378   1.334  17.216  0.4542  0.2320  0.1665
10594TIP3    H153197   1.463   1.315  17.177  0.8877 -2.2897  2.2294
10594TIP3    H253198   1.394   1.336  17.310 -1.8650 -0.8478  0.6125
10595TIP3   OH253199   1.359   5.557   1.621  0.0307  0.1439 -0.4538
10595TIP3    H153200   1.297   5.506   1.567 -1.9547  1.2409  0.7358
10595TIP3    H253201   1.366   5.640   1.575  0.0127  0.3021 -0.1666
10596TIP3   OH253202   0.613   5.873  12.331  0.1006 -0.6241  0.0750
10596TIP3    H153203   0.617   5.821  12.251 -0.3175 -0.0529 -0.3159
10596TIP3    H253204   0.602   5.808  12.401  2.8053 -1.3054 -0.0829
10597TIP3   OH253205   5.664   3.368  11.267 -0.3199 -0.1816 -0.0090
10597TIP3    H153206   5.585   3.398  11.312  0.1061  1.0686 -0.0798
10597TIP3    H253207   5.633   3.341  11.180 -0.6451  0.4172 -0.0795
10598TIP3   OH253208   5.824   0.563   2.526 -0.0580 -0.4410  0.3651
10598TIP3    H153209   5.730   0.568   2.510 -0.1295 -0.0570  0.8941
10598TIP3    H253210   5.837   0.610   2.609  0.5908 -0.5288  0.3159
10599TIP3   OH253211   3.120   0.521  15.895 -0.1461  0.0375  0.3826
10599TIP3    H153212   3.042   0.525  15.951  0.6310  1.8078  1.3640
10599TIP3    H253213   3.154   0.432  15.909 -1.5211 -0.4721  0.5751
10600TIP3   OH253214   1.417   2.845   0.526  0.0302  0.0602  0.3862
10600TIP3    H153215   1.429   2.771   0.466  0.9882  1.3707 -1.1118
10600TIP3    H253216   1.494   2.842   0.583 -0.9270 -1.2438  1.6304
10601TIP3   OH253217   2.801   1.417   0.966  0.3149  0.7242  0.3835
10601TIP3    H153218   2.841   1.496   1.001  0.2501  0.9042  0.0552
10601TIP3    H253219   2.707   1.437   0.962  0.4205  1.0242 -0.7080
10602TIP3   OH253220   0.844   1.279   0.111  0.0560  0.4354  0.2633
10602TIP3    H153221   0.862   1.351   0.050 -1.7469 -0.7002 -1.6922
10602TIP3    H253222   0.928   1.263   0.154  1.3898  1.3236 -1.8903
10603TIP3   OH253223   6.015   6.340   0.786  0.0873 -0.3197 -0.3763
10603TIP3    H153224   6.059   6.270   0.738 -0.9158 -1.3283  0.1533
10603TIP3    H253225   5.922   6.329   0.766 -0.2911 -0.4420  1.3488
10604TIP3   OH253226   2.560   1.952   0.948 -0.1781 -0.5384 -0.2819
10604TIP3    H153227   2.567   1.966   1.043  0.2701  2.3883 -0.7038
10604TIP3    H253228   2.650   1.938   0.919  0.1235  2.2046 -0.7611
10605TIP3   OH253229   1.563   4.591   3.053  0.2703 -0.2227  0.5073
10605TIP3    H153230   1.623   4.659   3.084 -0.5697  0.5590  0.4062
10605TIP3    H253231   1.620   4.528   3.009  1.2330 -0.3387  1.8732
10606TIP3   OH253232   5.346   6.480  12.364 -0.3105 -0.0482  0.2172
10606TIP3    H153233   5.315   6.396  12.398 -1.4885  0.8241  1.3335
10606TIP3    H253234   5.385   6.524  12.440  0.0017  0.5619 -0.2886
10607TIP3   OH253235   4.734   5.134  11.573  0.3426 -0.1403  0.6037
10607TIP3    H153236   4.668   5.191  11.535  0.2110 -0.0307  1.0055
10607TIP3    H253237   4.743   5.062  11.509 -2.9721 -2.2124  2.3400
10608TIP3   OH253238   2.697   1.437  11.435  0.3175 -0.7933  0.0046
10608TIP3    H153239   2.646   1.495  11.378 -0.4099 -1.3078  0.1214
10608TIP3    H253240   2.788   1.454  11.412  0.0152 -1.3338 -1.6380
10609TIP3   OH253241   6.720   6.563   3.040 -0.7779 -0.0623 -0.6892
10609TIP3    H153242   6.669   6.506   2.982 -0.5037  0.3505 -1.3464
10609TIP3    H253243   6.654   6.619   3.083 -1.0272 -0.7324 -0.1989
10610TIP3   OH253244   1.728   1.494   2.160 -0.1264 -0.0595 -0.8830
10610TIP3    H153245   1.656   1.435   2.140 -1.1315  0.7999  0.1361
10610TIP3    H253246   1.807   1.446   2.134 -0.7711 -2.6022  1.7050
10611TIP3   OH253247   6.712   4.214   2.873  0.3685  0.0000  0.2155
10611TIP3    H153248   6.664   4.188   2.951  0.4794  0.6772  0.5166
10611TIP3    H253249   6.754   4.134   2.842 -2.2410 -0.9748 -0.9556
10612TIP3   OH253250   1.834   5.021   2.473  0.7439 -0.1093 -0.8539
10612TIP3    H153251   1.796   5.079   2.407  1.3656  1.8082  0.4624
10612TIP3    H253252   1.862   4.944   2.423 -1.5398 -0.0089 -2.3755
10613TIP3   OH253253   4.824   1.507   6.663 -0.7844 -0.2966  0.5901
10613TIP3    H153254   4.896   1.512   6.599 -1.0811 -0.1954  0.2636
10613TIP3    H253255   4.837   1.422   6.706 -1.0302 -0.7160 -0.1450
10614TIP3   OH253256   1.506   4.637   0.562 -0.2429 -0.7672  0.3308
10614TIP3    H153257   1.412   4.652   0.571 -0.1985  0.7967 -1.4463
10614TIP3    H253258   1.547   4.704   0.617 -0.1575  0.1506 -0.8261
10615TIP3   OH253259   0.285   1.631   2.047 -0.2497 -0.3343 -0.5489
10615TIP3    H153260   0.366   1.680   2.037 -0.7871  0.6412 -0.1601
10615TIP3    H253261   0.289   1.563   1.979 -0.0663  1.0143 -1.9046
10616TIP3   OH253262   2.950   2.952  16.202  0.5856  0.2820 -0.3264
10616TIP3    H153263   2.940   2.884  16.136  1.9563  0.2954 -0.5658
10616TIP3    H253264   2.897   3.025  16.170  0.4004 -0.0886 -0.8746
10617TIP3   OH253265   6.456   0.073   1.317  0.0013 -0.3229  0.0596
10617TIP3    H153266   6.431   0.145   1.375 -0.4321 -0.5074  0.1064
10617TIP3    H253267   6.455   0.112   1.230  0.8712  0.0106  0.1981
10618TIP3   OH253268   2.382   3.369   1.200  0.1530 -0.0328 -0.2436
10618TIP3    H153269   2.362   3.462   1.211 -1.5043 -0.4629  0.4551
10618TIP3    H253270   2.378   3.355   1.106 -3.1958 -0.1571 -0.1303
10619TIP3   OH253271   4.603   0.822   5.800 -0.1377 -0.3080 -0.8339
10619TIP3    H153272   4.614   0.729   5.823 -1.1637 -0.2365 -0.0465
10619TIP3    H253273   4.510   0.839   5.811  0.3469  1.3491  1.0215
10620TIP3   OH253274   3.759   1.769  11.437  0.1367  0.1133  0.3238
10620TIP3    H153275   3.800   1.721  11.365 -1.5992  1.0298 -1.3019
10620TIP3    H253276   3.793   1.858  11.429  0.5085  0.0488  1.1106
10621TIP3   OH253277   3.430   1.195  11.217 -0.3119 -0.1868  0.2673
10621TIP3    H153278   3.522   1.218  11.222 -0.2286 -0.4587  0.0077
10621TIP3    H253279   3.423   1.138  11.141 -0.5071 -1.0461  0.9177
10622TIP3   OH253280   4.762   2.658   2.855 -0.5010  0.2939  0.7496
10622TIP3    H153281   4.704   2.650   2.779 -0.1687 -0.4605  0.5674
10622TIP3    H253282   4.718   2.721   2.912 -0.8617  0.7070  0.0308
10623TIP3   OH253283   2.881   1.714   1.011 -0.3085  0.1645 -0.2460
10623TIP3    H153284   2.841   1.783   1.063 -0.7309 -0.6123  0.4683
10623TIP3    H253285   2.920   1.760   0.936  0.7867  1.3503  1.0118
10624TIP3   OH253286   3.570   6.603  16.095 -0.1244  0.4822 -0.0540
10624TIP3    H153287   3.632   6.552  16.043  0.7226  0.3978  1.0227
10624TIP3    H253288   3.624   6.669  16.139 -0.6577 -0.1676  1.6017
10625TIP3   OH253289   0.094   0.300  16.005  0.4902  0.8730  0.1595
10625TIP3    H153290   0.129   0.362  15.941  0.8382 -0.0466 -0.5493
10625TIP3    H253291   0.172   0.259  16.043  0.2333  0.1456 -0.0976
10626TIP3   OH253292   0.492   3.113  13.604 -0.3909 -0.0566 -0.4182
10626TIP3    H153293   0.497   3.204  13.635  0.0238  0.3315 -1.5977
10626TIP3    H253294   0.525   3.116  13.514 -2.8936 -0.8972 -1.4216
10627TIP3   OH253295   6.085   4.471   3.135  0.2660  0.2807  0.4386
10627TIP3    H153296   6.176   4.466   3.162  0.1826  1.2117  0.9053
10627TIP3    H253297   6.063   4.381   3.109  1.6771  0.2989 -0.9021
10628TIP3   OH253298   4.731   0.782   0.083  0.2752  0.2158  0.1842
10628TIP3    H153299   4.678   0.703   0.068 -1.6602  1.5596 -0.2843
10628TIP3    H253300   4.743   0.820  -0.004  0.1331  1.0803  0.5380
10629TIP3   OH253301   4.869   3.152  15.847  0.9942 -0.1984 -0.1229
10629TIP3    H153302   4.815   3.225  15.878  1.0015 -0.2234 -0.0485
10629TIP3    H253303   4.956   3.190  15.836  1.0352 -0.2321  0.0716
10630TIP3   OH253304   5.520   2.493   4.315 -0.1800 -0.6700 -0.4880
10630TIP3    H153305   5.496   2.401   4.328  0.7839 -0.5619  2.3950
10630TIP3    H253306   5.466   2.540   4.378  1.6368  0.4084  0.2726
10631TIP3   OH253307   6.372   4.504   3.801  0.4668  0.2811 -0.1661
10631TIP3    H153308   6.330   4.470   3.721 -0.6607  0.4174  0.3606
10631TIP3    H253309   6.365   4.432   3.864  3.6223 -0.7772 -0.9364
10632TIP3   OH253310   3.721   5.584   4.479  0.3004 -0.2845  0.2043
10632TIP3    H153311   3.770   5.502   4.483  1.3277  0.2756 -0.7405
10632TIP3    H253312   3.755   5.636   4.551  1.1173  0.1048 -0.4522
10633TIP3   OH253313   2.132   1.898  11.607  0.1142  0.7905 -0.0501
10633TIP3    H153314   2.186   1.848  11.546 -3.3993  0.3438 -2.9383
10633TIP3    H253315   2.092   1.832  11.663  1.1919  0.9918  0.9772
10634TIP3   OH253316   2.070   0.295   4.816  0.2509  0.2898 -0.2342
10634TIP3    H153317   2.137   0.274   4.881 -1.1781 -1.2033  0.8109
10634TIP3    H253318   2.036   0.380   4.844  0.9829  0.5727 -0.1806
10635TIP3   OH253319   1.978   0.429   0.837 -0.0771 -0.5182 -0.3575
10635TIP3    H153320   2.045   0.486   0.874 -0.5208 -1.4262  1.9121
10635TIP3    H253321   1.908   0.489   0.812  0.7106  0.2293 -0.8057
10636TIP3   OH253322   3.974   0.380   3.108 -0.1967 -0.1359  0.1372
10636TIP3    H153323   3.940   0.292   3.096  0.0391 -0.1011 -0.8333
10636TIP3    H253324   4.053   0.383   3.054 -1.2874  1.2733 -1.4562
10637TIP3   OH253325   5.073   1.290   1.592  0.3052 -0.0425  0.6085
10637TIP3    H153326   5.073   1.195   1.588  0.4634 -0.0067 -0.5885
10637TIP3    H253327   5.151   1.316   1.543 -0.7638  0.7411 -0.7207
10638TIP3   OH253328   0.735   0.368   2.953 -0.2665 -0.6880 -0.1618
10638TIP3    H153329   0.682   0.317   3.015  0.4825 -1.9035 -0.4982
10638TIP3    H253330   0.825   0.350   2.978  0.0140 -0.0861 -0.7341
10639TIP3   OH253331   4.491   2.998   1.209 -0.2669 -0.5646  0.0222
10639TIP3    H153332   4.468   3.063   1.275  0.1969  0.4002 -0.7623
10639TIP3    H253333   4.496   3.047   1.127  1.7135 -1.2858 -0.3038
10640TIP3   OH253334   2.410   0.977   3.603  0.5834  0.3058 -0.0282
10640TIP3    H153335   2.452   0.991   3.688  2.5797 -0.8342 -0.8050
10640TIP3    H253336   2.449   1.041   3.545 -0.4784  0.8037 -0.1983
10641TIP3   OH253337   1.551   5.817   1.789 -0.2141 -0.1419 -0.1094
10641TIP3    H153338   1.624   5.761   1.763 -0.1819  0.0511 -0.4341
10641TIP3    H253339   1.480   5.757   1.810  0.0530 -0.3325  0.2511
10642TIP3   OH253340   2.984   3.856  12.824 -0.2109  0.2600 -0.5013
10642TIP3    H153341   3.051   3.800  12.865 -0.2259 -0.2569 -1.1722
10642TIP3    H253342   2.904   3.837  12.873  0.4561  2.0903  1.3848
10643TIP3   OH253343   0.637   3.903   3.606  0.6292  0.0785 -0.0086
10643TIP3    H153344   0.688   3.974   3.568  0.7569 -0.1055 -0.1886
10643TIP3    H253345   0.548   3.918   3.574  0.5212  0.5363  0.5025
10644TIP3   OH253346   0.106   1.449  16.452 -0.0144  0.4580 -0.3853
10644TIP3    H153347   0.201   1.465  16.453 -0.1694  1.7816 -2.8977
10644TIP3    H253348   0.067   1.536  16.461 -0.9732  0.0416 -0.4910
10645TIP3   OH253349   6.435   1.112  11.659 -0.4222 -0.0207  0.1827
10645TIP3    H153350   6.510   1.069  11.618 -0.5563  1.0076 -1.1670
10645TIP3    H253351   6.390   1.041  11.706  0.8483 -0.8199  0.2278
10646TIP3   OH253352   6.461   5.226  16.555  0.0307 -0.1440  0.6659
10646TIP3    H153353   6.477   5.174  16.634 -1.8840 -0.0697  1.1215
10646TIP3    H253354   6.447   5.160  16.486  4.0421 -0.2440 -0.1915
10647TIP3   OH253355   1.767   2.014  10.677  0.1915  0.0320  0.2651
10647TIP3    H153356   1.828   2.084  10.702  0.6611 -0.4231  0.4090
10647TIP3    H253357   1.706   2.055  10.616  0.1882  0.6813  0.7031
10648TIP3   OH253358   5.700   3.976  14.556 -0.2542 -0.3202 -0.0521
10648TIP3    H153359   5.611   3.987  14.589 -0.7824 -0.9386 -1.2566
10648TIP3    H253360   5.741   4.062  14.570 -1.0841  0.0198  0.3255
10649TIP3   OH253361   3.068   1.262   0.155 -0.0005 -0.1887  0.4210
10649TIP3    H153362   3.001   1.330   0.159 -0.1387 -0.3140  0.2569
10649TIP3    H253363   3.151   1.310   0.150 -0.1761 -0.0310 -1.1188
10650TIP3   OH253364   3.300   6.336  11.681 -0.2395  0.3049 -0.4965
10650TIP3    H153365   3.334   6.246  11.681 -0.3734  0.2532 -0.1160
10650TIP3    H253366   3.356   6.383  11.620 -0.9867 -0.3472 -1.7034
10651TIP3   OH253367   6.010   4.927   1.812 -0.3246  0.5549  0.4138
10651TIP3    H153368   5.923   4.967   1.814 -0.4538  0.2665  0.5492
10651TIP3    H253369   5.993   4.833   1.813  0.0019  0.5011  0.7331
10652TIP3   OH253370   3.356   3.424   4.670  0.4461  0.2390  0.9049
10652TIP3    H153371   3.418   3.380   4.612  0.5838 -0.3905  1.5262
10652TIP3    H253372   3.357   3.372   4.750 -1.1176  0.0449  0.8050
10653TIP3   OH253373   0.291   3.567  13.248 -0.2501  0.5705  0.0867
10653TIP3    H153374   0.333   3.486  13.220 -3.3193 -0.4275 -1.7512
10653TIP3    H253375   0.226   3.539  13.312 -4.7006  0.8819 -4.0508
10654TIP3   OH253376   1.494   5.394  16.296  0.5516 -0.0604  0.0737
10654TIP3    H153377   1.562   5.329  16.317  0.5435 -0.9877 -2.5374
10654TIP3    H253378   1.412   5.352  16.322  0.5724 -1.0209 -1.3504
10655TIP3   OH253379   3.595   5.601  12.260  0.1302  0.8455  0.2161
10655TIP3    H153380   3.634   5.545  12.327  0.2338  2.3121  1.3911
10655TIP3    H253381   3.512   5.557  12.239 -0.3561  0.8564  1.9862
10656TIP3   OH253382   3.224   2.361  12.584 -0.5620 -0.1947  0.2728
10656TIP3    H153383   3.195   2.309  12.508 -1.4772 -0.6638  0.9288
10656TIP3    H253384   3.149   2.416  12.605 -1.2488 -1.8378  2.3517
10657TIP3   OH253385   3.305   2.513  11.783  0.2050  0.8406 -0.1033
10657TIP3    H153386   3.397   2.514  11.759 -0.1601  1.0365 -1.5167
10657TIP3    H253387   3.258   2.523  11.700 -1.1364 -1.9585  0.2674
10658TIP3   OH253388   3.455   2.721  15.304 -0.1812  0.0012  0.3960
10658TIP3    H153389   3.476   2.688  15.216  1.8179  0.3588  0.7093
10658TIP3    H253390   3.488   2.653  15.363  0.3806  0.7263  0.9189
10659TIP3   OH253391   1.950   1.263  16.419 -0.2392  0.2309 -0.8153
10659TIP3    H153392   1.974   1.285  16.509 -0.5700  0.0233 -0.6749
10659TIP3    H253393   1.905   1.178  16.427 -0.8558  0.5287 -1.0952
10660TIP3   OH253394   0.925   6.171   4.785  0.1759 -0.1028  0.6167
10660TIP3    H153395   0.879   6.174   4.702  0.9882 -0.4482  0.1454
10660TIP3    H253396   0.998   6.232   4.775  0.2741 -0.1399  1.0751
10661TIP3   OH253397   1.185   6.558   0.403  0.8328  0.2241  0.3900
10661TIP3    H153398   1.231   6.557   0.319 -0.6223  1.1259 -0.4483
10661TIP3    H253399   1.137   6.641   0.403  0.0781 -0.1918  1.7046
10662TIP3   OH253400   0.576   6.023  14.670 -0.2834  0.0937  0.1888
10662TIP3    H153401   0.578   6.118  14.675 -2.4853  0.1198  1.2019
10662TIP3    H253402   0.544   6.004  14.582  1.1333  0.2562 -0.3731
10663TIP3   OH253403   0.924   1.685  16.202  0.0866 -0.1763 -1.2969
10663TIP3    H153404   1.009   1.659  16.167  1.0444  0.2112  0.6545
10663TIP3    H253405   0.899   1.613  16.261  0.8926  1.4353  1.0868
10664TIP3   OH253406   3.622   0.763  13.901  0.3493  0.2252  0.2310
10664TIP3    H153407   3.680   0.833  13.932 -1.6224  1.8781  0.2873
10664TIP3    H253408   3.606   0.709  13.978  1.4747 -0.0268  0.3046
10665TIP3   OH253409   3.434   0.087   2.327 -0.0809 -0.7525  0.5397
10665TIP3    H153410   3.525   0.066   2.304  0.0611 -2.0126  2.1506
10665TIP3    H253411   3.389   0.094   2.243  1.7633  1.1636 -0.3447
10666TIP3   OH253412   2.290   2.209   0.276 -0.5983  0.0630 -0.0552
10666TIP3    H153413   2.372   2.178   0.236 -0.9114  0.4045 -0.9873
10666TIP3    H253414   2.311   2.219   0.369  0.2498 -0.4293 -0.1830
10667TIP3   OH253415   4.198   3.065  15.860 -0.6717  0.1301 -0.1299
10667TIP3    H153416   4.152   3.002  15.805 -2.4447  1.1012  0.1993
10667TIP3    H253417   4.161   3.052  15.947  1.6241 -0.9246  0.7257
10668TIP3   OH253418   0.043   5.868   1.618 -0.6082  0.6774  0.3414
10668TIP3    H153419  -0.043   5.886   1.656 -0.7222  2.4116 -0.6939
10668TIP3    H253420   0.031   5.883   1.524  1.1959  2.3540  0.3589
10669TIP3   OH253421   3.624   2.816   5.768 -0.2014 -0.1790  0.6537
10669TIP3    H153422   3.714   2.786   5.776  0.9591  2.5723 -1.0266
10669TIP3    H253423   3.600   2.845   5.856 -0.0154 -2.2858  1.4368
10670TIP3   OH253424   5.067   5.872   2.445  0.7442  1.1649 -0.2959
10670TIP3    H153425   5.026   5.938   2.501 -0.4997  0.7267 -0.6878
10670TIP3    H253426   5.068   5.792   2.498 -1.2092  0.5309 -1.1915
10671TIP3   OH253427   3.955   0.304  10.574 -0.4894 -0.6350 -0.4556
10671TIP3    H153428   4.017   0.353  10.628 -3.1908  2.8219 -0.2908
10671TIP3    H253429   3.965   0.213  10.602 -0.3895  0.7787  4.4512
10672TIP3   OH253430   1.615   3.997  11.643 -0.3367  0.1835  0.3883
10672TIP3    H153431   1.533   4.037  11.674 -0.7719 -0.0746 -0.4165
10672TIP3    H253432   1.592   3.960  11.558  0.2544 -1.1312  0.7963
10673TIP3   OH253433   5.372   1.643   0.390 -0.0930  0.0139 -0.5870
10673TIP3    H153434   5.397   1.551   0.399 -0.5479 -0.2352 -1.7760
10673TIP3    H253435   5.285   1.648   0.429  0.1653  0.0537 -0.0179
10674TIP3   OH253436   5.777   4.250  15.729  0.1070  0.5384  0.1620
10674TIP3    H153437   5.717   4.202  15.673  1.2208 -1.0369  0.2758
10674TIP3    H253438   5.723   4.316  15.773 -0.9774  1.0294 -1.8631
10675TIP3   OH253439   0.574   3.627  14.562 -0.6456 -0.0448  0.4120
10675TIP3    H153440   0.615   3.633  14.649  0.1536  0.2779  0.0147
10675TIP3    H253441   0.540   3.715  14.545 -0.4800 -0.0140  0.2380
10676TIP3   OH253442   0.877   3.665   2.023 -0.7101 -0.9650  0.1733
10676TIP3    H153443   0.904   3.728   2.090 -1.2413  1.1108 -1.4930
10676TIP3    H253444   0.783   3.680   2.011 -0.8060 -1.9297 -0.3922
10677TIP3   OH253445   3.329   5.436   5.022 -0.0974 -0.0322  0.0017
10677TIP3    H153446   3.331   5.496   5.097 -0.5073  1.9567 -1.5437
10677TIP3    H253447   3.421   5.418   5.004  0.0704  0.8500 -0.0622
10678TIP3   OH253448   5.461   1.687  16.895  0.1425  0.5243  0.0471
10678TIP3    H153449   5.512   1.737  16.831 -1.5935  0.0602 -1.7712
10678TIP3    H253450   5.417   1.754  16.947  0.2955  0.9163 -0.3185
10679TIP3   OH253451   6.296   5.313   2.948 -0.5574 -0.6393  0.2176
10679TIP3    H153452   6.263   5.225   2.965 -0.3742 -0.3778  2.0036
10679TIP3    H253453   6.391   5.302   2.940 -0.6198 -0.7250 -0.4675
10680TIP3   OH253454   3.806   5.315  11.130  0.5337  0.3722  0.2941
10680TIP3    H153455   3.854   5.283  11.054  0.4538  0.7614  0.0803
10680TIP3    H253456   3.728   5.259  11.135  0.5745  0.3029  0.1292
10681TIP3   OH253457   0.219   3.463  12.185 -0.1231  0.1522  0.5213
10681TIP3    H153458   0.273   3.387  12.206 -0.9492 -0.4003  0.6497
10681TIP3    H253459   0.129   3.433  12.196 -0.5445  0.4353 -1.8146
10682TIP3   OH253460   1.563   0.676  13.448 -0.4757  0.3477 -0.5884
10682TIP3    H153461   1.489   0.731  13.421 -1.2724  0.4300  1.5922
10682TIP3    H253462   1.587   0.710  13.534  0.5639 -1.2066 -0.2471
10683TIP3   OH253463   0.732   6.669   4.038 -0.3716 -0.2767  0.3976
10683TIP3    H153464   0.702   6.758   4.021  1.8687  0.3325 -0.6199
10683TIP3    H253465   0.737   6.663   4.133 -1.5589  0.3189  0.5061
10684TIP3   OH253466   5.573   5.485   5.383  0.0926  0.0609  0.1730
10684TIP3    H153467   5.651   5.525   5.344 -0.3926  0.8549 -0.0044
10684TIP3    H253468   5.530   5.440   5.310  1.2204 -1.7246  0.6013
10685TIP3   OH253469   6.753   4.885   5.993 -0.3061 -0.3526 -0.3794
10685TIP3    H153470   6.706   4.828   6.053  0.3655 -0.6901 -0.1631
10685TIP3    H253471   6.842   4.890   6.030  0.3936 -1.3690 -1.8628
10686TIP3   OH253472   3.249   1.799  15.896  0.0001  0.0294 -0.7570
10686TIP3    H153473   3.243   1.893  15.880 -1.3907 -0.0764 -0.9746
10686TIP3    H253474   3.293   1.764  15.818  1.7506  0.6570 -0.0540
10687TIP3   OH253475   0.335   4.974  12.133 -0.5262  0.5294 -0.2283
10687TIP3    H153476   0.254   4.982  12.184 -1.1615  2.6055 -1.5253
10687TIP3    H253477   0.366   5.064  12.123  2.5567 -0.3277  1.1812
10688TIP3   OH253478   2.741   2.106   1.811  0.1124  0.3302  0.0315
10688TIP3    H153479   2.675   2.153   1.862 -1.0413  0.0538 -1.1787
10688TIP3    H253480   2.736   2.016   1.843  1.0183  0.6262  1.0404
10689TIP3   OH253481   1.676   0.503   0.864 -0.0238  0.3460 -0.2796
10689TIP3    H153482   1.643   0.564   0.798  0.5275  1.2933  0.2985
10689TIP3    H253483   1.610   0.434   0.868 -0.1338  0.3356 -1.7216
10690TIP3   OH253484   1.832   0.070   6.266 -0.1697 -0.2585  1.0657
10690TIP3    H153485   1.926   0.064   6.250 -0.1131 -0.7389  1.5419
10690TIP3    H253486   1.812   0.164   6.259  0.6258  0.0372  2.4536
10691TIP3   OH253487   5.339   4.211   3.778 -0.7710  0.0264 -0.0782
10691TIP3    H153488   5.400   4.198   3.850 -0.2506  0.5018 -0.4274
10691TIP3    H253489   5.342   4.130   3.729 -0.3560  0.0769 -0.1399
10692TIP3   OH253490   2.094   4.955  11.061 -0.6853  0.0158 -0.1406
10692TIP3    H153491   2.160   5.021  11.037 -0.3139 -0.6143 -0.8561
10692TIP3    H253492   2.096   4.955  11.157 -0.3072  0.6625 -0.1389
10693TIP3   OH253493   2.516   0.529   4.922  0.2251 -0.2290 -0.0655
10693TIP3    H153494   2.552   0.530   5.011 -0.4396 -0.1404  0.2067
10693TIP3    H253495   2.542   0.613   4.884  0.6488 -0.3361 -0.0107
10694TIP3   OH253496   1.284   2.205  12.537  0.4185  0.6836 -0.3072
10694TIP3    H153497   1.297   2.142  12.467  2.5912  0.2765  0.4209
10694TIP3    H253498   1.320   2.287  12.504  0.7335  0.6838  0.0284
10695TIP3   OH253499   6.430   4.744   5.643  0.0212 -0.1213 -0.0271
10695TIP3    H153500   6.471   4.778   5.563  0.8424 -2.1109 -0.4636
10695TIP3    H253501   6.345   4.788   5.646  1.5352  2.9876  0.1307
10696TIP3   OH253502   0.382   2.158   5.617 -0.1433 -0.3854  0.2800
10696TIP3    H153503   0.448   2.110   5.566 -0.6490 -1.1647  0.3517
10696TIP3    H253504   0.371   2.107   5.697 -0.2772  0.1553  0.6105
10697TIP3   OH253505   6.089   6.556   4.091 -0.3729  0.0884 -0.0639
10697TIP3    H153506   6.022   6.538   4.026 -0.2931  2.2127 -0.7772
10697TIP3    H253507   6.151   6.614   4.047  2.2221 -2.1976  0.4202
10698TIP3   OH253508   6.519   3.939  17.057  0.1142  0.3751 -0.1611
10698TIP3    H153509   6.596   3.882  17.066  1.4395  2.0357 -0.6562
10698TIP3    H253510   6.521   3.967  16.966 -2.3265 -1.2396 -0.7488
10699TIP3   OH253511   2.832   5.789   4.622  0.0013  0.1587 -0.4311
10699TIP3    H153512   2.790   5.872   4.599  0.6219  0.4561 -0.5248
10699TIP3    H253513   2.868   5.757   4.539 -0.7222 -0.4834 -0.4947
10700TIP3   OH253514   2.907   5.506  11.210  0.1575  0.2415  0.5506
10700TIP3    H153515   2.961   5.491  11.287 -0.0098  0.8235  0.7866
10700TIP3    H253516   2.961   5.561  11.153  0.2087 -0.0313  0.3360
10701TIP3   OH253517   1.215   3.363   5.548 -0.0904  0.2295  0.5693
10701TIP3    H153518   1.238   3.342   5.458 -2.1307 -0.0400  0.1053
10701TIP3    H253519   1.293   3.407   5.582  0.8907 -0.1239 -1.1520
10702TIP3   OH253520   4.431   5.684   4.327  0.2808 -0.1875  0.0219
10702TIP3    H153521   4.500   5.647   4.383  0.4697 -0.1685 -0.2011
10702TIP3    H253522   4.358   5.697   4.387  0.0044 -1.4907 -0.0092
10703TIP3   OH253523   4.476   5.301   4.735 -0.1356 -0.5900 -0.2519
10703TIP3    H153524   4.495   5.377   4.680 -3.0512  0.5619  0.2726
10703TIP3    H253525   4.469   5.228   4.674  1.3449 -0.2094 -0.8975
10704TIP3   OH253526   3.162   2.404   1.891  0.2900  0.6137 -0.1955
10704TIP3    H153527   3.089   2.425   1.832 -0.3288  0.6964  0.5866
10704TIP3    H253528   3.162   2.476   1.954  0.0694 -0.1993  0.7302
10705TIP3   OH253529   2.471   4.954   2.572 -0.1059 -0.0809 -0.3557
10705TIP3    H153530   2.509   4.996   2.496  0.3278  0.2561  0.0444
10705TIP3    H253531   2.529   4.978   2.645 -0.0364 -1.0852 -0.0666
10706TIP3   OH253532   1.894   4.767   2.407 -0.0774 -0.4065 -0.3672
10706TIP3    H153533   1.813   4.729   2.372  0.8187 -2.2467 -0.5015
10706TIP3    H253534   1.918   4.710   2.479  1.3009 -0.0751 -0.5576
10707TIP3   OH253535   0.082   3.272   3.187  0.2404 -0.0779 -0.4199
10707TIP3    H153536   0.094   3.193   3.133  2.1065  0.0186 -0.1673
10707TIP3    H253537   0.152   3.268   3.252  0.0659  1.5640 -0.1065
10708TIP3   OH253538   2.192   5.918   3.488 -0.1564 -0.2186 -0.2172
10708TIP3    H153539   2.230   5.916   3.400  2.1018 -0.6292  0.7413
10708TIP3    H253540   2.252   5.971   3.539 -0.7658 -1.0691  1.4046
10709TIP3   OH253541   1.135   2.256  12.198 -0.5137 -0.1839  0.2604
10709TIP3    H153542   1.176   2.198  12.263 -1.5428  0.0012  1.1110
10709TIP3    H253543   1.046   2.221  12.189 -0.9490  0.8713  0.3161
10710TIP3   OH253544   4.843   1.608  16.267  0.1148  0.4085  0.3934
10710TIP3    H153545   4.868   1.527  16.222  0.5990 -0.6955  2.5706
10710TIP3    H253546   4.760   1.587  16.309  0.3872  0.9394  1.2051
10711TIP3   OH253547   5.604   4.444   3.132 -0.8231  0.1141 -0.1260
10711TIP3    H153548   5.681   4.407   3.089  0.6578 -0.2470  2.7321
10711TIP3    H253549   5.577   4.377   3.194 -1.9978  1.2189  0.5654
10712TIP3   OH253550   5.746   1.710   0.924  0.1493  0.0031 -0.2626
10712TIP3    H153551   5.776   1.756   0.846 -2.4402  0.9827 -0.7601
10712TIP3    H253552   5.712   1.779   0.981 -0.3154 -0.9275  0.6174
10713TIP3   OH253553   3.442   0.124  11.091  0.1290  0.3799  0.5742
10713TIP3    H153554   3.527   0.149  11.055  0.0066 -0.9489 -0.7151
10713TIP3    H253555   3.378   0.161  11.031 -0.1696  0.6282  1.0454
10714TIP3   OH253556   0.085   2.247   2.388  0.2549 -0.1479 -0.2230
10714TIP3    H153557   0.122   2.313   2.329  1.4958 -0.3540  0.3001
10714TIP3    H253558   0.092   2.287   2.475 -2.9814  0.8112 -0.3135
10715TIP3   OH253559   1.339   3.430   2.805  0.2662  0.4183 -0.0553
10715TIP3    H153560   1.337   3.340   2.836  2.0954  0.5779  0.5866
10715TIP3    H253561   1.298   3.481   2.875  0.4973  0.2556  0.1970
10716TIP3   OH253562   4.819   0.780   4.395  0.2442 -0.4115 -0.2857
10716TIP3    H153563   4.822   0.812   4.305 -0.2400 -1.4060 -0.6646
10716TIP3    H253564   4.909   0.790   4.427  0.4003  0.0174 -0.8540
10717TIP3   OH253565   5.562   2.245  15.696 -0.5529 -0.3075 -0.4485
10717TIP3    H153566   5.595   2.328  15.661 -2.5817 -0.2202 -2.2277
10717TIP3    H253567   5.468   2.246  15.678 -0.4967 -3.3259 -1.2386
10718TIP3   OH253568   3.639   5.061   1.888 -0.4026  0.6756  0.3760
10718TIP3    H153569   3.729   5.038   1.908 -0.3029  0.3710 -0.4334
10718TIP3    H253570   3.618   5.014   1.808 -1.6840 -0.2351  1.2178
10719TIP3   OH253571   0.262   4.894  11.727 -0.2845  0.0649 -0.0828
10719TIP3    H153572   0.214   4.977  11.721  1.5455  1.1708  0.2216
10719TIP3    H253573   0.354   4.919  11.716  0.3975 -1.7466  1.3614
10720TIP3   OH253574   0.357   2.627   5.383  0.6972  0.0309  0.0943
10720TIP3    H153575   0.351   2.607   5.290  1.0720  1.0261 -0.1508
10720TIP3    H253576   0.282   2.581   5.422  0.1648  0.1374 -0.7842
10721TIP3   OH253577   2.487   5.036  11.694  0.1174  0.2925 -0.6677
10721TIP3    H153578   2.576   5.017  11.664  0.1605  0.4463 -0.6402
10721TIP3    H253579   2.471   5.125  11.662  0.5522  0.8509  0.6561
10722TIP3   OH253580   1.271   2.015  14.003  0.1906 -0.2377  0.0421
10722TIP3    H153581   1.296   2.051  13.918 -0.4864  0.6115  0.1980
10722TIP3    H253582   1.179   2.042  14.015  0.3089 -0.2619  1.0846
10723TIP3   OH253583   2.181   6.460  12.090 -0.5159  0.3763 -0.4447
10723TIP3    H153584   2.243   6.523  12.125  0.0654  0.8492 -2.2764
10723TIP3    H253585   2.106   6.512  12.062  0.3960  0.4371 -2.9299
10724TIP3   OH253586   4.116   5.249  15.009 -0.1081 -0.0349  0.6093
10724TIP3    H153587   4.058   5.288  15.075 -0.5171  0.5607 -0.0940
10724TIP3    H253588   4.119   5.314  14.939  0.5072 -0.5669  0.1402
10725TIP3   OH253589   5.697   6.323   2.349  0.3199  0.1033 -0.1205
10725TIP3    H153590   5.693   6.265   2.273  0.4886 -0.2831  0.1628
10725TIP3    H253591   5.621   6.300   2.401  1.5835 -1.4342  1.1047
10726TIP3   OH253592   2.563   6.581   3.342 -0.0555  0.6684 -0.6637
10726TIP3    H153593   2.492   6.559   3.402  1.6335 -0.6586  0.9409
10726TIP3    H253594   2.628   6.625   3.398  1.9699 -1.4315 -1.2814
10727TIP3   OH253595   5.769   3.489   4.356  0.0859 -0.3041  0.0346
10727TIP3    H153596   5.711   3.455   4.424 -0.4246 -1.0087 -0.7403
10727TIP3    H253597   5.714   3.544   4.301  0.3315 -0.3107 -0.2239
10728TIP3   OH253598   2.141   2.410  13.066 -0.3439  0.4669 -0.1097
10728TIP3    H153599   2.074   2.478  13.077 -0.4416  0.4683 -0.6711
10728TIP3    H253600   2.153   2.404  12.971  0.4729  0.4812 -0.0115
10729TIP3   OH253601   4.315   5.071   3.435 -0.1711  0.0513 -0.2791
10729TIP3    H153602   4.221   5.068   3.451 -0.6510  0.7769 -2.6764
10729TIP3    H253603   4.343   5.155   3.472 -0.8653  0.7950 -1.4261
10730TIP3   OH253604   2.129   3.997   4.931  0.0706 -0.7581  0.4662
10730TIP3    H153605   2.044   3.986   4.974 -0.5096  1.8138  0.0451
10730TIP3    H253606   2.189   4.018   5.002 -0.5329  1.7183  0.2717
10731TIP3   OH253607   0.571   4.188  15.835 -0.2114  0.7828 -0.2350
10731TIP3    H153608   0.643   4.239  15.798  1.8592 -1.3954  0.6671
10731TIP3    H253609   0.613   4.111  15.874 -2.9528 -0.1611  1.0092
10732TIP3   OH253610   5.560   4.940   0.087 -0.8546 -0.3578  0.2630
10732TIP3    H153611   5.469   4.932   0.057 -0.7976 -2.9670  0.6262
10732TIP3    H253612   5.553   4.961   0.180 -1.0719  0.4528  0.0657
10733TIP3   OH253613   4.913   5.890   2.187 -0.0069 -0.2833 -0.0596
10733TIP3    H153614   4.946   5.862   2.101  1.0326 -3.3723  1.2762
10733TIP3    H253615   4.990   5.885   2.244 -0.1288  4.0144  0.6309
10734TIP3   OH253616   6.246   0.447  16.192 -0.2340  0.4599 -0.5651
10734TIP3    H153617   6.255   0.474  16.284 -0.3053 -1.8280  0.1602
10734TIP3    H253618   6.157   0.411  16.187  0.0017 -0.0198 -1.3584
10735TIP3   OH253619   2.530   5.892   4.382  0.3437  0.3089 -0.3456
10735TIP3    H153620   2.470   5.825   4.414  0.0385  0.4765 -0.5635
10735TIP3    H253621   2.601   5.843   4.340 -0.1230  0.1317 -0.9334
10736TIP3   OH253622   3.236   4.767   4.901  0.1456 -0.3115 -0.4639
10736TIP3    H153623   3.222   4.673   4.889 -2.2500 -0.2510  1.4644
10736TIP3    H253624   3.256   4.777   4.994  1.7185  0.9598 -0.9140
10737TIP3   OH253625   6.340   3.693  16.079 -0.2814 -0.0290  0.0840
10737TIP3    H153626   6.270   3.648  16.033  1.2112  0.0872 -2.3773
10737TIP3    H253627   6.322   3.786  16.066 -0.2481  0.0147  0.3411
10738TIP3   OH253628   1.173   5.289   1.883  0.2801 -0.6425  0.8160
10738TIP3    H153629   1.103   5.237   1.844 -0.4607  0.2131  0.9976
10738TIP3    H253630   1.253   5.249   1.849 -0.3344  0.0741 -1.6587
10739TIP3   OH253631   1.136   2.391  15.801  0.6220 -0.4059 -0.0025
10739TIP3    H153632   1.054   2.421  15.841  0.6928 -0.6671  0.3446
10739TIP3    H253633   1.179   2.472  15.772  0.2597 -0.2661 -0.1491
10740TIP3   OH253634   0.796   2.800   6.251 -0.3566  0.4883 -0.3138
10740TIP3    H153635   0.869   2.805   6.314  0.8729  0.2200 -1.6876
10740TIP3    H253636   0.805   2.878   6.197  0.1722 -0.5954 -1.8185
10741TIP3   OH253637   5.578   0.950  12.169  0.3836  0.0742 -0.1819
10741TIP3    H153638   5.556   0.988  12.084  1.6748 -1.7574 -1.3736
10741TIP3    H253639   5.636   1.013  12.210 -0.2117  0.9497 -0.6693
10742TIP3   OH253640   1.915   5.977   0.166 -0.2809  0.3468 -0.0244
10742TIP3    H153641   1.959   5.956   0.084 -0.2499  0.7109 -0.0980
10742TIP3    H253642   1.888   5.892   0.200 -1.8890  0.3250 -1.3010
10743TIP3   OH253643   5.522   1.929  14.148 -0.3355  0.2595 -0.2290
10743TIP3    H153644   5.552   2.012  14.187  0.7347 -0.0204 -0.4352
10743TIP3    H253645   5.581   1.915  14.074 -1.5637  0.1381 -1.1996
10744TIP3   OH253646   5.356   4.451   0.680 -0.1063  0.2848  0.3769
10744TIP3    H153647   5.439   4.424   0.642 -0.2054  0.2219  0.2004
10744TIP3    H253648   5.312   4.369   0.702 -0.3932  0.3030 -0.1262
10745TIP3   OH253649   0.207   5.557   4.433  0.4218 -0.3245 -0.1872
10745TIP3    H153650   0.128   5.611   4.427 -1.1685 -2.2068  2.4499
10745TIP3    H253651   0.184   5.489   4.497  2.3212 -4.1195 -3.3016
10746TIP3   OH253652   1.553   3.882   4.615  0.6093  0.2269 -0.0605
10746TIP3    H153653   1.645   3.880   4.638  0.4516 -2.1466  0.5024
10746TIP3    H253654   1.527   3.790   4.611 -1.4464  0.8243 -1.3648
10747TIP3   OH253655   5.544   0.467   4.709 -0.2807 -0.0780 -0.7087
10747TIP3    H153656   5.520   0.430   4.624 -1.5810 -2.5063  0.6509
10747TIP3    H253657   5.472   0.442   4.767 -0.4430  3.3230  0.6852
10748TIP3   OH253658   4.227   5.377  10.939 -0.3277  0.0090  0.0640
10748TIP3    H153659   4.276   5.458  10.954 -0.3795 -0.3828  2.5184
10748TIP3    H253660   4.135   5.403  10.941 -0.3246  0.4919 -3.0539
10749TIP3   OH253661   5.398   0.178  13.020 -0.1868  0.1169 -0.1435
10749TIP3    H153662   5.454   0.116  12.972  1.4756  0.4599  1.3008
10749TIP3    H253663   5.383   0.250  12.957  0.5175 -0.2516 -0.7448
10750TIP3   OH253664   6.178   2.157  16.130  0.2179 -0.2516 -0.0078
10750TIP3    H153665   6.159   2.121  16.217  1.4646 -0.8919  0.0118
10750TIP3    H253666   6.195   2.081  16.075  0.3074  0.1941 -0.6072
10751TIP3   OH253667   5.112   3.224   1.222 -0.3696  0.5635  0.1023
10751TIP3    H153668   5.106   3.289   1.152  1.5733  0.2611 -0.3888
10751TIP3    H253669   5.022   3.209   1.250 -1.1118  1.1867 -1.8896
10752TIP3   OH253670   5.343   3.769  11.535 -0.0446  0.5770  0.3066
10752TIP3    H153671   5.298   3.691  11.567 -0.9905 -0.3451 -3.0769
10752TIP3    H253672   5.272   3.828  11.508  0.6914  1.6843  0.7748
10753TIP3   OH253673   0.202   4.327  13.025  0.1970 -0.1606 -0.6134
10753TIP3    H153674   0.238   4.238  13.022 -1.2215 -0.7707  0.0738
10753TIP3    H253675   0.192   4.346  13.118 -0.5316  0.2918 -0.7749
10754TIP3   OH253676   0.569   0.751   4.983 -0.5108  0.5834 -0.2951
10754TIP3    H153677   0.603   0.810   5.051 -1.8062 -0.2972  1.1386
10754TIP3    H253678   0.483   0.787   4.961 -1.2438 -0.6570  0.4752
10755TIP3   OH253679   4.384   5.384   5.141  0.5073  0.2598  0.1282
10755TIP3    H153680   4.478   5.394   5.125  0.8687  0.0476  1.9171
10755TIP3    H253681   4.352   5.474   5.147  0.4445  0.3335 -1.2775
10756TIP3   OH253682   3.080   5.463   4.897  0.0271 -0.0547 -0.4621
10756TIP3    H153683   3.083   5.391   4.834  0.7201 -0.6655  0.2565
10756TIP3    H253684   3.165   5.461   4.940  0.0146  1.1418 -0.3615
10757TIP3   OH253685   4.514   2.586   2.352 -0.2659  0.6220  0.9199
10757TIP3    H153686   4.518   2.655   2.418 -1.6213  1.9189 -0.2908
10757TIP3    H253687   4.521   2.633   2.268 -1.8600 -0.6259  0.0515
10758TIP3   OH253688   0.227   6.240   1.673  0.0081 -0.0736 -0.0411
10758TIP3    H153689   0.248   6.332   1.659  0.4502 -0.3343 -1.0592
10758TIP3    H253690   0.310   6.199   1.697 -0.1518 -0.2539  0.2137
10759TIP3   OH253691   3.097   2.098   2.361  0.2344 -0.4505 -0.2057
10759TIP3    H153692   3.182   2.110   2.321  0.2619 -2.0236 -0.6597
10759TIP3    H253693   3.115   2.045   2.440 -0.3858 -1.3834 -0.6762
10760TIP3   OH253694   5.460   2.836   5.616  0.0701 -0.1189  0.2307
10760TIP3    H153695   5.547   2.828   5.578  0.3874  1.3857  0.6059
10760TIP3    H253696   5.400   2.807   5.548  0.7718  0.4211 -0.6169
10761TIP3   OH253697   1.979   5.589  15.358  0.1606  0.0336 -0.2243
10761TIP3    H153698   1.969   5.619  15.267 -0.8387  2.0856  0.5198
10761TIP3    H253699   1.891   5.562  15.384  0.6482 -1.5439 -0.1896
10762TIP3   OH253700   2.554   3.354  15.821 -0.0694  0.1311  0.3633
10762TIP3    H153701   2.626   3.337  15.759 -0.8942 -2.5435  0.0881
10762TIP3    H253702   2.510   3.431  15.786  1.3734  0.5106 -0.6612
10763TIP3   OH253703   4.517   2.559  13.151  0.2222  0.2110  0.4202
10763TIP3    H153704   4.500   2.478  13.200  0.5135 -0.1095 -0.0116
10763TIP3    H253705   4.607   2.581  13.171 -0.2311  1.1115  1.5279
10764TIP3   OH253706   2.414   4.916   1.361 -0.4215  0.3186  0.3202
10764TIP3    H153707   2.464   4.962   1.429  0.0231 -0.7117  0.6989
10764TIP3    H253708   2.379   4.839   1.405  0.3811 -0.6856 -0.7602
10765TIP3   OH253709   1.508   0.142   5.872  0.0073 -0.5237 -0.0200
10765TIP3    H153710   1.567   0.216   5.886 -0.7283 -0.0288  0.4995
10765TIP3    H253711   1.486   0.147   5.779  1.7445 -1.4413 -0.4915
10766TIP3   OH253712   4.629   0.689   1.977  0.3106 -0.3321  0.0898
10766TIP3    H153713   4.646   0.782   1.985 -1.6812 -0.1329  2.8215
10766TIP3    H253714   4.538   0.683   1.949  0.1609 -1.4541  0.7567
10767TIP3   OH253715   1.647   2.768  13.856  0.4677  0.1575  0.1430
10767TIP3    H153716   1.599   2.693  13.821  1.7618 -0.6527  0.0667
10767TIP3    H253717   1.685   2.810  13.779  0.7323  0.1949  0.2952
10768TIP3   OH253718   1.503   2.008   5.193  0.3814 -0.7043 -0.2696
10768TIP3    H153719   1.551   2.018   5.111 -1.1439 -3.6957 -1.5979
10768TIP3    H253720   1.569   1.976   5.256  0.9254 -1.2708 -1.1192
10769TIP3   OH253721   3.297   4.458  16.581  0.2791 -0.1565  0.0969
10769TIP3    H153722   3.326   4.436  16.493 -1.9956 -0.6895 -0.5579
10769TIP3    H253723   3.326   4.384  16.635 -2.0160 -1.9108 -0.9997
10770TIP3   OH253724   2.866   3.256   4.543 -0.7536  0.3628 -0.3308
10770TIP3    H153725   2.817   3.260   4.625  0.3076 -0.6812  0.3679
10770TIP3    H253726   2.847   3.169   4.507  0.7451 -0.1481  0.0648
10771TIP3   OH253727   1.378   6.388  14.462 -0.0019  0.6229 -0.5642
10771TIP3    H153728   1.445   6.323  14.481 -0.0951  1.0940  1.5457
10771TIP3    H253729   1.424   6.456  14.413  0.8321  0.4500 -0.0311
10772TIP3   OH253730   1.028   1.455  12.904  0.2219 -0.2053 -0.1113
10772TIP3    H153731   1.009   1.368  12.941  0.2057 -0.8249 -1.5605
10772TIP3    H253732   1.040   1.439  12.811  0.1628  1.3717 -0.3935
10773TIP3   OH253733   2.232   4.602   2.726  0.3365 -0.3486  0.4310
10773TIP3    H153734   2.213   4.591   2.633 -0.4271  1.4241  0.3481
10773TIP3    H253735   2.297   4.534   2.746  1.4661  0.0567 -1.6906
10774TIP3   OH253736   6.475   0.292   0.732 -0.2199  0.4765  0.1456
10774TIP3    H153737   6.509   0.204   0.713  0.5233  0.7030  0.3883
10774TIP3    H253738   6.385   0.277   0.761 -0.1021 -0.2089  0.1767
10775TIP3   OH253739   2.446   3.600  15.721  0.1111  0.0463 -0.2295
10775TIP3    H153740   2.534   3.617  15.687 -0.6545  1.3795 -1.6119
10775TIP3    H253741   2.424   3.677  15.773 -1.4620  1.2019 -2.5067
10776TIP3   OH253742   1.702   6.495  15.477  0.5465  0.0006  0.5773
10776TIP3    H153743   1.676   6.433  15.545  0.6316  0.9820  1.5016
10776TIP3    H253744   1.725   6.575  15.524  0.6282  0.6803 -0.6001
10777TIP3   OH253745   2.860   3.855   5.657 -0.1610 -0.2944 -0.1141
10777TIP3    H153746   2.857   3.937   5.607 -3.0721 -0.5257 -0.4087
10777TIP3    H253747   2.846   3.882   5.748  0.7767 -0.3036  0.0396
10778TIP3   OH253748   6.201   2.145   1.131  0.1218  0.3089 -0.5295
10778TIP3    H153749   6.106   2.146   1.139  0.2210 -3.1844  2.2561
10778TIP3    H253750   6.218   2.092   1.053 -0.2297 -1.1183  0.3403
10779TIP3   OH253751   0.964   5.416  13.541 -0.6037 -0.4721 -0.5140
10779TIP3    H153752   0.910   5.426  13.462  0.7757 -1.4081 -1.5968
10779TIP3    H253753   1.048   5.384  13.508  0.3907  0.3216  1.2244
10780TIP3   OH253754   2.863   3.067  13.938  0.0845  0.5302 -0.4507
10780TIP3    H153755   2.897   3.103  14.019 -1.9780  0.1349  0.6092
10780TIP3    H253756   2.916   2.988  13.923  0.4300  0.5759  0.5173
10781TIP3   OH253757   6.379   1.583  14.745 -0.1697 -0.0821 -0.6107
10781TIP3    H153758   6.331   1.501  14.756  0.9020 -0.6544 -0.1581
10781TIP3    H253759   6.458   1.573  14.799 -1.0269  2.0529  1.1390
10782TIP3   OH253760   0.170   3.529  15.998 -0.0899 -0.4772 -0.1462
10782TIP3    H153761   0.187   3.455  16.057  0.8118  0.1299  0.3671
10782TIP3    H253762   0.186   3.607  16.052  0.9382  0.0898 -1.2450
10783TIP3   OH253763   6.564   0.470  13.540 -0.2032  0.0183 -0.4806
10783TIP3    H153764   6.481   0.477  13.493 -0.7773  0.5462  0.5940
10783TIP3    H253765   6.619   0.539  13.503  0.1582 -1.0462 -1.9724
10784TIP3   OH253766   5.619   2.429   2.869  0.9827  0.3581 -0.1638
10784TIP3    H153767   5.611   2.357   2.806  1.3370  0.4264 -0.2882
10784TIP3    H253768   5.691   2.402   2.926  1.5045  0.8845 -0.5728
10785TIP3   OH253769   2.202   3.006  10.667 -0.1225  0.0269  0.5102
10785TIP3    H153770   2.139   2.950  10.622 -0.2982  0.1983  0.5434
10785TIP3    H253771   2.282   2.998  10.615 -0.6902  1.2079 -0.5528
10786TIP3   OH253772   1.510   1.953   1.430  0.4559 -0.2285  0.5282
10786TIP3    H153773   1.563   1.907   1.496  0.4199 -3.1425 -1.3743
10786TIP3    H253774   1.573   1.997   1.374  0.6859 -0.9752  0.2016
10787TIP3   OH253775   6.200   4.913   5.654  0.2530  0.0927 -0.7049
10787TIP3    H153776   6.157   4.932   5.571 -2.5522  0.1554  0.6922
10787TIP3    H253777   6.132   4.925   5.720  1.5647 -2.9962  1.3491
10788TIP3   OH253778   6.750   2.004  15.783  0.4469 -0.3471  0.0686
10788TIP3    H153779   6.720   2.055  15.707 -0.5716  2.0220  2.0077
10788TIP3    H253780   6.836   2.041  15.804  0.1927 -0.1560  0.7969
10789TIP3   OH253781   0.058   5.872  15.162  0.0268  0.3564  0.3598
10789TIP3    H153782   0.110   5.925  15.222 -0.1853 -0.4245  1.2378
10789TIP3    H253783   0.111   5.793  15.148 -0.2348  0.2339  0.0531
10790TIP3   OH253784   4.566   2.984   3.406 -0.1791  0.0636  0.0389
10790TIP3    H153785   4.622   2.906   3.400 -0.0094  0.0126  1.9969
10790TIP3    H253786   4.575   3.026   3.321  1.3699 -0.9497 -0.3239
10791TIP3   OH253787   0.286   2.850   0.186 -0.4202 -0.3264  0.2174
10791TIP3    H153788   0.269   2.940   0.215 -0.6728 -0.2106 -0.2769
10791TIP3    H253789   0.273   2.853   0.091 -2.2211 -1.2756  0.4106
10792TIP3   OH253790   4.218   1.585  15.509 -0.1358  0.3352 -0.0574
10792TIP3    H153791   4.257   1.556  15.592 -0.8916  3.1443  1.3461
10792TIP3    H253792   4.138   1.532  15.501  1.0193 -1.4393 -0.0828
10793TIP3   OH253793   5.373   1.581  11.426 -0.1228  0.2904 -0.0891
10793TIP3    H153794   5.393   1.492  11.457 -0.9191 -0.2897 -1.2212
10793TIP3    H253795   5.458   1.625  11.426  0.5457 -0.9526 -1.0235
10794TIP3   OH253796   4.267   3.397  11.375  0.1826  1.0232  0.2331
10794TIP3    H153797   4.206   3.462  11.339 -0.8787 -0.0192  0.1023
10794TIP3    H253798   4.298   3.349  11.298  1.0044  1.3971  0.3236
10795TIP3   OH253799   6.203   2.113   0.813 -0.2127  0.7987 -0.2751
10795TIP3    H153800   6.146   2.155   0.749 -0.4307  1.4486  0.3312
10795TIP3    H253801   6.286   2.161   0.806 -0.0107  0.4125 -0.5592
10796TIP3   OH253802   4.787   3.797  16.933  0.0880 -0.5549  0.3067
10796TIP3    H153803   4.830   3.711  16.931  2.2891  0.4176  2.1402
10796TIP3    H253804   4.742   3.798  17.017 -1.1087 -0.4336 -0.3322
10797TIP3   OH253805   5.117   3.601   1.247 -0.3224  0.3683  0.3799
10797TIP3    H153806   5.204   3.633   1.223 -0.8595  0.4788 -1.5701
10797TIP3    H253807   5.095   3.539   1.177 -1.9794  0.6742  0.6240
10798TIP3   OH253808   6.579   0.018  16.338 -0.5513  0.0158  0.4096
10798TIP3    H153809   6.573  -0.045  16.409  0.3931 -0.0836  0.4067
10798TIP3    H253810   6.488   0.031  16.310 -0.7575 -1.2648  0.4626
10799TIP3   OH253811   3.577   3.132  11.588 -0.4323 -0.6624 -0.0187
10799TIP3    H153812   3.652   3.140  11.529  0.2306 -0.4276  0.8414
10799TIP3    H253813   3.501   3.150  11.533  0.3343  1.7367 -0.3568
10800TIP3   OH253814   4.601   1.714  12.468  0.3765 -0.2601 -0.3087
10800TIP3    H153815   4.690   1.744  12.449  1.6569 -2.4022  1.9356
10800TIP3    H253816   4.556   1.792  12.501  0.4933  1.5319 -4.1679
10801TIP3   OH253817   1.795   1.383   6.641 -0.7077  0.9858 -0.8560
10801TIP3    H153818   1.853   1.456   6.664 -1.8039  1.1515  1.5054
10801TIP3    H253819   1.742   1.418   6.569 -1.0844  2.4770  0.1066
10802TIP3   OH253820   2.020   5.874  15.004  0.3341 -0.1808 -0.4346
10802TIP3    H153821   1.977   5.956  15.028 -0.2254 -0.6511  0.1866
10802TIP3    H253822   1.954   5.825  14.955  0.8722 -0.0014 -1.3396
10803TIP3   OH253823   1.357   1.870  13.403 -0.1412  0.0145  0.3943
10803TIP3    H153824   1.433   1.908  13.359  0.9021 -2.6650 -0.1621
10803TIP3    H253825   1.298   1.845  13.332 -0.7508  0.3961  0.7581
10804TIP3   OH253826   6.432   4.314  16.528 -0.0341  0.4843 -0.0809
10804TIP3    H153827   6.394   4.365  16.599  0.9762  0.5175  0.4344
10804TIP3    H253828   6.406   4.224  16.546  1.0957  0.3543  0.8982
10805TIP3   OH253829   2.894   0.411   2.922  0.1015  0.5236 -0.2191
10805TIP3    H153830   2.982   0.378   2.908 -0.1920 -1.1699  1.7184
10805TIP3    H253831   2.841   0.368   2.856 -0.0192 -1.8696  1.3702
10806TIP3   OH253832   5.838   5.378  16.029 -0.8519 -0.9817 -0.1414
10806TIP3    H153833   5.912   5.418  16.074 -0.9116 -1.1039  0.0651
10806TIP3    H253834   5.839   5.417  15.942 -1.3345  0.0100  0.2900
10807TIP3   OH253835   6.509   3.228   1.434  0.5126  0.1547  0.0597
10807TIP3    H153836   6.466   3.307   1.470 -0.6870 -0.1657 -0.6424
10807TIP3    H253837   6.540   3.255   1.348 -0.7608 -0.4087 -0.5842
10808TIP3   OH253838   4.410   3.865   4.748 -0.6351  0.4507 -0.4305
10808TIP3    H153839   4.379   3.820   4.670 -0.0777  0.1448 -0.4777
10808TIP3    H253840   4.427   3.955   4.719  0.7038  0.0425 -0.9496
10809TIP3   OH253841   3.709   3.476   2.491 -0.2979  0.6414  0.1129
10809TIP3    H153842   3.667   3.485   2.405  0.7231  2.9668 -0.2008
10809TIP3    H253843   3.638   3.486   2.554 -1.0931 -1.3116 -0.4295
10810TIP3   OH253844   3.011   6.638  16.213  0.5078 -0.1497  0.2116
10810TIP3    H153845   3.039   6.623  16.122  0.3868  0.0935  0.1338
10810TIP3    H253846   2.939   6.576  16.227 -1.0899  1.4766 -0.6339
10811TIP3   OH253847   5.620   6.015  11.902 -0.1554  0.2922 -0.1476
10811TIP3    H153848   5.593   5.941  11.956 -0.9437  1.1434  0.6463
10811TIP3    H253849   5.708   6.037  11.932  0.7942 -1.4370 -1.6023
10812TIP3   OH253850   4.689   3.049  11.120  0.1515 -0.5976 -0.0668
10812TIP3    H153851   4.714   3.113  11.053  2.4266  1.3403  2.5122
10812TIP3    H253852   4.763   2.988  11.123 -0.0617 -0.8291  0.5005
10813TIP3   OH253853   1.239   2.851  11.600 -0.3213 -0.7223  0.2007
10813TIP3    H153854   1.305   2.884  11.661 -0.0392  0.0631 -0.5290
10813TIP3    H253855   1.160   2.841  11.654  0.0009 -0.2905  0.7563
10814TIP3   OH253856   6.620   5.547  12.860  0.5740 -0.1040 -0.2740
10814TIP3    H153857   6.613   5.474  12.921  0.0595 -1.0418 -1.4335
10814TIP3    H253858   6.554   5.530  12.793  0.3414  1.5103 -0.4860
10815TIP3   OH253859   3.762   3.141  12.148 -0.1256 -0.2433  0.4892
10815TIP3    H153860   3.746   3.047  12.141  0.6350 -0.3182 -0.4761
10815TIP3    H253861   3.714   3.179  12.074  1.9592 -0.2128 -0.9066
10816TIP3   OH253862   0.626   4.515  14.212  0.4009  0.2883  0.7859
10816TIP3    H153863   0.599   4.601  14.179 -2.2639 -0.8108 -0.0842
10816TIP3    H253864   0.581   4.507  14.296 -1.6271 -1.3359 -0.4059
10817TIP3   OH253865   1.498   3.361  14.593 -0.6405 -0.5357  0.0070
10817TIP3    H153866   1.465   3.359  14.682 -1.5302 -0.2954 -0.3031
10817TIP3    H253867   1.464   3.444  14.558  1.2403  0.2640  0.0253
10818TIP3   OH253868   1.857   4.097   5.515 -0.0703 -0.9467 -0.4737
10818TIP3    H153869   1.925   4.141   5.567 -0.9247  0.5214 -0.5797
10818TIP3    H253870   1.901   4.075   5.432  0.0571  0.7466 -0.8693
10819TIP3   OH253871   5.558   5.107  15.013  0.0997 -0.0987 -0.3551
10819TIP3    H153872   5.545   5.164  14.938  0.2070 -0.4555 -0.6439
10819TIP3    H253873   5.597   5.028  14.977 -0.5291 -0.5637 -0.0337
10820TIP3   OH253874   5.652   1.672   4.426  0.1114 -0.1345 -0.1755
10820TIP3    H153875   5.711   1.643   4.496 -0.7849  0.1138  0.6904
10820TIP3    H253876   5.706   1.670   4.347  0.3756 -3.1573  0.0340
10821TIP3   OH253877   2.049   0.266   0.334 -0.0472  0.1227 -0.2829
10821TIP3    H153878   2.100   0.318   0.272 -2.2185  0.9280 -1.4407
10821TIP3    H253879   2.035   0.183   0.290  2.1187 -0.9349  0.9474
10822TIP3   OH253880   3.793   1.397   1.560  0.1233 -0.0318  0.1071
10822TIP3    H153881   3.880   1.436   1.550 -0.6720  0.9996 -3.3722
10822TIP3    H253882   3.734   1.458   1.517 -2.0074 -1.9826  0.1712
10823TIP3   OH253883   0.172   5.136   5.210  0.1897 -0.3758  0.8891
10823TIP3    H153884   0.167   5.131   5.305 -0.5644  0.4593  0.8988
10823TIP3    H253885   0.088   5.102   5.179  0.8177 -1.5683  0.4900
10824TIP3   OH253886   1.308   1.650  15.437 -0.5232  0.6135 -0.6597
10824TIP3    H153887   1.218   1.647  15.407 -0.6509 -1.0561 -0.1337
10824TIP3    H253888   1.303   1.640  15.532  0.1885  0.7835 -0.5956
10825TIP3   OH253889   6.001   2.422   3.597 -0.1286 -0.1216 -0.1593
10825TIP3    H153890   5.914   2.409   3.636 -0.3541  0.3975 -0.4822
10825TIP3    H253891   5.988   2.406   3.503  0.1736 -0.2693 -0.1754
10826TIP3   OH253892   0.621   6.077  11.307 -0.3723  0.2468  0.3835
10826TIP3    H153893   0.623   6.125  11.224  2.8814 -2.7416 -1.3901
10826TIP3    H253894   0.528   6.073  11.330 -1.1721  2.6520 -2.1812
10827TIP3   OH253895   1.186   2.302   1.597  0.1122 -0.2041 -0.0294
10827TIP3    H153896   1.217   2.233   1.539  0.2088 -0.5749  0.4704
10827TIP3    H253897   1.265   2.349   1.623  0.0470  0.1067 -0.3711
10828TIP3   OH253898   6.209   2.581  15.428 -0.8108  0.3572  0.2597
10828TIP3    H153899   6.206   2.537  15.344 -3.9405 -0.1169  0.5622
10828TIP3    H253900   6.278   2.647  15.418  0.4789 -1.2466 -1.8459
10829TIP3   OH253901   6.608   5.252   2.815  0.1410  0.0631  0.3869
10829TIP3    H153902   6.608   5.179   2.878  0.4398  0.5429  0.9500
10829TIP3    H253903   6.594   5.330   2.869 -0.6191  0.3780 -0.2724
10830TIP3   OH253904   4.736   0.560   1.757 -0.0111  0.0659  0.2781
10830TIP3    H153905   4.706   0.627   1.818  2.7256  1.1810  0.5113
10830TIP3    H253906   4.747   0.481   1.810  1.2562  0.7251  1.0339
10831TIP3   OH253907   0.003   4.252   5.661  0.4463 -0.5616 -0.2830
10831TIP3    H153908   0.030   4.160   5.668  0.6358 -0.4926 -0.0996
10831TIP3    H253909  -0.022   4.276   5.750  0.5640 -0.3857 -0.2961
10832TIP3   OH253910   4.527   0.797   3.337 -0.3914  0.6153  0.1973
10832TIP3    H153911   4.463   0.788   3.266  1.1218  0.4369 -1.1691
10832TIP3    H253912   4.608   0.761   3.301  0.3609  0.3477  2.0944
10833TIP3   OH253913   0.096   0.958  14.608  0.7082  0.2857 -0.4389
10833TIP3    H153914   0.042   0.959  14.687  0.2962  1.8636 -0.7002
10833TIP3    H253915   0.170   1.015  14.629  0.8803  0.2704 -1.0004
10834TIP3   OH253916   3.222   1.943  16.862 -0.6440  0.1603 -0.0546
10834TIP3    H153917   3.298   1.890  16.888 -0.3252 -0.0417 -1.3835
10834TIP3    H253918   3.147   1.899  16.902 -0.0463  0.5116  1.4958
10835TIP3   OH253919   3.607   0.276   0.669 -0.4358 -0.7550  0.0601
10835TIP3    H153920   3.564   0.236   0.593 -0.9776 -0.1146  0.0256
10835TIP3    H253921   3.621   0.367   0.644  0.1868 -0.7526  0.3951
10836TIP3   OH253922   1.561   5.962   5.079 -0.1758 -0.1582 -0.1992
10836TIP3    H153923   1.518   5.945   5.163 -0.3638 -0.8369 -0.4266
10836TIP3    H253924   1.512   6.035   5.041 -0.3037 -0.0740  0.1327
10837TIP3   OH253925   3.973   5.368   4.179  0.1007 -0.3600  0.1299
10837TIP3    H153926   3.981   5.444   4.122  2.6677  0.0042  0.8751
10837TIP3    H253927   3.936   5.300   4.123  0.6221  0.5861 -1.4013
10838TIP3   OH253928   3.245   0.171   1.698 -0.3784 -0.2733  0.1828
10838TIP3    H153929   3.279   0.192   1.785 -1.6641 -0.7866  0.8166
10838TIP3    H253930   3.317   0.192   1.639 -0.0576  1.6586  1.2085
10839TIP3   OH253931   5.406   1.059   3.570  0.2604 -0.1717 -0.0685
10839TIP3    H153932   5.393   1.121   3.642 -1.0848 -0.0065 -0.4349
10839TIP3    H253933   5.453   1.109   3.503 -0.3175  0.2956 -0.1300
10840TIP3   OH253934   0.630   1.117  15.875  0.0160  0.0351  0.3918
10840TIP3    H153935   0.586   1.179  15.933 -2.3825 -1.2861  0.0430
10840TIP3    H253936   0.723   1.130  15.893 -0.5687  1.4552  2.6502
10841TIP3   OH253937   2.947   1.208  12.352  0.1289 -0.1773  0.4245
10841TIP3    H153938   2.866   1.219  12.402 -2.1013  1.1463 -3.2616
10841TIP3    H253939   2.942   1.120  12.317  1.4555 -0.9290  2.0477
10842TIP3   OH253940   2.916   1.951   2.522  0.2509  0.4349  0.2194
10842TIP3    H153941   2.911   1.983   2.432  0.3908 -0.2235 -0.0267
10842TIP3    H253942   3.009   1.931   2.535  0.1384 -0.0183  0.3189
10843TIP3   OH253943   2.507   5.060  14.607  0.4530 -0.2579  0.4266
10843TIP3    H153944   2.484   5.079  14.698 -2.2344  1.5979 -0.5515
10843TIP3    H253945   2.568   5.130  14.583 -0.0656  0.1907  0.3812
10844TIP3   OH253946   0.722   4.544  13.095  0.1414 -0.1077 -0.4664
10844TIP3    H153947   0.729   4.460  13.050  2.2460 -0.7520  0.9734
10844TIP3    H253948   0.775   4.604  13.042 -0.8367  0.1756 -1.1404
10845TIP3   OH253949   1.645   2.748  15.310 -0.1535 -0.6015  1.0785
10845TIP3    H153950   1.648   2.704  15.225 -2.9988  1.6661 -0.2888
10845TIP3    H253951   1.605   2.683  15.369  0.1301 -1.5430  0.2495
10846TIP3   OH253952   4.054   2.407  16.305  0.7763  0.3524 -0.1530
10846TIP3    H153953   4.029   2.321  16.338  0.9811  0.0088 -0.8919
10846TIP3    H253954   4.076   2.392  16.213  2.5290  0.8694  0.1785
10847TIP3   OH253955   2.507   2.867  15.172  0.1199 -0.0183 -0.2958
10847TIP3    H153956   2.495   2.948  15.123  1.6969 -0.0779 -0.7749
10847TIP3    H253957   2.570   2.816  15.121  0.1450 -0.9889  0.6788
10848TIP3   OH253958   4.672   1.544   6.001 -0.1310 -0.5932 -0.1292
10848TIP3    H153959   4.690   1.623   6.051  2.3290 -1.3250  0.2178
10848TIP3    H253960   4.576   1.538   5.998 -0.3190  1.0246  1.9760
10849TIP3   OH253961   3.668   0.609  13.185  0.2270  0.1661 -0.2799
10849TIP3    H153962   3.590   0.634  13.134 -0.4188  0.7379  0.9689
10849TIP3    H253963   3.706   0.693  13.213  0.8427 -0.1363 -0.2128
10850TIP3   OH253964   4.215   6.211   2.837  0.4308 -0.0695  0.6832
10850TIP3    H153965   4.196   6.142   2.902  2.1598 -0.9543  0.2856
10850TIP3    H253966   4.233   6.163   2.756  0.1804  0.9416  0.0197
10851TIP3   OH253967   2.242   4.528  14.015 -0.3424 -0.1591 -0.1050
10851TIP3    H153968   2.303   4.585  13.967 -0.8809 -0.0292 -0.6390
10851TIP3    H253969   2.295   4.489  14.084  0.1771  0.5195 -0.1176
10852TIP3   OH253970   1.883   2.991  10.996 -0.4018 -0.2753  0.0352
10852TIP3    H153971   1.792   3.021  10.994 -0.3509 -0.0197  1.2227
10852TIP3    H253972   1.928   3.050  10.935 -1.3230 -1.4743 -1.8685
10853TIP3   OH253973   4.006   4.011  13.999 -0.5125  0.0933 -0.4558
10853TIP3    H153974   4.040   3.941  13.943  1.1537  0.8238 -0.4080
10853TIP3    H253975   4.022   3.980  14.088  0.2996  0.5405 -0.4345
10854TIP3   OH253976   4.991   3.837   1.246 -0.3325  0.0387  0.5817
10854TIP3    H153977   4.914   3.808   1.197  0.5611  0.5965 -1.1766
10854TIP3    H253978   5.040   3.757   1.263 -0.3142 -0.0746 -0.0092
10855TIP3   OH253979   1.415   2.725  13.129  0.0205  0.4317 -0.1287
10855TIP3    H153980   1.479   2.655  13.118  0.2375  0.7691 -1.0748
10855TIP3    H253981   1.351   2.690  13.191 -0.4017 -0.9773 -1.3309
10856TIP3   OH253982   5.802   3.127   6.271 -0.1403  0.1277  0.4224
10856TIP3    H153983   5.856   3.050   6.286  0.8835  0.6374 -0.6111
10856TIP3    H253984   5.778   3.157   6.359  1.0868 -0.2045  0.8737
10857TIP3   OH253985   1.063   5.212   0.263 -0.3916 -0.2077  0.2023
10857TIP3    H153986   1.132   5.274   0.286 -0.1307 -0.4879  0.1754
10857TIP3    H253987   1.064   5.147   0.334 -1.2430  0.2907  0.6854
10858TIP3   OH253988   4.372   5.410   0.158  0.5910 -0.4846 -0.1604
10858TIP3    H153989   4.395   5.326   0.116  1.1624 -0.1424 -0.5369
10858TIP3    H253990   4.276   5.412   0.155  0.5571 -1.2504  0.1008
10859TIP3   OH253991   0.803   6.311  11.430  0.3008 -0.1379 -0.3104
10859TIP3    H153992   0.729   6.372  11.429  1.1178  0.9010  1.0866
10859TIP3    H253993   0.848   6.326  11.346  0.3976  1.0701 -0.0458
10860TIP3   OH253994   4.649   4.597   0.107 -0.0576  0.0140  0.4972
10860TIP3    H153995   4.617   4.687   0.098  0.5652  0.2709  0.7820
10860TIP3    H253996   4.588   4.556   0.167  0.9816  0.9443  2.2553
10861TIP3   OH253997   5.097   4.812  12.100  0.1403  0.1373 -0.3684
10861TIP3    H153998   5.144   4.874  12.045 -1.6923  0.4316 -1.6732
10861TIP3    H253999   5.009   4.850  12.109 -0.8485 -1.9543 -0.7275
10862TIP3   OH254000   3.627   2.115  14.548 -0.3030 -0.8715  0.2726
10862TIP3    H154001   3.663   2.034  14.511  1.4348  0.2400 -0.5004
10862TIP3    H254002   3.619   2.174  14.474 -2.2746 -0.5418  0.7037
10863TIP3   OH254003   3.310   4.136  10.501 -0.0667  0.7347  0.6714
10863TIP3    H154004   3.301   4.194  10.577 -0.4508  0.9016  0.4994
10863TIP3    H254005   3.290   4.049  10.535 -3.0967  1.1539  0.1764
10864TIP3   OH254006   5.991   5.696   0.570  0.1917  0.3271  0.3380
10864TIP3    H154007   5.965   5.753   0.498  1.3785 -1.7446 -1.8140
10864TIP3    H254008   6.080   5.725   0.593 -0.4428  1.4328  1.4802
10865TIP3   OH254009   0.657   4.663  13.822 -0.1825  0.4676  0.6120
10865TIP3    H154010   0.582   4.667  13.762 -1.2572  0.5774  1.9258
10865TIP3    H254011   0.722   4.721  13.783  0.1422 -1.4676 -1.7915
10866TIP3   OH254012   2.188   6.722  12.936 -0.2414  0.0598 -0.0271
10866TIP3    H154013   2.116   6.784  12.948  0.4388  1.2510 -1.7804
10866TIP3    H254014   2.147   6.645  12.896 -0.8302  0.0340  0.6283
10867TIP3   OH254015   5.961   5.444   3.025  0.4267 -0.4260 -0.5958
10867TIP3    H154016   5.907   5.523   3.033  0.8270 -0.1429 -0.6247
10867TIP3    H254017   5.979   5.419   3.116 -1.2041 -1.5373 -0.5752
10868TIP3   OH254018   2.438   3.112   5.791  0.4379  0.0284  0.7220
10868TIP3    H154019   2.428   3.099   5.885  0.4390 -1.4806  0.5396
10868TIP3    H254020   2.357   3.155   5.764  0.6726  0.9613  1.4995
10869TIP3   OH254021   5.306   5.568   4.216  0.2267 -0.4678  0.2463
10869TIP3    H154022   5.239   5.537   4.155 -0.2856 -1.1729  1.1583
10869TIP3    H254023   5.264   5.641   4.262 -0.0792 -1.1990  1.1371
10870TIP3   OH254024   5.786   0.253  14.823 -0.3577 -0.1164  0.3172
10870TIP3    H154025   5.833   0.278  14.903 -1.0040  0.6221  0.4755
10870TIP3    H254026   5.822   0.167  14.800  0.1607 -0.1313  1.1438
10871TIP3   OH254027   6.165   4.534  17.078 -0.2134  0.8567 -0.0332
10871TIP3    H154028   6.115   4.612  17.055 -0.2719  0.5763 -0.8485
10871TIP3    H254029   6.147   4.521  17.171  0.6220  2.4263  0.3665
10872TIP3   OH254030   0.910   0.968  12.930  0.1358  0.1894 -0.0088
10872TIP3    H154031   0.874   1.027  12.863  3.7242  1.0138 -1.3447
10872TIP3    H254032   0.946   0.894  12.880  2.9481  0.8727  0.8894
10873TIP3   OH254033   6.393   0.451   1.727  0.4705  0.7757  0.0206
10873TIP3    H154034   6.330   0.517   1.753 -1.4781 -0.6871 -0.8934
10873TIP3    H254035   6.468   0.465   1.786 -0.2567  3.1792  0.4181
10874TIP3   OH254036   0.725   4.244   1.101  0.3070 -0.1484  0.3346
10874TIP3    H154037   0.661   4.306   1.136  0.9826  0.7506 -0.0087
10874TIP3    H254038   0.690   4.218   1.016  1.0353  1.3371 -0.4282
10875TIP3   OH254039   1.122   2.898   2.770 -0.0720 -0.0029  0.3144
10875TIP3    H154040   1.113   2.807   2.740  1.2066  0.3207 -1.0681
10875TIP3    H254041   1.174   2.891   2.850  1.4309 -0.3445 -0.6815
10876TIP3   OH254042   4.374   2.697  16.347  0.1246 -0.4065  0.4811
10876TIP3    H154043   4.418   2.765  16.397  1.5913 -1.1989  0.3165
10876TIP3    H254044   4.282   2.702  16.373 -0.0815  2.5663 -0.6063
10877TIP3   OH254045   0.657   3.767   5.048 -0.0678 -0.1034  0.7398
10877TIP3    H154046   0.589   3.741   5.109 -2.2236  2.1830 -0.6007
10877TIP3    H254047   0.678   3.858   5.072  0.7950  0.0083 -0.3718
10878TIP3   OH254048   1.688   3.709   3.045 -0.6451  0.4410  0.3385
10878TIP3    H154049   1.679   3.800   3.017  1.7380  0.1503 -1.5884
10878TIP3    H254050   1.668   3.658   2.966  0.8138 -0.5833  0.6065
10879TIP3   OH254051   3.844   0.751  16.277  0.0528 -0.1105 -0.1457
10879TIP3    H154052   3.917   0.750  16.339  0.7913  0.3458 -0.9955
10879TIP3    H254053   3.779   0.808  16.317 -0.5023 -1.7534  1.3499
10880TIP3   OH254054   5.188   5.203  12.918  0.8173  0.0089  0.3082
10880TIP3    H154055   5.200   5.275  12.980  2.6789  0.4936 -0.5912
10880TIP3    H254056   5.224   5.127  12.962  0.3928 -0.0385  0.5788
10881TIP3   OH254057   5.086   3.682   6.329  0.1657 -0.6290 -0.3384
10881TIP3    H154058   5.127   3.634   6.257  3.0556  1.4198 -0.1759
10881TIP3    H254059   5.119   3.772   6.319 -0.4634  0.0033  2.7068
10882TIP3   OH254060   0.057   6.107  11.517  1.0129 -0.0440  0.2291
10882TIP3    H154061   0.000   6.148  11.451  1.3855  1.4530  0.8075
10882TIP3    H254062   0.075   6.020  11.483  0.6809  0.4895 -1.3471
10883TIP3   OH254063   4.509   1.781  15.788  0.0860  0.0791 -0.1167
10883TIP3    H154064   4.582   1.794  15.850 -1.0082  3.5452  0.5430
10883TIP3    H254065   4.551   1.747  15.709  2.4166  1.8167  0.3218
10884TIP3   OH254066   0.059   4.404   3.384 -0.0322  0.2032  0.0834
10884TIP3    H154067   0.099   4.414   3.471 -0.5740  0.1617  0.3353
10884TIP3    H254068   0.081   4.315   3.358  1.6949  0.8135 -0.6073
10885TIP3   OH254069   4.226   0.388   1.884 -0.7426 -0.6353  0.1121
10885TIP3    H154070   4.179   0.410   1.803  0.3889 -1.1428 -0.7030
10885TIP3    H254071   4.227   0.292   1.885 -0.6374 -0.6274  0.6601
10886TIP3   OH254072   5.753   1.525  11.582 -0.1451 -0.2342  0.1877
10886TIP3    H154073   5.755   1.533  11.678  1.8690 -1.4698  0.2879
10886TIP3    H254074   5.837   1.562  11.554  0.3695 -2.1399 -0.8859
10887TIP3   OH254075   5.887   6.368   6.408 -0.5268 -0.0408 -0.6350
10887TIP3    H154076   5.965   6.313   6.419 -1.1665 -1.0033 -0.8858
10887TIP3    H254077   5.833   6.349   6.484  0.5131  2.3877  0.7708
10888TIP3   OH254078   6.517   3.707   5.578 -0.1702 -0.5280 -0.3724
10888TIP3    H154079   6.495   3.729   5.669  0.8533  0.3444 -0.3305
10888TIP3    H254080   6.439   3.663   5.545 -1.4379  1.1740  0.2385
10889TIP3   OH254081   2.007   3.197   3.702  0.0226  0.1922 -0.2697
10889TIP3    H154082   2.062   3.175   3.777 -0.2704  0.5454  0.0476
10889TIP3    H254083   2.065   3.185   3.626  0.3635 -0.0133  0.0203
10890TIP3   OH254084   5.123   5.970   1.706  0.1142  0.0228 -0.4755
10890TIP3    H154085   5.197   5.925   1.748  0.5037  0.9796 -0.1268
10890TIP3    H254086   5.161   6.008   1.626 -0.1090  0.1472 -0.5204
10891TIP3   OH254087   0.450   1.260   0.017 -0.0764 -0.0789 -0.7800
10891TIP3    H154088   0.524   1.242  -0.041 -0.2060 -0.7825 -0.7267
10891TIP3    H254089   0.479   1.231   0.103  0.1329  1.0095 -0.4817
10892TIP3   OH254090   1.797   0.030   3.432  0.2480 -0.2255 -0.8502
10892TIP3    H154091   1.815  -0.064   3.442 -0.2165 -0.4255 -1.8391
10892TIP3    H254092   1.843   0.055   3.352 -1.5136 -0.1315 -1.8633
10893TIP3   OH254093   6.565   0.973  12.685  0.4343 -0.5107  0.2660
10893TIP3    H154094   6.582   1.068  12.687 -1.1893 -0.1893 -0.2736
10893TIP3    H254095   6.605   0.944  12.603 -2.2377  0.4001 -1.4558
10894TIP3   OH254096   3.117   0.450   4.789  0.0221  0.4400  0.3068
10894TIP3    H154097   3.144   0.450   4.881  1.3890  1.0323 -0.0720
10894TIP3    H254098   3.022   0.448   4.791  0.0316  1.0219  1.7469
10895TIP3   OH254099   3.923   0.625  16.688  0.0808 -0.1439  0.3147
10895TIP3    H154100   3.873   0.698  16.725  1.2273  0.2770  1.1034
10895TIP3    H254101   3.987   0.604  16.756  3.0462  1.4417 -1.8787
10896TIP3   OH254102   0.089   3.746  13.200  0.0991 -0.2366  0.9248
10896TIP3    H154103   0.169   3.695  13.215  0.0857 -0.5838 -0.1731
10896TIP3    H254104   0.075   3.793  13.283  2.7080  1.6442  0.3552
10897TIP3   OH254105   3.235   6.187   4.818  0.1649 -0.3192 -0.2148
10897TIP3    H154106   3.280   6.231   4.746 -0.2387  0.3816 -0.0444
10897TIP3    H254107   3.192   6.258   4.866 -1.0231 -0.9757 -0.2988
10898TIP3   OH254108   5.711   6.526   2.992 -0.4819 -0.0606  0.5775
10898TIP3    H154109   5.641   6.591   3.004  0.4459  1.0166  0.2152
10898TIP3    H254110   5.728   6.494   3.081 -0.2567  0.9211  0.8957
10899TIP3   OH254111   6.327   3.219  15.963  0.3508  0.5785  0.1424
10899TIP3    H154112   6.378   3.140  15.949  0.2288  0.9608 -2.8854
10899TIP3    H254113   6.342   3.242  16.055  2.8556 -1.2148  0.2323
10900TIP3   OH254114   4.672   1.079  14.157  0.6165 -0.4251 -0.0991
10900TIP3    H154115   4.607   1.011  14.144 -0.0258  0.0865  0.4230
10900TIP3    H254116   4.748   1.033  14.193  0.1554 -0.8590  0.3246
10901TIP3   OH254117   4.318   1.472  12.923 -0.4344  0.2725 -0.3890
10901TIP3    H154118   4.350   1.413  12.854 -1.4061 -0.9582  0.1986
10901TIP3    H254119   4.381   1.463  12.994 -0.4198  0.1729 -0.4146
10902TIP3   OH254120   6.555   0.489   1.011 -0.1498 -0.2817  0.3649
10902TIP3    H154121   6.473   0.511   0.968 -0.4905 -1.0367  0.6191
10902TIP3    H254122   6.609   0.450   0.942  0.1537  0.5758  0.1044
10903TIP3   OH254123   2.161   3.180   5.803 -0.3742 -0.1935  0.0984
10903TIP3    H154124   2.174   3.274   5.789 -1.9665  0.0465  0.1947
10903TIP3    H254125   2.205   3.162   5.886 -0.6893  0.6056  0.4397
10904TIP3   OH254126   5.585   3.972   0.995  0.2897 -0.1548  0.4484
10904TIP3    H154127   5.503   3.995   1.038  0.7657 -0.9032  1.7787
10904TIP3    H254128   5.646   4.042   1.019  0.3873 -0.2634  0.5226
10905TIP3   OH254129   3.074   0.254  15.965  0.3376  0.0630 -0.2661
10905TIP3    H154130   3.018   0.233  16.040  1.3173  0.4143  0.5653
10905TIP3    H254131   3.032   0.209  15.891 -1.1660  0.5021  0.2939
10906TIP3   OH254132   0.987   5.175   4.482 -0.0635 -0.1325 -1.1848
10906TIP3    H154133   0.988   5.092   4.434 -0.1701  1.2855 -3.7389
10906TIP3    H254134   1.071   5.177   4.527 -0.2445 -1.8278 -0.7446
10907TIP3   OH254135   0.278   3.286  14.256  0.0013 -0.3272 -0.1692
10907TIP3    H154136   0.276   3.304  14.162  0.9415 -0.6080 -0.2499
10907TIP3    H254137   0.341   3.350  14.291 -0.3771 -0.1977  0.2736
10908TIP3   OH254138   6.009   2.823   1.760  0.1255 -0.5348  0.1311
10908TIP3    H154139   5.931   2.789   1.716  0.3049 -0.4336 -0.2672
10908TIP3    H254140   6.066   2.746   1.769 -0.5828 -0.9093  1.6694
10909TIP3   OH254141   5.057   2.974  12.483 -0.3449  0.1118 -0.6032
10909TIP3    H154142   5.081   2.902  12.425 -1.2751 -0.6100 -0.1098
10909TIP3    H254143   5.022   2.931  12.561 -3.5812  1.0705 -1.4373
10910TIP3   OH254144   0.030   0.958  16.452 -0.6795  0.0042  0.0264
10910TIP3    H154145   0.024   0.880  16.397  1.7168 -0.2347  0.0611
10910TIP3    H254146  -0.002   1.029  16.397  0.3255 -0.4643 -1.1798
10911TIP3   OH254147   5.928   1.775  11.037  0.2396  0.1284  0.2682
10911TIP3    H154148   5.986   1.756  11.110  1.4039  2.7733  0.1136
10911TIP3    H254149   5.937   1.700  10.978  0.8855 -1.0490  1.8317
10912TIP3   OH254150   0.920   5.259   2.205 -0.4914  0.1949 -0.6352
10912TIP3    H154151   0.852   5.298   2.261 -2.0967 -1.1974 -1.5671
10912TIP3    H254152   0.908   5.165   2.216  1.5878 -0.0624 -0.4995
10913TIP3   OH254153   5.633   2.445  11.320 -0.0377  0.4867 -0.5476
10913TIP3    H154154   5.708   2.490  11.282 -0.2954  0.9373 -0.5226
10913TIP3    H254155   5.627   2.364  11.270 -0.5400  1.1981 -1.6647
10914TIP3   OH254156   3.701   2.543   4.472 -0.4672  0.5287  0.3343
10914TIP3    H154157   3.782   2.578   4.435 -1.0384 -1.6585 -3.1789
10914TIP3    H254158   3.632   2.571   4.411 -2.0765  0.5185  2.1038
10915TIP3   OH254159   0.943   2.012  13.995  0.0778 -0.4873  0.5740
10915TIP3    H154160   0.866   2.035  13.944  1.5476  1.9906 -0.6463
10915TIP3    H254161   0.974   1.930  13.957 -1.3626 -0.9823  0.4389
10916TIP3   OH254162   1.590   6.720  16.063 -0.5893  0.4656  0.6857
10916TIP3    H154163   1.579   6.627  16.083  1.0136 -0.5090 -2.6782
10916TIP3    H254164   1.556   6.731  15.975  1.3671  2.5948  0.1336
10917TIP3   OH254165   1.420   3.846   5.058  1.4567 -0.3228 -0.5600
10917TIP3    H154166   1.473   3.924   5.046  0.0296  0.5255 -1.4776
10917TIP3    H254167   1.482   3.773   5.050  2.7801  0.7013  0.2651
10918TIP3   OH254168   0.080   3.212   2.189 -1.2438  0.3528 -0.0201
10918TIP3    H154169  -0.011   3.226   2.161 -1.5497  0.9570  1.2041
10918TIP3    H254170   0.111   3.139   2.135 -2.2831  0.4898 -0.8279
10919TIP3   OH254171   0.251   4.985  16.348  0.5329  0.1897 -0.1818
10919TIP3    H154172   0.326   4.983  16.407  0.8806  1.0789 -0.5701
10919TIP3    H254173   0.251   4.900  16.305  1.0599  0.0227  0.1473
10920TIP3   OH254174   2.085   0.308  14.448  0.5384  0.2551 -0.2084
10920TIP3    H154175   2.114   0.397  14.468  0.6069 -0.3619  2.5897
10920TIP3    H254176   2.020   0.319  14.379 -0.9777  2.6679  1.5546
10921TIP3   OH254177   5.148   1.487  11.284  0.0489  0.0510 -0.2481
10921TIP3    H154178   5.236   1.526  11.284 -0.8493  2.1514 -1.2354
10921TIP3    H254179   5.122   1.487  11.376 -0.1382  2.3661 -0.2575
10922TIP3   OH254180   6.654   6.510   2.239  0.0590  0.1302 -0.5409
10922TIP3    H154181   6.638   6.557   2.158  1.5959  0.6903 -0.5421
10922TIP3    H254182   6.661   6.418   2.213 -1.5363  0.0498 -0.7346
10923TIP3   OH254183   2.705   5.784  15.795  0.3343 -0.6098  0.0879
10923TIP3    H154184   2.663   5.869  15.779 -0.3943 -0.9220  0.3532
10923TIP3    H254185   2.794   5.796  15.761  0.3096  0.3331  0.3227
10924TIP3   OH254186   6.156   4.841  12.800 -0.2353 -0.0160  0.5748
10924TIP3    H154187   6.064   4.842  12.825 -0.1365 -1.4353  1.0153
10924TIP3    H254188   6.191   4.923  12.837 -1.6400  1.2872 -0.9110
10925TIP3   OH254189   6.659   4.927   2.609  0.6700 -0.3600  0.2521
10925TIP3    H154190   6.619   4.997   2.559 -1.1902 -1.1926  0.5109
10925TIP3    H254191   6.600   4.913   2.683  2.2355 -0.6110  1.4965
10926TIP3   OH254192   2.650   2.035  14.028 -0.2026 -0.1459  0.2848
10926TIP3    H154193   2.699   2.040  13.946 -1.6478 -1.1947 -0.6628
10926TIP3    H254194   2.674   2.115  14.075 -1.0966  1.6357 -2.1502
10927TIP3   OH254195   4.857   4.028  16.378  0.0128  0.0045 -0.4884
10927TIP3    H154196   4.813   4.064  16.300  0.1592  0.8466 -0.1853
10927TIP3    H254197   4.932   4.086  16.392 -1.0185  0.9479  1.3448
10928TIP3   OH254198   2.613   3.143  14.591 -0.3103  0.2525  0.0706
10928TIP3    H154199   2.530   3.162  14.633 -1.1155  0.2525 -1.4805
10928TIP3    H254200   2.679   3.177  14.652 -1.4334  0.2468  1.3106
10929TIP3   OH254201   4.926   1.247  16.533  0.1673  0.0460 -0.2537
10929TIP3    H154202   4.941   1.175  16.594 -0.7330  1.4614  1.6808
10929TIP3    H254203   4.964   1.323  16.576 -1.2981  1.2451 -1.0476
10930TIP3   OH254204   3.592   5.287  14.667 -0.2005  0.5373 -0.1555
10930TIP3    H154205   3.573   5.198  14.699  1.0438 -0.3363 -1.7516
10930TIP3    H254206   3.578   5.343  14.743 -1.7098 -0.9370  0.6987
10931TIP3   OH254207   0.768   5.589  11.090  0.4456  0.2802  0.0821
10931TIP3    H154208   0.738   5.660  11.148 -0.1218 -0.5851  0.8695
10931TIP3    H254209   0.711   5.515  11.112  0.9734 -0.3925 -0.7993
10932TIP3   OH254210   4.080   0.160   4.843 -0.5616 -0.7474 -0.0927
10932TIP3    H154211   4.114   0.237   4.797 -0.2162 -1.6596 -1.4109
10932TIP3    H254212   4.069   0.188   4.933 -0.4303  0.8467 -0.5613
10933TIP3   OH254213   4.185   4.027   3.168  0.2166 -0.3194  0.2023
10933TIP3    H154214   4.270   4.065   3.190 -0.0325  0.0523  0.5293
10933TIP3    H254215   4.182   4.030   3.073  1.1032 -1.5043  0.1191
10934TIP3   OH254216   5.495   2.903  11.801  0.1687 -0.7178  0.0523
10934TIP3    H154217   5.425   2.968  11.808  2.1974  1.6388 -0.8107
10934TIP3    H254218   5.461   2.838  11.739 -1.6819 -0.2542  0.5378
10935TIP3   OH254219   3.768   1.256  16.327 -0.4265 -0.5583  0.2280
10935TIP3    H154220   3.696   1.311  16.297 -0.6877 -1.1613 -0.2511
10935TIP3    H254221   3.811   1.227  16.247  0.3912 -0.1472  0.5104
10936TIP3   OH254222   1.826   2.994  16.215  0.4039  0.0085 -0.7306
10936TIP3    H154223   1.819   3.055  16.288  0.5409  0.9229 -1.4861
10936TIP3    H254224   1.736   2.970  16.195  0.4420 -1.5838  0.8553
10937TIP3   OH254225   1.760   0.302   1.716  0.6322  0.0719  0.3646
10937TIP3    H154226   1.802   0.219   1.694 -0.2651 -0.2528 -0.1645
10937TIP3    H254227   1.671   0.294   1.681  1.0401  1.8817 -1.1769
10938TIP3   OH254228   0.063   3.452  14.425 -0.4693  0.0460  0.1884
10938TIP3    H154229   0.042   3.543  14.443  0.9783  0.3852  0.2046
10938TIP3    H254230   0.086   3.450  14.332  1.3171  0.0648  0.6080
10939TIP3   OH254231   5.556   2.193  16.131  0.2078  0.9353 -0.0814
10939TIP3    H154232   5.629   2.218  16.074  0.0746 -0.6024 -0.9508
10939TIP3    H254233   5.582   2.109  16.168 -0.4695  1.1014  0.7934
10940TIP3   OH254234   1.213   2.835   6.081  0.1852  0.1673  0.0938
10940TIP3    H154235   1.150   2.767   6.105  1.0057 -0.3125  0.9198
10940TIP3    H254236   1.254   2.803   6.000  0.1410 -0.0447  0.1546
10941TIP3   OH254237   3.796   3.622  13.298  0.2809 -0.2215  0.2679
10941TIP3    H154238   3.882   3.661  13.310  0.4844 -0.6890  0.3126
10941TIP3    H254239   3.801   3.538  13.343 -1.0232  0.8959  2.5963
10942TIP3   OH254240   1.497   4.848   0.179  0.0632 -0.4415 -0.5602
10942TIP3    H154241   1.482   4.757   0.204 -2.2247  0.5131  1.7330
10942TIP3    H254242   1.504   4.895   0.262  0.2331  1.6124 -1.7161
10943TIP3   OH254243   0.810   5.437   1.327 -0.4152 -0.4646  0.1110
10943TIP3    H154244   0.717   5.459   1.327 -0.6257 -1.3793 -0.1271
10943TIP3    H254245   0.842   5.471   1.411 -0.5725  1.4729 -0.5811
10944TIP3   OH254246   2.576   6.259  13.700  0.4661 -0.1528  0.2242
10944TIP3    H154247   2.643   6.310  13.746  0.7142 -0.0573 -0.2424
10944TIP3    H254248   2.511   6.239  13.767  2.1043 -2.2559  1.2060
10945TIP3   OH254249   2.350   4.805   2.868 -0.5784 -0.1096 -0.6807
10945TIP3    H154250   2.307   4.744   2.809 -0.5386  0.5288 -1.3779
10945TIP3    H254251   2.425   4.756   2.903 -1.0519 -0.7443 -0.5597
10946TIP3   OH254252   5.605   2.165  14.269 -0.3850  0.0025  0.1759
10946TIP3    H154253   5.670   2.175  14.339  0.1389  0.8913 -0.4390
10946TIP3    H254254   5.623   2.236  14.208 -0.0995 -1.4260 -1.4588
10947TIP3   OH254255   5.481   5.054  16.990 -0.0064  0.3412  0.1390
10947TIP3    H154256   5.456   4.962  16.986  1.6485 -0.1565  1.1584
10947TIP3    H254257   5.468   5.086  16.901  0.1899 -1.0710 -0.4062
10948TIP3   OH254258   3.157   6.187   1.601 -0.5325  0.5122 -0.0259
10948TIP3    H154259   3.141   6.129   1.527  0.4614  0.5649 -0.2898
10948TIP3    H254260   3.248   6.215   1.590 -0.9984  2.1348  0.0713
10949TIP3   OH254261   5.381   1.838  15.741  0.3805 -0.0048  0.0307
10949TIP3    H154262   5.454   1.775  15.750 -0.1225 -0.4109  1.3990
10949TIP3    H254263   5.391   1.896  15.817 -1.3586 -0.7387  0.8373
10950TIP3   OH254264   0.707   0.971  13.139 -0.2378  0.3975  0.6049
10950TIP3    H154265   0.789   0.961  13.090 -1.2854  1.0709 -1.3372
10950TIP3    H254266   0.735   0.981  13.230  1.9321  1.8884 -0.1697
10951TIP3   OH254267   0.267   1.230  16.355  0.2647  0.0363  0.3005
10951TIP3    H154268   0.173   1.240  16.336  0.9550  3.8717 -1.6470
10951TIP3    H254269   0.271   1.218  16.449 -2.1437  1.3525  0.6367
10952TIP3   OH254270   5.360   5.530   1.849  0.4908  0.2332 -0.3852
10952TIP3    H154271   5.453   5.554   1.855  0.3135  0.6227  1.0045
10952TIP3    H254272   5.328   5.534   1.939 -0.8217 -0.1432 -0.8178
10953TIP3   OH254273   2.618   5.833   3.331 -0.9924  0.3027 -0.0495
10953TIP3    H154274   2.588   5.742   3.325  1.4820 -0.5540 -0.2348
10953TIP3    H254275   2.613   5.854   3.424 -1.6012 -0.0099 -0.0080
10954TIP3   OH254276   5.463   6.289   5.541  0.5266 -0.1618  0.3944
10954TIP3    H154277   5.373   6.260   5.523  0.6472  0.2228 -0.9414
10954TIP3    H254278   5.480   6.261   5.631 -1.3295  0.7681  1.0675
10955TIP3   OH254279   5.566   6.705   3.146  0.3082  0.4022  0.2460
10955TIP3    H154280   5.482   6.707   3.193 -0.6602  0.6900 -1.4248
10955TIP3    H254281   5.629   6.673   3.210 -1.1991 -0.4005  1.3693
10956TIP3   OH254282   1.805   4.861   4.571 -0.2998 -0.2645  0.3461
10956TIP3    H154283   1.775   4.833   4.658  0.4577 -1.7392  0.1572
10956TIP3    H254284   1.899   4.876   4.582 -0.3422  0.2733 -0.0373
10957TIP3   OH254285   4.367   3.492  11.843 -0.0941 -0.6800  0.1761
10957TIP3    H154286   4.340   3.400  11.845  0.3619 -0.8610 -1.3940
10957TIP3    H254287   4.289   3.539  11.812 -0.0422 -0.6553  0.0828
10958TIP3   OH254288   0.921   6.382   1.286 -0.0025 -0.6161 -0.3990
10958TIP3    H154289   1.001   6.347   1.246 -0.4475 -0.8266 -1.1115
10958TIP3    H254290   0.872   6.304   1.310  1.0440 -0.5315  2.1926
10959TIP3   OH254291   0.939   1.915  15.861 -0.1853  0.1028  0.1466
10959TIP3    H154292   0.880   1.953  15.925 -0.3110  1.5791 -0.8158
10959TIP3    H254293   0.886   1.851  15.814  0.0769 -1.4581  1.9033
10960TIP3   OH254294   5.248   3.415   3.983 -0.1598 -0.1316  0.0203
10960TIP3    H154295   5.305   3.349   3.944  0.7820  2.0061 -2.3455
10960TIP3    H254296   5.161   3.394   3.949  0.8582  2.5314 -4.5644
10961TIP3   OH254297   6.032   5.920   4.154 -0.5332  0.3544  0.0285
10961TIP3    H154298   6.040   5.825   4.151 -0.5869  0.3630 -0.4876
10961TIP3    H254299   5.952   5.937   4.204 -0.5090  0.1299  0.1405
10962TIP3   OH254300   6.650   3.409  11.892 -0.4019  0.1887 -0.0834
10962TIP3    H154301   6.562   3.407  11.856 -0.4549  0.2356  0.0416
10962TIP3    H254302   6.638   3.439  11.982 -0.2112  0.6507 -0.2092
10963TIP3   OH254303   3.004   4.797   2.654 -0.1011 -0.4462 -0.6770
10963TIP3    H154304   2.974   4.879   2.693 -2.6735 -2.0885  0.9931
10963TIP3    H254305   3.007   4.813   2.560 -0.4981  1.5658 -0.3528
10964TIP3   OH254306   5.920   2.843  16.491  0.2714 -0.0078  0.3836
10964TIP3    H154307   5.950   2.931  16.511  0.6461 -0.1673  0.5129
10964TIP3    H254308   5.827   2.854  16.469  0.7356  0.6628 -1.3042
10965TIP3   OH254309   1.936   0.881   3.596 -0.4516 -0.1955 -0.3089
10965TIP3    H154310   1.904   0.945   3.532  0.4293  0.8742  0.3106
10965TIP3    H254311   2.027   0.866   3.572 -0.4922 -0.8032 -0.1015
10966TIP3   OH254312   1.219   0.863   1.030  0.2758  0.3053  0.0396
10966TIP3    H154313   1.243   0.876   1.122 -0.7926 -3.0097  0.8457
10966TIP3    H254314   1.164   0.939   1.009 -0.8081  0.2977  2.6548
10967TIP3   OH254315   6.529   4.583   5.179 -1.2350  0.3969 -0.0641
10967TIP3    H154316   6.434   4.573   5.175 -1.1184 -0.4598 -0.8804
10967TIP3    H254317   6.561   4.537   5.101 -0.4100  3.7966 -1.8564
10968TIP3   OH254318   1.235   4.973   5.968  0.0565  0.3392  0.4182
10968TIP3    H154319   1.328   4.974   5.946 -0.2392 -1.8243 -1.0288
10968TIP3    H254320   1.234   4.962   6.064  1.2814 -0.4321  0.3615
10969TIP3   OH254321   5.665   5.840   0.014 -0.5438 -0.0363 -0.1455
10969TIP3    H154322   5.653   5.746   0.028  2.6703 -0.5877 -0.6824
10969TIP3    H254323   5.643   5.854  -0.078 -0.7289 -0.3177 -0.1424
10970TIP3   OH254324   4.022   6.352   3.835 -0.1924 -0.2866  0.2709
10970TIP3    H154325   3.926   6.351   3.834 -0.2313  1.7619 -0.1157
10970TIP3    H254326   4.045   6.335   3.926 -0.9498  0.2950  0.5756
10971TIP3   OH254327   0.775   2.944  13.808 -0.0514  0.2569 -0.2118
10971TIP3    H154328   0.850   2.924  13.865  0.7521  0.3374 -1.2275
10971TIP3    H254329   0.807   3.012  13.750  0.7807 -3.1829 -4.0044
10972TIP3   OH254330   3.138   0.510   1.042  0.4735 -0.2764 -0.0925
10972TIP3    H154331   3.207   0.556   0.994  1.6452 -0.1911  1.6249
10972TIP3    H254332   3.184   0.438   1.085 -0.6105 -0.5087  0.6755
10973TIP3   OH254333   3.776   0.107  16.572  0.6519 -0.2686 -0.0950
10973TIP3    H154334   3.839   0.174  16.544  0.2488 -0.1494 -0.7134
10973TIP3    H254335   3.716   0.154  16.630 -0.1912  0.1329 -1.2699
10974TIP3   OH254336   2.623   4.563   4.319  0.0514 -0.0094 -0.2936
10974TIP3    H154337   2.601   4.657   4.322  0.0638 -0.0002 -0.5647
10974TIP3    H254338   2.713   4.561   4.288  0.1740 -0.0943  0.0620
10975TIP3   OH254339   5.930   5.221   3.681  0.8198  0.1819  0.2847
10975TIP3    H154340   6.015   5.200   3.721  1.7091  1.5646 -0.8348
10975TIP3    H254341   5.936   5.186   3.592  0.7010  1.4382 -0.2144
10976TIP3   OH254342   0.512   3.668   5.929  0.0165  0.7009  0.6363
10976TIP3    H154343   0.525   3.638   6.019 -0.1375  0.7597  0.6795
10976TIP3    H254344   0.428   3.631   5.904  0.7561 -0.5480 -0.0088
10977TIP3   OH254345   1.272   5.172   5.052 -0.0550 -0.0984 -0.2823
10977TIP3    H154346   1.335   5.163   5.123 -1.1403 -0.7310  0.6105
10977TIP3    H254347   1.293   5.100   4.992  1.1331  0.6932 -0.8277
10978TIP3   OH254348   0.222   3.952   3.014 -0.2344 -0.0484 -0.3566
10978TIP3    H154349   0.168   3.888   3.059 -1.3887  0.3223 -1.1896
10978TIP3    H254350   0.186   3.955   2.925  0.9155  0.4763 -0.8132
10979TIP3   OH254351   5.811   4.157  12.797 -0.3166 -0.6118  0.1700
10979TIP3    H154352   5.816   4.098  12.872 -1.0641 -1.1104 -0.1620
10979TIP3    H254353   5.722   4.147  12.765 -0.4091  0.5902  0.0138
10980TIP3   OH254354   2.275   5.409   3.739  0.0946 -0.2985 -0.4254
10980TIP3    H154355   2.307   5.485   3.787  0.5560  0.4217 -1.8336
10980TIP3    H254356   2.304   5.424   3.649 -0.1265 -1.9671 -0.7877
10981TIP3   OH254357   6.725   0.284  14.566  0.0944 -0.9312  0.1781
10981TIP3    H154358   6.806   0.265  14.613 -0.3426  0.2452  1.4325
10981TIP3    H254359   6.658   0.289  14.634 -0.6612  0.1477 -0.6208
10982TIP3   OH254360   5.378   0.247  15.926 -0.1817 -0.0005  0.1409
10982TIP3    H154361   5.349   0.330  15.964 -2.5217 -0.1538 -1.2140
10982TIP3    H254362   5.445   0.273  15.863 -0.5701  0.8334  0.0557
10983TIP3   OH254363   0.799   4.531  15.493 -0.2652  0.6041 -0.1777
10983TIP3    H154364   0.863   4.591  15.531 -0.2710 -0.4508  1.5917
10983TIP3    H254365   0.717   4.581  15.489  0.3990  1.6132 -1.4378
10984TIP3   OH254366   3.951   1.340  12.249  0.1202 -0.4884  0.1969
10984TIP3    H154367   4.027   1.365  12.302 -0.1187  0.4449  0.1180
10984TIP3    H254368   3.876   1.379  12.295 -0.2879 -1.1693  0.1249
10985TIP3   OH254369   4.010   2.823   4.890 -0.1682 -1.0667  0.7919
10985TIP3    H154370   4.086   2.783   4.932 -0.7463 -2.7300  0.2666
10985TIP3    H254371   3.971   2.877   4.959  1.3840 -0.3120  1.1111
10986TIP3   OH254372   3.244   1.048  11.850  0.3902 -0.9593  0.4727
10986TIP3    H154373   3.302   1.118  11.818 -0.6250 -0.8189 -1.0824
10986TIP3    H254374   3.240   0.986  11.778  0.3678 -2.0794  1.4283
10987TIP3   OH254375   4.185   3.573   1.711  0.0162 -0.2354  0.2677
10987TIP3    H154376   4.101   3.536   1.686  1.0015 -1.4487 -1.3341
10987TIP3    H254377   4.163   3.658   1.749 -1.8500 -0.0419 -1.1643
10988TIP3   OH254378   0.346   0.240   0.440 -0.0083 -0.0203 -0.3711
10988TIP3    H154379   0.254   0.243   0.467  0.3012  1.4520  0.6136
10988TIP3    H254380   0.393   0.217   0.520  0.5279 -0.2637 -0.7590
10989TIP3   OH254381   1.452   1.773  12.094 -0.5174  0.2885 -0.1365
10989TIP3    H154382   1.462   1.857  12.139 -1.6359  0.2307  0.2476
10989TIP3    H254383   1.427   1.796  12.004 -1.1801  0.3624  0.0658
10990TIP3   OH254384   3.299   4.325  14.716 -0.7499 -0.0911  0.3648
10990TIP3    H154385   3.210   4.335  14.684  0.0024 -0.4684 -1.9530
10990TIP3    H254386   3.314   4.230  14.716 -0.4923 -0.0560  1.1990
10991TIP3   OH254387   4.745   2.260   5.549  0.3179 -0.2227  0.3236
10991TIP3    H154388   4.732   2.354   5.561  0.0590  0.0136 -1.7062
10991TIP3    H254389   4.816   2.253   5.485 -0.7649 -1.3757 -0.7752
10992TIP3   OH254390   1.408   0.954   4.556 -0.0796 -0.0727  0.1194
10992TIP3    H154391   1.424   0.869   4.516  0.7421 -0.4045  1.1346
10992TIP3    H254392   1.434   0.943   4.647 -2.1740  0.6093  0.8185
10993TIP3   OH254393   4.557   3.088   3.154 -0.7186  0.3995 -0.3474
10993TIP3    H154394   4.597   3.159   3.104 -0.4233 -0.3801 -1.2259
10993TIP3    H254395   4.463   3.100   3.141 -0.6288 -0.1895 -1.6706
10994TIP3   OH254396   5.771   1.254   3.329  0.2959  0.2395  0.5590
10994TIP3    H154397   5.750   1.345   3.306 -1.5957 -0.5994 -1.1802
10994TIP3    H254398   5.687   1.208   3.326  1.0725 -1.3828  2.4425
10995TIP3   OH254399   1.915   2.629  15.475 -0.2448  0.4543  0.3695
10995TIP3    H154400   1.923   2.600  15.384  0.0803  1.0643  0.1993
10995TIP3    H254401   1.822   2.646  15.487 -0.2669  0.5217  0.1015
10996TIP3   OH254402   1.954   1.772  11.836  0.6760  0.4483  0.0646
10996TIP3    H154403   1.957   1.725  11.753 -0.1129  1.1557 -0.3786
10996TIP3    H254404   2.044   1.802  11.851  0.9486 -0.2382 -0.2081
10997TIP3   OH254405   1.942   4.090   3.281 -0.1272 -0.2192  0.0465
10997TIP3    H154406   1.952   4.154   3.211 -1.9408 -0.1018 -0.1124
10997TIP3    H254407   1.936   4.006   3.236 -1.8589 -0.0908  0.0065
10998TIP3   OH254408   6.119   4.853   2.663 -0.2471  0.2931  0.0709
10998TIP3    H154409   6.070   4.888   2.737  0.2987  0.8934  0.1502
10998TIP3    H254410   6.059   4.790   2.623 -1.7729  2.2432 -0.8585
10999TIP3   OH254411   4.470   2.654   4.546 -0.4191  0.2691  0.8129
10999TIP3    H154412   4.535   2.721   4.567  1.1194 -0.9388  0.0099
10999TIP3    H254413   4.418   2.645   4.626 -0.5900  2.3390  0.9592
11000TIP3   OH254414   0.186   4.772   0.908 -0.3180  0.0031 -0.6016
11000TIP3    H154415   0.252   4.757   0.976 -0.1985  1.4427 -0.3876
11000TIP3    H254416   0.236   4.776   0.827 -0.1631  0.8110 -0.4718
11001TIP3   OH254417   1.231   1.256   0.701 -0.5222 -0.2790  0.3554
11001TIP3    H154418   1.290   1.255   0.776 -0.7243 -0.4835  0.5130
11001TIP3    H254419   1.211   1.163   0.684  0.0529 -0.2713 -0.3704
11002TIP3   OH254420   1.216   4.479   1.339 -0.0661  0.4256  0.0974
11002TIP3    H154421   1.128   4.465   1.302 -0.1268  1.5259 -0.2006
11002TIP3    H254422   1.200   4.496   1.432 -0.2385  1.2485 -0.0729
11003TIP3   OH254423   1.129   0.985  15.365 -0.0569  0.3959 -0.1457
11003TIP3    H154424   1.084   0.947  15.440  0.3063  2.2409  1.0409
11003TIP3    H254425   1.181   0.913  15.329 -0.1626 -0.4815  1.4279
11004TIP3   OH254426   5.292   0.359  14.433 -0.3829  0.2617 -0.6414
11004TIP3    H154427   5.373   0.410  14.437  0.2466 -0.7838  0.0837
11004TIP3    H254428   5.251   0.372  14.518 -0.5035  0.0009 -0.6591
11005TIP3   OH254429   4.918   3.785   5.422  0.8463 -0.0846  0.0516
11005TIP3    H154430   4.891   3.701   5.460 -1.4087 -0.0912 -1.4923
11005TIP3    H254431   4.965   3.829   5.493 -0.4802 -1.4383  1.8156
11006TIP3   OH254432   0.406   3.348  16.576  0.0068 -0.1550 -0.0573
11006TIP3    H154433   0.445   3.295  16.506 -0.4463 -1.5471  0.7242
11006TIP3    H254434   0.466   3.337  16.650  0.2011  0.8859 -0.0583
11007TIP3   OH254435   5.736   0.109  14.157 -0.0954  0.0607  0.2926
11007TIP3    H154436   5.808   0.051  14.132 -0.2971 -0.0245 -0.0856
11007TIP3    H254437   5.665   0.087  14.098 -2.0926 -3.1375  3.6448
11008TIP3   OH254438   3.386   6.544  15.834  0.2192 -0.5512 -0.7638
11008TIP3    H154439   3.404   6.458  15.795  3.1029 -0.2286 -0.2542
11008TIP3    H254440   3.464   6.563  15.886 -0.6666  2.1050 -0.3577
11009TIP3   OH254441   1.269   1.325  14.385 -0.1352 -0.3850 -0.1908
11009TIP3    H154442   1.225   1.362  14.461 -0.7150  0.8640 -1.1124
11009TIP3    H254443   1.236   1.376  14.311 -0.5516 -2.4031 -1.4427
11010TIP3   OH254444   1.517   6.746  12.072 -0.0890  0.1523 -0.5719
11010TIP3    H154445   1.464   6.691  12.130  1.9068 -1.3856 -0.1273
11010TIP3    H254446   1.454   6.799  12.024 -1.9461 -0.7581  0.7945
11011TIP3   OH254447   2.596   3.822   0.357 -0.1093 -0.3617  0.4443
11011TIP3    H154448   2.635   3.735   0.369  0.7750  0.0238  0.4622
11011TIP3    H254449   2.649   3.879   0.412  2.3534  1.0065 -3.1343
11012TIP3   OH254450   2.513   4.521  12.483  0.0288  0.2325 -0.0702
11012TIP3    H154451   2.551   4.442  12.523  0.2554  0.3656 -0.0205
11012TIP3    H254452   2.421   4.500  12.472  0.1332 -0.1397 -0.2869
11013TIP3   OH254453   1.687   5.597  13.245  0.6581 -0.2794  0.5489
11013TIP3    H154454   1.621   5.658  13.210  1.1920  0.8324  1.4413
11013TIP3    H254455   1.770   5.629  13.210  0.7645 -1.4674 -0.2851
11014TIP3   OH254456   3.877   3.709   5.596  0.2447 -0.3846 -0.1416
11014TIP3    H154457   3.884   3.633   5.653  3.3130  0.6571  0.9892
11014TIP3    H254458   3.942   3.694   5.527  1.0055  1.2488  0.1777
11015TIP3   OH254459   3.979   6.619  13.425 -0.0198 -0.0668  0.2955
11015TIP3    H154460   4.006   6.587  13.511 -0.2289 -1.1484 -0.0257
11015TIP3    H254461   4.060   6.647  13.383 -0.0805  1.7592  1.3491
11016TIP3   OH254462   5.969   5.612   1.134 -0.1475  0.1218 -0.2876
11016TIP3    H154463   5.897   5.571   1.184  2.0411 -3.4377  0.1584
11016TIP3    H254464   5.937   5.615   1.044 -1.1899 -0.6990  0.0426
11017TIP3   OH254465   0.647   3.922  11.276 -0.4506 -0.5497  0.7226
11017TIP3    H154466   0.599   3.921  11.359 -1.3951 -2.0453  0.1739
11017TIP3    H254467   0.687   3.835  11.270  0.3421 -0.1473  0.0308
11018TIP3   OH254468   4.547   2.077  11.691  0.8965  0.2291 -0.2533
11018TIP3    H154469   4.642   2.074  11.695  0.9693  1.4362 -0.9655
11018TIP3    H254470   4.526   2.166  11.664 -0.4486  0.0785  0.2191
11019TIP3   OH254471   0.999   1.812   3.207  0.5825 -0.2100  0.0428
11019TIP3    H154472   0.989   1.721   3.178  1.8433 -1.6444  3.6919
11019TIP3    H254473   0.916   1.833   3.249  0.9385 -0.3759  0.8512
11020TIP3   OH254474   5.926   3.308  17.195  0.5244  0.5019  0.4267
11020TIP3    H154475   5.898   3.355  17.117  1.2614 -0.4016 -0.3784
11020TIP3    H254476   5.850   3.253  17.218 -0.2297  1.8215  1.2036
11021TIP3   OH254477   0.577   1.159   1.175 -0.3394 -0.5644  0.5541
11021TIP3    H154478   0.523   1.182   1.099  1.0580 -0.4191 -0.4078
11021TIP3    H254479   0.519   1.174   1.250 -1.1202  1.2162 -0.3533
11022TIP3   OH254480   0.395   1.662  14.343  0.1527 -0.9759  0.7154
11022TIP3    H154481   0.312   1.644  14.298 -0.6032 -1.5483  2.2807
11022TIP3    H254482   0.457   1.600  14.305  0.0811  0.0461 -1.0757
11023TIP3   OH254483   2.379   4.036  16.105  0.3915  0.1540  0.3794
11023TIP3    H154484   2.386   4.037  16.010  1.6765  0.6563  0.4728
11023TIP3    H254485   2.469   4.040  16.136 -0.0765  1.9235  1.6204
11024TIP3   OH254486   2.226   5.139  13.443  0.6357  0.2191 -0.6002
11024TIP3    H154487   2.207   5.204  13.376  1.5699  1.9905  0.8182
11024TIP3    H254488   2.176   5.061  13.416  2.4880  0.2318 -4.3606
11025TIP3   OH254489   0.123   4.105   1.965 -0.3012  0.1977  0.7345
11025TIP3    H154490   0.073   4.027   1.943  0.6977 -0.5243  1.0137
11025TIP3    H254491   0.175   4.080   2.041  1.9071  0.3348 -0.6841
11026TIP3   OH254492   6.029   6.331  13.607 -0.8810  0.1640  0.8667
11026TIP3    H154493   6.083   6.345  13.529 -0.6112 -0.7744  0.8718
11026TIP3    H254494   6.048   6.406  13.663  3.5222 -1.9712  2.5880
11027TIP3   OH254495   3.902   4.300   1.188  0.2464 -0.0323  0.4391
11027TIP3    H154496   3.850   4.231   1.229  0.0297  0.8856  1.7159
11027TIP3    H254497   3.993   4.278   1.207  0.2535 -0.7942 -0.4662
11028TIP3   OH254498   2.625   6.634   4.973  0.3551 -0.3707 -0.5112
11028TIP3    H154499   2.549   6.691   4.964  0.2973 -0.4778 -0.7208
11028TIP3    H254500   2.613   6.567   4.906  0.2653 -0.8064 -0.0626
11029TIP3   OH254501   3.391   2.995  16.376  0.0853 -0.1744  0.7358
11029TIP3    H154502   3.363   3.087  16.368  0.7233 -0.0276  0.1384
11029TIP3    H254503   3.310   2.947  16.388 -0.4036  0.2968 -0.5567
11030TIP3   OH254504   6.344   3.070   0.007  0.2782 -0.2326 -0.3899
11030TIP3    H154505   6.276   3.097  -0.055  0.6551  0.0733 -0.6806
11030TIP3    H254506   6.424   3.113  -0.026  0.7776 -1.2708 -0.5364
11031TIP3   OH254507   4.315   5.771   5.678  0.0801  0.0127 -0.0320
11031TIP3    H154508   4.403   5.740   5.660  0.2314 -0.0378  0.7634
11031TIP3    H254509   4.315   5.788   5.772 -1.4483 -2.2458  0.4269
11032TIP3   OH254510   0.623   6.088   1.745 -0.4422  0.0205 -0.5467
11032TIP3    H154511   0.680   6.047   1.680  1.5096  0.3474  0.9496
11032TIP3    H254512   0.631   6.182   1.729 -0.6858  0.0677 -0.4024
11033TIP3   OH254513   4.197   3.312  15.229 -0.5297 -0.5750  0.1847
11033TIP3    H154514   4.118   3.352  15.266 -0.4177 -0.5531  0.3972
11033TIP3    H254515   4.167   3.271  15.148 -0.7528 -0.5309  0.2435
11034TIP3   OH254516   4.202   0.123   2.545 -0.1725  0.2810 -0.6856
11034TIP3    H154517   4.253   0.048   2.515 -0.8603  0.3554 -2.0678
11034TIP3    H254518   4.176   0.101   2.634 -0.3269 -1.1005 -1.0644
11035TIP3   OH254519   6.777   6.050   5.729  0.2709  0.0031 -0.5861
11035TIP3    H154520   6.740   6.128   5.772 -0.2998 -0.2189 -0.6751
11035TIP3    H254521   6.737   6.050   5.642 -0.6221 -1.0402 -0.1798
11036TIP3   OH254522   3.653   1.015  15.351  0.2804 -0.5081  0.1727
11036TIP3    H154523   3.716   0.974  15.291  0.3030 -0.1907 -0.0231
11036TIP3    H254524   3.690   1.000  15.438  0.8618  0.0637  0.0288
11037TIP3   OH254525   3.523   1.639   1.816 -0.2296  0.7259 -0.3886
11037TIP3    H154526   3.470   1.709   1.854 -0.0793  0.5560  0.1370
11037TIP3    H254527   3.463   1.593   1.758 -0.6457  0.5670  0.1667
11038TIP3   OH254528   5.695   4.186   2.728 -0.5057 -0.4500 -0.1225
11038TIP3    H154529   5.667   4.252   2.664 -1.5932 -0.4888  0.2995
11038TIP3    H254530   5.627   4.119   2.724 -0.0978 -0.8953  0.4253
11039TIP3   OH254531   0.846   5.894  15.489 -0.3652 -0.1725 -0.2764
11039TIP3    H154532   0.816   5.943  15.412  1.5951  2.2211  0.4223
11039TIP3    H254533   0.929   5.855  15.462  0.1173  0.3186  0.4777
11040TIP3   OH254534   4.201   1.214  12.884  0.4345  0.5753  0.1231
11040TIP3    H154535   4.276   1.156  12.882  0.2826  0.3810  0.0166
11040TIP3    H254536   4.233   1.294  12.925  0.4833  0.1823  0.8655
11041TIP3   OH254537   3.887   0.249   2.028  0.3006  0.0967 -0.3818
11041TIP3    H154538   3.951   0.307   1.987  0.1319  0.1180 -0.6104
11041TIP3    H254539   3.934   0.166   2.039  0.8815  0.5761  0.8941
11042TIP3   OH254540   2.319   6.366   4.841 -0.3374 -0.0075 -0.2356
11042TIP3    H154541   2.239   6.358   4.788 -1.9722 -1.1622  2.2736
11042TIP3    H254542   2.314   6.454   4.878 -1.8762 -0.9644  1.9835
11043TIP3   OH254543   3.137   1.946  12.237 -0.6298  0.2255 -0.3945
11043TIP3    H154544   3.102   1.934  12.326 -2.9782  2.1302 -0.9982
11043TIP3    H254545   3.174   2.035  12.238  0.7667 -0.3324 -0.8926
11044TIP3   OH254546   3.348   6.067   4.091  0.6944  0.8522 -0.4611
11044TIP3    H154547   3.400   6.139   4.128  2.3164 -0.0721 -0.8845
11044TIP3    H254548   3.408   6.024   4.030 -0.2856 -0.8044 -0.2729
11045TIP3   OH254549   2.845   3.156  14.365 -0.2040 -0.2891  0.3958
11045TIP3    H154550   2.761   3.119  14.393  0.9524 -2.5413  1.0196
11045TIP3    H254551   2.891   3.175  14.447  0.0590  0.5605  0.0527
11046TIP3   OH254552   4.644   1.503   4.894  0.1249  0.2328 -0.4179
11046TIP3    H154553   4.606   1.430   4.944  2.3047 -1.3651 -1.0216
11046TIP3    H254554   4.639   1.578   4.954 -1.1568 -0.6508  0.6243
11047TIP3   OH254555   6.414   4.747  15.455 -0.0515  0.5648 -0.5009
11047TIP3    H154556   6.327   4.781  15.435 -0.1416  0.5403 -0.1555
11047TIP3    H254557   6.399   4.666  15.504  0.1600  0.7895 -0.0551
11048TIP3   OH254558   6.016   1.802   3.856  0.0529 -0.4037  0.6732
11048TIP3    H154559   5.994   1.886   3.896 -1.4837 -0.5939  0.2333
11048TIP3    H254560   6.112   1.797   3.863  0.1888  1.5054  0.4480
11049TIP3   OH254561   6.194   5.151  14.799 -0.0857  1.3707 -0.0660
11049TIP3    H154562   6.218   5.149  14.706 -0.4057  0.9264 -0.1396
11049TIP3    H254563   6.098   5.146  14.799  0.0150 -0.6755  0.3600
11050TIP3   OH254564   5.592   6.062  15.156  0.0873 -0.0289 -0.2607
11050TIP3    H154565   5.679   6.104  15.157 -0.2540  0.8870 -2.9658
11050TIP3    H254566   5.592   6.011  15.075 -1.3157 -1.3413  0.5547
11051TIP3   OH254567   6.082   2.354   4.029 -0.0850 -0.0290  0.4252
11051TIP3    H154568   6.094   2.292   3.958 -0.2992  1.0253 -0.5427
11051TIP3    H254569   5.996   2.334   4.065 -0.5561  0.3049 -0.4935
11052TIP3   OH254570   6.736   3.759   5.448  0.0404 -0.0017 -0.1237
11052TIP3    H154571   6.720   3.776   5.355 -0.7896 -1.0829 -0.1869
11052TIP3    H254572   6.651   3.731   5.483  0.2521  0.7888  1.0588
11053TIP3   OH254573   0.754   1.019   3.710 -0.3747  0.2782 -0.1326
11053TIP3    H154574   0.781   1.077   3.782 -0.5474  0.5064 -0.2533
11053TIP3    H254575   0.796   0.936   3.730  0.9644  0.8154 -0.6686
11054TIP3   OH254576   5.086   1.476   1.812  0.0106 -0.4124  0.0917
11054TIP3    H154577   5.048   1.562   1.796  0.4648 -0.0420  0.9807
11054TIP3    H254578   5.079   1.431   1.728 -1.8976 -0.1628  0.0882
11055TIP3   OH254579   2.277   5.454   0.590 -0.2223  0.0166 -0.5226
11055TIP3    H154580   2.218   5.440   0.664 -1.3318  0.0212 -1.3881
11055TIP3    H254581   2.355   5.404   0.611  0.3297  1.6955  1.6281
11056TIP3   OH254582   6.156   4.200   1.855  0.0377 -0.2169 -0.0512
11056TIP3    H154583   6.175   4.137   1.784 -1.3421 -0.7735  0.0488
11056TIP3    H254584   6.221   4.269   1.843 -0.6757  0.1176 -2.3931
11057TIP3   OH254585   2.667   6.117  15.462  0.5886  0.4818 -0.0218
11057TIP3    H154586   2.663   6.063  15.541  1.2738  0.2498 -0.1453
11057TIP3    H254587   2.617   6.196  15.485 -0.8408 -0.4085 -0.0165
11058TIP3   OH254588   1.038   4.150   0.687  0.1258  0.5768 -0.2410
11058TIP3    H154589   1.107   4.195   0.637  0.1967 -0.5527 -1.2014
11058TIP3    H254590   0.957   4.190   0.656  0.2008  0.2129 -0.9118
11059TIP3   OH254591   4.996   5.559   4.376  0.1016  0.1965 -0.4922
11059TIP3    H154592   5.030   5.648   4.384  0.3007  0.1631 -0.9069
11059TIP3    H254593   5.021   5.516   4.457  1.3476  0.0744 -0.9409
11060TIP3   OH254594   6.024   4.309   1.419 -0.1307 -0.3820  0.3304
11060TIP3    H154595   6.009   4.346   1.507 -0.0152 -1.3153  0.7498
11060TIP3    H254596   6.015   4.215   1.432  1.0590 -0.5975 -0.4393
11061TIP3   OH254597   4.803   5.195   5.832 -0.1155 -0.1106  0.4985
11061TIP3    H154598   4.886   5.215   5.790 -0.3538  2.2054  1.0593
11061TIP3    H254599   4.770   5.118   5.786  1.3116  0.2371 -1.1359
11062TIP3   OH254600   5.434   4.113  11.355 -0.5916  0.0405  0.3409
11062TIP3    H154601   5.399   4.089  11.441 -0.2523 -0.7300  0.2742
11062TIP3    H254602   5.433   4.031  11.305 -0.1469  0.3341 -0.1584
11063TIP3   OH254603   1.786   1.899  15.941  0.1839  0.1859 -0.0417
11063TIP3    H154604   1.821   1.829  15.997 -1.3555 -0.9157 -0.4334
11063TIP3    H254605   1.837   1.892  15.860 -0.6634 -1.1868 -0.4768
11064TIP3   OH254606   5.079   6.427  14.303 -0.4003  0.4625 -0.0492
11064TIP3    H154607   5.144   6.377  14.255 -1.4400 -1.0998  0.1284
11064TIP3    H254608   4.995   6.395  14.271 -1.1108  0.2308  1.9342
11065TIP3   OH254609   1.172   1.858  16.981 -0.1584  0.2787 -0.8785
11065TIP3    H154610   1.195   1.773  16.942 -0.5247 -0.3449  0.2323
11065TIP3    H254611   1.152   1.837  17.072  1.4974  1.8478 -0.1528
11066TIP3   OH254612   0.347   0.034  14.071  0.3493 -0.7041 -0.0079
11066TIP3    H154613   0.306   0.076  14.146  0.5786 -0.2734 -0.1208
11066TIP3    H254614   0.438   0.064  14.073 -0.1413  1.0360 -1.6676
11067TIP3   OH254615   2.952   3.771   1.405  0.3931 -0.0731 -0.2961
11067TIP3    H154616   2.967   3.713   1.330  0.0498  0.1185 -0.5144
11067TIP3    H254617   2.919   3.713   1.474 -1.2893  0.0700 -0.9516
11068TIP3   OH254618   1.728   3.403   3.298 -0.5555 -0.1692 -0.2390
11068TIP3    H154619   1.768   3.384   3.213  0.2735  0.8933 -0.1083
11068TIP3    H254620   1.792   3.370   3.362 -0.7571 -0.1523 -0.0283
11069TIP3   OH254621   4.400   1.139   1.146  0.8671 -0.4955 -0.9056
11069TIP3    H154622   4.450   1.166   1.069  2.1234  0.0531  0.0748
11069TIP3    H254623   4.455   1.165   1.220 -0.5850 -0.4816  0.1889
11070TIP3   OH254624   5.738   3.744  13.322 -0.0855  0.2767  0.2899
11070TIP3    H154625   5.801   3.673  13.331 -1.6151 -0.8915  2.2065
11070TIP3    H254626   5.670   3.709  13.264 -0.7091  0.2638  1.0189
11071TIP3   OH254627   5.239   1.270   1.163  0.1415  0.5584 -0.1173
11071TIP3    H154628   5.320   1.225   1.187 -0.0527  0.0318 -0.4481
11071TIP3    H254629   5.252   1.360   1.193  0.9117  0.5128 -0.3098
11072TIP3   OH254630   3.744   4.929  16.587 -0.1712 -0.0352  0.5081
11072TIP3    H154631   3.806   4.856  16.588  2.0094  1.7746  2.7270
11072TIP3    H254632   3.701   4.925  16.672 -0.8261  0.6309  0.2164
11073TIP3   OH254633   0.647   5.639  14.460 -0.3161 -0.3520  0.1305
11073TIP3    H154634   0.625   5.578  14.389  0.0221  0.0041 -0.2896
11073TIP3    H254635   0.637   5.726  14.420  0.8984 -0.1705  0.2077
11074TIP3   OH254636   4.977   1.798  11.258 -0.0468 -0.0302 -0.1567
11074TIP3    H154637   4.990   1.704  11.266 -3.2266 -0.5284 -0.0609
11074TIP3    H254638   4.913   1.808  11.188 -0.4607  1.9884  0.4595
11075TIP3   OH254639   3.851   1.262   2.887 -0.5891 -0.3578 -0.4820
11075TIP3    H154640   3.943   1.238   2.899 -0.4378  0.1690 -0.5805
11075TIP3    H254641   3.807   1.179   2.871  0.1783 -0.4345 -2.3687
11076TIP3   OH254642   2.444   4.339   2.150  0.1648 -0.5196  0.6163
11076TIP3    H154643   2.485   4.261   2.112  0.2301  0.3688 -1.1870
11076TIP3    H254644   2.351   4.317   2.154 -0.1835  0.1707 -2.2235
11077TIP3   OH254645   5.486   0.019  14.515 -0.4547 -0.2802  0.1297
11077TIP3    H154646   5.573  -0.006  14.485 -0.0178  1.2915  0.0412
11077TIP3    H254647   5.463  -0.047  14.580  0.6333 -0.9224 -0.1198
11078TIP3   OH254648   4.014   3.908  12.119 -0.6322  0.0824 -0.0512
11078TIP3    H154649   3.964   3.952  12.051 -0.4045  1.0011  0.3732
11078TIP3    H254650   4.080   3.971  12.146  1.9944 -1.7831 -1.9167
11079TIP3   OH254651   4.034   2.725  12.920  0.2220 -0.7140 -0.0629
11079TIP3    H154652   4.001   2.683  12.999 -2.4591  0.6661 -0.3942
11079TIP3    H254653   4.070   2.653  12.868  0.7498 -1.8181  1.7860
11080TIP3   OH254654   4.867   2.058  14.484 -0.4127 -0.4401 -0.7091
11080TIP3    H154655   4.930   2.127  14.502  0.5483 -1.6970  0.9941
11080TIP3    H254656   4.782   2.096  14.506  0.1908 -0.0372  1.0050
11081TIP3   OH254657   6.631   2.429  12.180  0.0369  0.4081 -1.1323
11081TIP3    H154658   6.616   2.501  12.119  0.2818 -0.2029 -1.9214
11081TIP3    H254659   6.665   2.472  12.259 -0.3630  1.2131 -1.3890
11082TIP3   OH254660   3.330   0.680  11.389 -0.5769 -0.3323  0.3499
11082TIP3    H154661   3.298   0.616  11.326  1.4915 -0.0281 -1.0606
11082TIP3    H254662   3.341   0.761  11.338 -0.2604  0.3194  1.4181
11083TIP3   OH254663   4.603   0.285   3.648  0.1444  0.4507 -0.1833
11083TIP3    H154664   4.540   0.346   3.687  0.3963  1.7409 -1.7462
11083TIP3    H254665   4.645   0.335   3.579  2.5386 -0.5610  0.4851
11084TIP3   OH254666   1.943   5.548  12.047 -0.0265 -0.4202  0.2242
11084TIP3    H154667   2.026   5.502  12.035 -0.2348 -0.5013 -0.9681
11084TIP3    H254668   1.894   5.494  12.108  0.1060 -1.3089 -0.4420
11085TIP3   OH254669   3.952   0.809   0.164 -0.0787 -0.4033  0.1662
11085TIP3    H154670   3.879   0.867   0.144 -0.7639 -1.6344 -0.9903
11085TIP3    H254671   3.925   0.724   0.129  1.4405 -1.1222  0.7132
11086TIP3   OH254672   4.884   5.398  12.666 -0.0573 -0.3404  0.3409
11086TIP3    H154673   4.841   5.467  12.615 -1.8402 -2.0349 -0.5116
11086TIP3    H254674   4.829   5.387  12.743 -0.0336 -1.0979  0.2557
11087TIP3   OH254675   4.178   3.614   5.110 -0.5336 -0.2475  0.5906
11087TIP3    H154676   4.096   3.616   5.062  0.2521 -0.8283 -0.8050
11087TIP3    H254677   4.202   3.522   5.114 -0.1224 -0.1188  1.2960
11088TIP3   OH254678   5.434   4.378  14.747  0.4480  0.3814 -0.3841
11088TIP3    H154679   5.367   4.372  14.680  0.8943 -1.8212 -0.6721
11088TIP3    H254680   5.509   4.419  14.703  0.0470  0.8528 -0.6371
11089TIP3   OH254681   0.604   4.763   3.778  0.0758  0.0127 -0.2030
11089TIP3    H154682   0.697   4.784   3.786  0.3578 -0.4660 -1.8784
11089TIP3    H254683   0.598   4.717   3.694 -1.9068  1.3822 -0.8381
11090TIP3   OH254684   4.656   3.371  13.301  0.3705  0.0523  0.0949
11090TIP3    H154685   4.706   3.290  13.301  1.3707  0.6363 -2.2242
11090TIP3    H254686   4.572   3.348  13.340 -0.0691 -2.5574 -2.2590
11091TIP3   OH254687   1.909   3.050   4.717 -0.4379 -0.1712 -0.3324
11091TIP3    H154688   1.908   2.972   4.661 -1.6165 -1.5753  1.5714
11091TIP3    H254689   1.996   3.088   4.703 -0.6170 -0.5801 -2.9232
11092TIP3   OH254690   3.868   2.331   5.504  0.5349 -0.3421  0.0210
11092TIP3    H154691   3.956   2.312   5.538  1.1036 -0.7529 -1.6436
11092TIP3    H254692   3.877   2.322   5.409 -0.9275  1.2243 -0.2757
11093TIP3   OH254693   3.927   0.266  13.649 -0.3509  0.2841 -0.3879
11093TIP3    H154694   4.004   0.272  13.706 -1.5883 -1.7027  1.5595
11093TIP3    H254695   3.961   0.280  13.561  1.8762  1.7046  0.6704
11094TIP3   OH254696   5.745   0.228   3.285 -0.1675  0.6033  0.5855
11094TIP3    H154697   5.724   0.274   3.367 -2.8449 -0.4112  0.5083
11094TIP3    H254698   5.723   0.290   3.216 -0.6667  0.4188  0.5741
11095TIP3   OH254699   4.187   2.413   0.080 -0.1699 -0.2861 -0.1398
11095TIP3    H154700   4.213   2.323   0.101 -0.2170 -0.4100 -0.6205
11095TIP3    H254701   4.106   2.404   0.031  0.3096 -0.0226 -0.9808
11096TIP3   OH254702   3.556   2.473  11.673 -0.1923 -0.4099 -0.3952
11096TIP3    H154703   3.566   2.547  11.614 -1.7298  2.1082  2.3859
11096TIP3    H254704   3.640   2.465  11.717 -0.4220  0.4788  0.2023
11097TIP3   OH254705   3.745   5.313  14.207  0.2025 -0.3089  0.2670
11097TIP3    H154706   3.688   5.298  14.282 -0.9477 -1.5762 -0.8435
11097TIP3    H254707   3.828   5.272  14.231 -0.0747 -0.4669  0.9497
11098TIP3   OH254708   6.393   6.403   0.595 -0.4573  0.3544  0.0147
11098TIP3    H154709   6.350   6.353   0.664  2.9796 -0.6843  1.5186
11098TIP3    H254710   6.344   6.382   0.515 -1.7237 -1.9872  1.3692
11099TIP3   OH254711   5.163   4.691  14.683 -0.0569  0.1317  0.4875
11099TIP3    H154712   5.227   4.709  14.614 -0.9035  1.0413 -0.0710
11099TIP3    H254713   5.080   4.680  14.636 -0.5695  0.3749  1.3340
11100TIP3   OH254714   3.538   4.244  16.690  0.0393 -0.0086  0.5260
11100TIP3    H154715   3.630   4.227  16.712 -0.0761 -0.7488  0.4645
11100TIP3    H254716   3.536   4.337  16.668  0.6065  0.2117  1.3587
11101TIP3   OH254717   1.282   3.563   5.076  0.4980  0.2802  0.0133
11101TIP3    H154718   1.233   3.576   5.157  0.2607  2.3374 -0.4404
11101TIP3    H254719   1.373   3.579   5.100  0.6137 -0.6370  0.2039
11102TIP3   OH254720   0.695   0.546  16.884  0.0378  0.4738  0.2232
11102TIP3    H154721   0.644   0.613  16.931  1.0409  2.5656 -1.5895
11102TIP3    H254722   0.637   0.519  16.813  0.5635  1.1784 -0.4729
11103TIP3   OH254723   4.226   0.448  16.176 -0.4949 -0.2199  0.4387
11103TIP3    H154724   4.184   0.448  16.262 -0.5077  0.2409  0.4329
11103TIP3    H254725   4.315   0.478  16.192 -0.1517 -1.2389  0.4556
11104TIP3   OH254726   2.756   1.975  12.587 -0.6290  0.3744  0.1206
11104TIP3    H154727   2.771   1.980  12.681  1.7641  1.5692 -0.2839
11104TIP3    H254728   2.687   2.039  12.570 -0.9102  0.3205  1.0280
11105TIP3   OH254729   5.877   6.000  12.150  0.3189  0.9396  0.1280
11105TIP3    H154730   5.788   6.033  12.163 -0.3553 -0.0897 -1.6313
11105TIP3    H254731   5.929   6.042  12.218 -1.4763  1.7272  1.0407
11106TIP3   OH254732   2.165   0.257   4.411  0.6832  0.1622  0.1339
11106TIP3    H154733   2.174   0.229   4.320 -0.3661 -1.4637  0.5102
11106TIP3    H254734   2.195   0.182   4.463 -2.1482 -0.3257  1.1635
11107TIP3   OH254735   0.441   6.758  12.956 -0.4669  0.1404  0.1965
11107TIP3    H154736   0.464   6.761  13.049  0.2650 -0.8484  0.0557
11107TIP3    H254737   0.404   6.671  12.943 -0.8937  0.3983 -0.3703
11108TIP3   OH254738   6.481   3.114   0.574  0.4676 -0.9063 -0.3686
11108TIP3    H154739   6.419   3.188   0.571  0.3679 -0.5488  5.0637
11108TIP3    H254740   6.427   3.036   0.564 -0.8240 -0.5419  3.2207
11109TIP3   OH254741   1.013   2.517   4.542 -0.0318  0.3212  0.0877
11109TIP3    H154742   0.965   2.577   4.600 -3.8039 -0.1399 -2.3282
11109TIP3    H254743   1.042   2.572   4.470  1.2111  0.1833  0.4754
11110TIP3   OH254744   4.340   0.296  16.775 -0.0603  0.0117  0.2557
11110TIP3    H154745   4.337   0.313  16.869 -0.3773 -2.3671  0.7119
11110TIP3    H254746   4.364   0.203  16.768 -1.7564 -0.3215 -1.9459
11111TIP3   OH254747   2.285   1.220   2.164 -0.2343  0.2149 -0.3796
11111TIP3    H154748   2.205   1.230   2.112  0.4686 -0.7008 -1.6801
11111TIP3    H254749   2.320   1.308   2.172  0.8109  0.1399 -3.4068
11112TIP3   OH254750   4.199   0.423  13.394  0.0110  0.0834 -0.8162
11112TIP3    H154751   4.141   0.452  13.324 -2.2434 -2.2937 -0.0112
11112TIP3    H254752   4.170   0.472  13.471 -1.8962 -2.0501 -0.1131
11113TIP3   OH254753   0.291   1.296   1.427 -0.1263  0.0153 -0.0118
11113TIP3    H154754   0.236   1.322   1.354 -1.2451  0.0777  0.8409
11113TIP3    H254755   0.378   1.330   1.405 -0.7846  1.3382 -0.6113
11114TIP3   OH254756   0.379   1.723   1.686  0.6479  0.4085  0.3330
11114TIP3    H154757   0.433   1.643   1.687  0.8259  0.5176 -0.3754
11114TIP3    H254758   0.291   1.692   1.708  0.8451  0.1138  0.7225
11115TIP3   OH254759   5.481   1.023  16.947 -0.3814 -0.3234 -0.0425
11115TIP3    H154760   5.409   0.961  16.958  0.4068 -1.4189 -0.8393
11115TIP3    H254761   5.460   1.071  16.867 -0.8754  0.2725  0.4416
11116TIP3   OH254762   3.532   5.840  15.753  0.0367 -0.1470  0.1796
11116TIP3    H154763   3.454   5.835  15.698  0.3572 -1.9029 -0.1336
11116TIP3    H254764   3.573   5.923  15.729 -1.5245  0.6130  0.0712
11117TIP3   OH254765   2.331   6.158  13.587  0.1534  0.9620 -0.1631
11117TIP3    H154766   2.285   6.241  13.575 -1.2813  0.1112 -0.7579
11117TIP3    H254767   2.418   6.183  13.617 -0.8931  2.6188  1.6582
11118TIP3   OH254768   4.713   5.879   4.110 -0.0076  0.0937  0.4838
11118TIP3    H154769   4.636   5.930   4.083  0.2930 -0.5126 -1.6166
11118TIP3    H254770   4.678   5.809   4.164 -0.8340  0.3968  0.3431
11119TIP3   OH254771   5.880   4.381  17.168  0.3597 -0.5966 -0.3427
11119TIP3    H154772   5.939   4.387  17.093 -0.7983  1.1856 -1.1507
11119TIP3    H254773   5.858   4.288  17.174  1.4332 -0.9337 -1.4563
11120TIP3   OH254774   6.153   4.595   3.454 -0.8228  0.6796 -0.0078
11120TIP3    H154775   6.225   4.539   3.424 -0.0712  1.1829  0.8221
11120TIP3    H254776   6.127   4.558   3.538 -0.5357  1.3795  0.3922
11121TIP3   OH254777   3.678   3.975   2.408  0.6163 -0.2115  0.4366
11121TIP3    H154778   3.688   4.055   2.461 -0.4874  0.1116  0.1768
11121TIP3    H254779   3.690   4.004   2.318 -0.5420 -0.1857  0.2820
11122TIP3   OH254780   1.021   6.388  14.902 -0.0855  0.3548 -0.5158
11122TIP3    H154781   1.090   6.332  14.938 -0.1200  0.9998  0.5809
11122TIP3    H254782   1.039   6.390  14.808  0.3607 -0.8740 -0.4690
11123TIP3   OH254783   4.126   3.450  15.858 -0.2719 -0.0970  0.0010
11123TIP3    H154784   4.185   3.425  15.929 -1.6717 -2.5812  0.3326
11123TIP3    H254785   4.055   3.498  15.901 -1.5145 -2.2691  0.4128
11124TIP3   OH254786   6.562   2.635  14.971 -0.5753  0.2426 -0.3385
11124TIP3    H154787   6.609   2.601  14.894 -0.0756 -1.9559  0.9011
11124TIP3    H254788   6.522   2.716  14.940  1.5201  0.6017 -2.2892
11125TIP3   OH254789   5.711   4.349   4.349 -0.0626 -0.0642  0.0975
11125TIP3    H154790   5.768   4.408   4.299  0.5624 -0.4402  0.3610
11125TIP3    H254791   5.771   4.285   4.388 -0.5711  0.0742  1.1160
11126TIP3   OH254792   6.279   0.896  10.431 -0.2623 -0.5100  0.1523
11126TIP3    H154793   6.295   0.888  10.524 -0.3273 -2.4757  0.0173
11126TIP3    H254794   6.227   0.976  10.422  0.7774  0.3497  1.6449
11127TIP3   OH254795   6.067   1.133  14.559 -0.3848  0.3997 -0.7098
11127TIP3    H154796   6.061   1.140  14.463  0.9915 -1.3158 -0.9446
11127TIP3    H254797   6.084   1.040  14.575  0.2161  0.8155  1.1569
11128TIP3   OH254798   6.286   5.178   3.253 -0.0319  0.2032  0.2521
11128TIP3    H154799   6.344   5.149   3.182 -0.7153  0.4340 -0.4050
11128TIP3    H254800   6.330   5.148   3.333 -0.8080 -2.8636 -0.4032
11129TIP3   OH254801   1.106   6.528   0.740  0.5324  0.5474  0.2049
11129TIP3    H154802   1.141   6.506   0.826 -0.7683  0.0204  0.6085
11129TIP3    H254803   1.011   6.537   0.754  0.0906 -1.1931 -1.5042
11130TIP3   OH254804   0.912   0.468   4.768  0.4636  0.1151  0.2386
11130TIP3    H154805   0.893   0.504   4.682 -0.3816 -0.6771  0.0829
11130TIP3    H254806   0.944   0.380   4.751  0.2842 -0.0484  0.7362
11131TIP3   OH254807   3.293   2.662  12.053 -0.4499 -0.8280 -0.5894
11131TIP3    H154808   3.293   2.624  11.965  1.8458 -1.6913 -0.2482
11131TIP3    H254809   3.240   2.741  12.044  0.5709 -0.3600 -2.9943
11132TIP3   OH254810   0.801   2.711  10.746 -0.2364  0.6053  0.0579
11132TIP3    H154811   0.865   2.663  10.799  0.6042  0.4868 -1.0361
11132TIP3    H254812   0.851   2.740  10.669 -1.7683 -0.4489 -1.3620
11133TIP3   OH254813   0.341   3.206  10.593 -0.6367 -0.0257 -0.0294
11133TIP3    H154814   0.246   3.203  10.583 -0.5718 -1.4166 -0.3460
11133TIP3    H254815   0.372   3.252  10.515 -1.0256  0.1148 -0.0998
11134TIP3   OH254816   6.543   0.834   0.527  0.2592 -0.4395 -0.0696
11134TIP3    H154817   6.608   0.850   0.596 -2.4161 -2.2339  3.0606
11134TIP3    H254818   6.545   0.739   0.514 -0.1565 -0.2493 -1.5708
11135TIP3   OH254819   6.785   2.330  16.695  0.0233  0.0310  0.1075
11135TIP3    H154820   6.782   2.238  16.722  1.0914 -0.3670 -1.0432
11135TIP3    H254821   6.702   2.367  16.724  0.2681 -0.8762  2.0472
11136TIP3   OH254822   2.017   3.730   4.958  0.5719  0.9379  0.3743
11136TIP3    H154823   1.992   3.688   4.875 -0.0961 -0.3380  1.2080
11136TIP3    H254824   2.101   3.690   4.980 -0.3473 -0.4154  1.4701
11137TIP3   OH254825   6.530   0.040  14.540 -0.1783 -0.1722  0.5953
11137TIP3    H154826   6.597   0.106  14.555 -1.7058  1.5387  0.0194
11137TIP3    H254827   6.483   0.033  14.623 -1.5094  1.2248  0.0064
11138TIP3   OH254828   5.252   3.909  12.897 -0.0218 -0.0464 -0.4973
11138TIP3    H154829   5.226   3.919  12.806  1.3971  0.9891 -0.7963
11138TIP3    H254830   5.314   3.980  12.913 -0.0726 -0.3559  1.2073
11139TIP3   OH254831   3.018   3.541  15.188  0.5394  0.0494 -0.7065
11139TIP3    H154832   3.111   3.517  15.189  0.7757  0.9620  0.2353
11139TIP3    H254833   2.981   3.488  15.117  1.2510 -2.2939  0.6084
11140TIP3   OH254834   1.146   6.610  13.437 -0.2973  0.5296  0.1933
11140TIP3    H154835   1.146   6.537  13.376 -0.2006  0.5659  0.1509
11140TIP3    H254836   1.074   6.666  13.407 -1.4152 -0.3414  1.1859
11141TIP3   OH254837   3.176   2.088  14.211  0.6428  0.4741 -0.0091
11141TIP3    H154838   3.241   2.035  14.164  0.4670  0.3351 -0.0991
11141TIP3    H254839   3.102   2.029  14.223  1.2348  0.0526  1.7349
11142TIP3   OH254840   2.470   0.277  14.932  0.3592 -0.5241  0.0201
11142TIP3    H154841   2.460   0.235  14.847  1.1870  0.9062 -0.8109
11142TIP3    H254842   2.562   0.266  14.955 -0.2107 -2.4001  1.5663
11143TIP3   OH254843   5.318   4.049   1.049 -0.5811  0.3869  0.4670
11143TIP3    H154844   5.249   4.016   0.992  0.4576 -2.5026  0.8091
11143TIP3    H254845   5.273   4.084   1.125 -1.7148 -0.7899  0.3439
11144TIP3   OH254846   1.176   6.214  14.322 -0.3004  0.0374 -0.0200
11144TIP3    H154847   1.238   6.279  14.355 -0.7045  1.4121 -1.8739
11144TIP3    H254848   1.099   6.224  14.378 -0.5482  1.5333 -0.6048
11145TIP3   OH254849   0.560   1.600  12.081  0.4256 -0.1625  0.3536
11145TIP3    H154850   0.581   1.665  12.014 -0.6985 -1.2216 -1.0648
11145TIP3    H254851   0.468   1.577  12.065  1.7987 -4.8503 -1.6311
11146TIP3   OH254852   1.641   4.002   5.178  0.4256  0.0746 -0.1784
11146TIP3    H154853   1.618   3.954   5.258  2.0516 -1.1385 -0.4088
11146TIP3    H254854   1.612   4.091   5.194 -0.0115 -0.3485  1.4465
11147TIP3   OH254855   6.094   1.887  11.769  0.2322 -0.1188 -0.3048
11147TIP3    H154856   6.018   1.944  11.753 -0.0876 -0.3785  0.2922
11147TIP3    H254857   6.144   1.891  11.688 -1.9670 -2.3497 -1.8323
11148TIP3   OH254858   3.121   2.808   4.792 -0.2748  0.6799 -0.3629
11148TIP3    H154859   3.171   2.806   4.874 -0.4970  1.1018 -0.2156
11148TIP3    H254860   3.033   2.834   4.818 -0.8747 -1.2132 -0.4778
11149TIP3   OH254861   2.257   2.337   0.033  0.2437 -0.3241 -0.0084
11149TIP3    H154862   2.246   2.285   0.112  2.0793 -1.4920 -0.5135
11149TIP3    H254863   2.339   2.384   0.046 -0.5165  1.1325 -0.3196
11150TIP3   OH254864   6.020   4.034   0.887 -0.3194  0.2151  0.6376
11150TIP3    H154865   5.971   3.987   0.954 -0.4573  2.3345  2.0470
11150TIP3    H254866   5.994   4.125   0.897  0.7203  0.7686 -1.3843
11151TIP3   OH254867   6.538   1.839  13.057  0.7293  0.3851  0.5284
11151TIP3    H154868   6.623   1.795  13.060  1.1404  1.2320  1.7628
11151TIP3    H254869   6.524   1.857  12.964  1.5008 -0.5144  0.2230
11152TIP3   OH254870   6.752   1.581   3.253 -0.0075 -0.1751  0.0483
11152TIP3    H154871   6.753   1.665   3.207  1.1841 -0.5327 -0.6063
11152TIP3    H254872   6.663   1.548   3.241  0.3076 -0.3303 -2.1508
11153TIP3   OH254873   1.382   0.564  15.127 -0.8702  0.3638 -0.0693
11153TIP3    H154874   1.415   0.534  15.042  0.4155  1.0840  0.1560
11153TIP3    H254875   1.406   0.494  15.188 -3.4130 -0.9972 -0.5906
11154TIP3   OH254876   6.711   6.543   3.898  0.5004 -0.0452  0.1356
11154TIP3    H154877   6.680   6.551   3.988 -0.7235  2.4161 -0.4453
11154TIP3    H254878   6.771   6.617   3.887  0.6898 -0.3705 -1.0412
11155TIP3   OH254879   0.481   3.233   0.691 -0.9288  0.1699  0.0170
11155TIP3    H154880   0.387   3.224   0.706 -0.7133  0.0580  1.3709
11155TIP3    H254881   0.517   3.150   0.721 -0.1077  1.2607  2.1218
11156TIP3   OH254882   4.481   2.502  15.996  0.0295  0.1079 -0.2309
11156TIP3    H154883   4.516   2.501  15.907 -1.0306 -0.3816 -0.6469
11156TIP3    H254884   4.478   2.594  16.021 -1.0825  0.3556 -1.2679
11157TIP3   OH254885   4.383   0.710  14.909  1.4433 -0.2448 -0.5084
11157TIP3    H154886   4.424   0.796  14.893 -0.9480  0.8662 -0.8970
11157TIP3    H254887   4.342   0.688  14.825  0.9567 -1.1585 -0.0281
11158TIP3   OH254888   0.063   6.480  10.721 -0.1493 -0.4125  0.2865
11158TIP3    H154889   0.093   6.437  10.801  0.6935  0.0398  0.2150
11158TIP3    H254890  -0.016   6.432  10.696 -1.0563  0.1410  2.0039
11159TIP3   OH254891   4.981   3.052   5.065  0.4596  0.0437  0.0698
11159TIP3    H154892   4.908   3.030   5.007  0.3167  2.0277 -0.5406
11159TIP3    H254893   4.942   3.104   5.135  1.1469  0.4651  0.1530
11160TIP3   OH254894   5.537   2.748  17.009 -0.4437  0.2442 -0.4700
11160TIP3    H154895   5.539   2.658  16.975  1.4752  0.2625 -0.4297
11160TIP3    H254896   5.559   2.739  17.102 -0.4402  0.7339 -0.4224
11161TIP3   OH254897   2.676   4.249  14.718  0.6614 -0.1368  0.2383
11161TIP3    H154898   2.717   4.220  14.800 -0.2300  1.6348  1.3402
11161TIP3    H254899   2.669   4.344  14.727  0.3922  0.0731 -1.8448
11162TIP3   OH254900   2.855   1.350   5.300  0.3035 -0.5512 -0.2637
11162TIP3    H154901   2.929   1.410   5.310  0.2694 -0.8107  1.7307
11162TIP3    H254902   2.782   1.395   5.342 -0.2208 -1.1265 -0.5548
11163TIP3   OH254903   6.542   3.902   0.210 -0.5842  0.3913  0.0505
11163TIP3    H154904   6.510   3.814   0.189 -0.4620  0.6395 -1.2106
11163TIP3    H254905   6.462   3.953   0.224 -0.6396 -0.1488  1.7657
11164TIP3   OH254906   5.118   2.135   4.622  0.1204 -0.0973  0.2722
11164TIP3    H154907   5.084   2.048   4.643 -1.9191  1.0933  2.1429
11164TIP3    H254908   5.141   2.173   4.707 -0.2563  1.6871 -0.3995
11165TIP3   OH254909   1.732   3.622   4.054  0.1533  0.1101  0.3081
11165TIP3    H154910   1.699   3.669   3.977 -1.6351  0.4415  1.2498
11165TIP3    H254911   1.664   3.635   4.121  1.5869 -0.3461  1.8768
11166TIP3   OH254912   5.644   2.798  13.251 -0.3908  0.4055  0.0730
11166TIP3    H154913   5.603   2.741  13.186 -0.2230 -1.8846  1.9148
11166TIP3    H254914   5.582   2.871  13.261 -0.6763  0.4994 -2.2095
11167TIP3   OH254915   2.298   2.985   0.581 -0.0178 -0.3447  0.3446
11167TIP3    H154916   2.304   3.073   0.617 -0.1117 -0.3931  0.4780
11167TIP3    H254917   2.219   2.987   0.526  0.8094  0.0879 -0.8522
11168TIP3   OH254918   0.316   0.815   4.899  0.1057  0.3779  0.4860
11168TIP3    H154919   0.244   0.812   4.962 -0.6070 -4.1305 -0.4154
11168TIP3    H254920   0.277   0.848   4.819 -0.7555 -1.0620  0.3022
11169TIP3   OH254921   2.447   4.466  15.894 -0.6252 -1.1621  0.0184
11169TIP3    H154922   2.430   4.543  15.841 -1.1134 -2.0795 -1.1803
11169TIP3    H254923   2.471   4.398  15.831 -0.0915 -1.9590  1.0665
11170TIP3   OH254924   3.523   6.533   3.999  0.1921 -0.1735  0.2526
11170TIP3    H154925   3.531   6.519   3.905 -0.3407 -1.5807  0.4129
11170TIP3    H254926   3.574   6.612   4.016 -0.9995  0.9960 -1.4605
11171TIP3   OH254927   5.711   0.646   3.854 -0.2225 -0.1827 -0.3385
11171TIP3    H154928   5.641   0.682   3.799 -0.4533 -0.5935 -0.3155
11171TIP3    H254929   5.667   0.581   3.909  0.2149 -0.5765 -0.4546
11172TIP3   OH254930   5.259   6.213   3.570  0.3408 -0.3881 -0.3302
11172TIP3    H154931   5.307   6.147   3.520 -0.1473 -0.2741 -0.9566
11172TIP3    H254932   5.324   6.280   3.591  0.5622 -0.4746 -0.7398
11173TIP3   OH254933   4.905   1.500   1.355 -0.3157 -0.0695 -0.0592
11173TIP3    H154934   4.978   1.440   1.338  1.3373  1.9140 -0.1672
11173TIP3    H254935   4.886   1.539   1.270 -1.5538 -0.6091 -0.0369
11174TIP3   OH254936   3.846   1.640   1.849  0.1346  0.7608  0.0384
11174TIP3    H154937   3.918   1.620   1.788 -1.1339  0.4630 -1.3994
11174TIP3    H254938   3.860   1.731   1.873 -0.7492  1.7045 -2.7360
11175TIP3   OH254939   0.456   5.822   2.669  0.2039  0.3034  0.1287
11175TIP3    H154940   0.474   5.727   2.673 -0.5218  0.1716  0.2555
11175TIP3    H254941   0.451   5.841   2.576 -3.2406 -0.4774  0.0851
11176TIP3   OH254942   1.818   0.886   2.383  0.2271  0.1399  0.4010
11176TIP3    H154943   1.758   0.851   2.448  1.0608 -0.1863  0.9988
11176TIP3    H254944   1.762   0.935   2.323 -0.7767 -1.1523  0.2710
11177TIP3   OH254945   4.862   5.153  16.680  0.7078 -0.4397 -0.0303
11177TIP3    H154946   4.876   5.085  16.746  1.6719 -0.3145 -0.0969
11177TIP3    H254947   4.891   5.234  16.723 -1.3838  0.1122  0.4205
11178TIP3   OH254948   3.375   2.185  11.429 -0.3951  0.1046 -0.3931
11178TIP3    H154949   3.298   2.171  11.484  1.2978  0.6267  2.2189
11178TIP3    H254950   3.405   2.097  11.406  0.3650 -0.2257  1.7292
11179TIP3   OH254951   3.035   6.234  12.207  0.0641  0.3704 -0.1411
11179TIP3    H154952   2.976   6.159  12.214 -0.8552  1.2627  1.8210
11179TIP3    H254953   3.119   6.200  12.238 -0.3170  0.1026  0.6214
11180TIP3   OH254954   1.103   6.268   1.114 -0.5396 -0.4772  0.0334
11180TIP3    H154955   1.179   6.318   1.144 -2.4806  1.9438  1.0868
11180TIP3    H254956   1.092   6.292   1.022  0.6677 -1.7854 -0.4731
11181TIP3   OH254957   1.800   3.999  15.939  0.2694 -0.0222 -0.5513
11181TIP3    H154958   1.796   3.993  15.844  1.1223 -0.4141 -0.5707
11181TIP3    H254959   1.892   3.985  15.960 -0.3939 -3.2741  0.5431
11182TIP3   OH254960   3.347   5.459  14.965  0.0453 -0.5518 -0.0067
11182TIP3    H154961   3.372   5.550  14.944 -0.2419  0.0305  2.0580
11182TIP3    H254962   3.271   5.442  14.911  0.2700  0.3588 -0.6216
11183TIP3   OH254963   6.536   2.377   0.538 -0.1490 -0.4446 -0.4630
11183TIP3    H154964   6.503   2.297   0.497 -3.3822 -1.1650  3.2813
11183TIP3    H254965   6.505   2.447   0.481 -0.5293 -1.6379 -1.7639
11184TIP3   OH254966   0.932   0.612   4.506 -0.1420 -0.0432  0.1052
11184TIP3    H154967   0.995   0.679   4.529  0.1742 -0.0006 -0.8687
11184TIP3    H254968   0.874   0.654   4.443 -1.9587  0.3307  1.9714
11185TIP3   OH254969   1.782   4.174  14.414  0.4535 -0.0445 -0.7652
11185TIP3    H154970   1.794   4.229  14.491  0.4433  1.2868 -1.7076
11185TIP3    H254971   1.750   4.233  14.347  0.8968 -1.1067 -1.9303
11186TIP3   OH254972   5.777   6.038  11.483  0.1919 -0.3319  0.2962
11186TIP3    H154973   5.733   5.971  11.535 -0.6687 -1.6077 -2.0119
11186TIP3    H254974   5.760   6.013  11.392  0.8998  2.3381 -0.6147
11187TIP3   OH254975   6.279   2.118   1.397  0.9755 -0.2712 -0.2728
11187TIP3    H154976   6.251   2.148   1.310  1.1692 -0.6799 -0.4773
11187TIP3    H254977   6.253   2.026   1.400 -2.6712  0.7040  1.6366
11188TIP3   OH254978   3.083   1.310   0.995 -0.0150 -0.0374 -0.2222
11188TIP3    H154979   3.090   1.321   1.090  1.7225  2.5072 -0.5905
11188TIP3    H254980   2.996   1.345   0.973 -1.1224 -2.1900  0.5937
11189TIP3   OH254981   0.881   6.106  12.203  0.1535  0.1782  0.1997
11189TIP3    H154982   0.874   6.064  12.289  0.1394  0.8799  0.5547
11189TIP3    H254983   0.839   6.192  12.216  2.1742  1.2167  0.1366
11190TIP3   OH254984   4.985   1.652  11.883 -0.2434 -0.3820  0.4155
11190TIP3    H154985   4.900   1.686  11.912 -0.7343  0.9787 -2.4415
11190TIP3    H254986   4.966   1.564  11.852 -1.2242  0.9406 -2.9065
11191TIP3   OH254987   0.637   5.987   5.991  0.1465 -0.3477  0.1191
11191TIP3    H154988   0.707   6.050   6.005 -0.0640  0.5167 -2.3530
11191TIP3    H254989   0.681   5.910   5.953 -0.0990 -0.1966 -0.4777
11192TIP3   OH254990   2.009   3.392   2.168  0.3068 -0.0662  0.3029
11192TIP3    H154991   1.916   3.398   2.145  0.1481  0.0949  0.9924
11192TIP3    H254992   2.032   3.300   2.155  0.0624 -0.0997  0.1083
11193TIP3   OH254993   2.636   5.309   2.235 -0.8473 -0.1003 -0.2869
11193TIP3    H154994   2.697   5.331   2.164 -0.9226  0.8922 -0.0549
11193TIP3    H254995   2.652   5.376   2.301 -0.3394 -1.3780  0.9180
11194TIP3   OH254996   3.689   6.595  13.154  0.3262 -0.0677 -0.0887
11194TIP3    H154997   3.755   6.664  13.160  0.5346 -0.2080 -0.6927
11194TIP3    H254998   3.624   6.617  13.220 -1.3043  2.5384 -2.4695
11195TIP3   OH254999   2.962   6.286   3.839  0.3742 -0.1783  0.1307
11195TIP3    H155000   2.892   6.351   3.841  0.6439  0.0967  2.1269
11195TIP3    H255001   2.959   6.250   3.750 -3.0269 -0.9737  0.4925
11196TIP3   OH255002   1.740   1.656   3.808  0.3775  0.5682 -0.4833
11196TIP3    H155003   1.716   1.693   3.724  0.4582  0.3633 -0.5964
11196TIP3    H255004   1.690   1.575   3.814 -1.0441  1.4912  0.4727
11197TIP3   OH255005   5.862   2.734  12.417 -0.1560 -0.9805 -0.0459
11197TIP3    H155006   5.875   2.746  12.511  1.6551 -0.1286 -0.3850
11197TIP3    H255007   5.856   2.639  12.406  2.4867 -1.2672  0.6098
11198TIP3   OH255008   1.081   6.244  15.669  0.1424 -0.2315  0.2232
11198TIP3    H155009   1.176   6.230  15.664  0.4542  1.2489  1.7623
11198TIP3    H255010   1.046   6.159  15.696  0.5002 -2.1840 -4.8420
11199TIP3   OH255011   6.072   1.651  12.251 -0.6298  0.4248  0.1859
11199TIP3    H155012   6.149   1.621  12.300 -0.0801 -0.3774 -1.1513
11199TIP3    H255013   6.094   1.636  12.159 -2.4710  0.0114 -0.2028
11200TIP3   OH255014   6.578   4.624   3.963  0.1449 -0.5686  0.2939
11200TIP3    H155015   6.510   4.614   3.896  0.0076  1.0599  0.1660
11200TIP3    H255016   6.649   4.670   3.918 -0.5430  1.8860  1.6285
11201TIP3   OH255017   2.763   1.075   0.828 -0.2582 -0.3081  0.0238
11201TIP3    H155018   2.779   1.169   0.842 -2.0912 -0.1752  1.4515
11201TIP3    H255019   2.706   1.071   0.752  0.0604 -0.2922 -0.2182
11202TIP3   OH255020   5.882   1.860  14.611  0.0856 -0.0184  0.5025
11202TIP3    H155021   5.865   1.809  14.532  0.5344 -1.3987  1.2854
11202TIP3    H255022   5.829   1.939  14.600  0.8254  0.2217 -1.5712
11203TIP3   OH255023   2.241   6.516  15.281 -0.4878  0.1514  0.2233
11203TIP3    H155024   2.224   6.512  15.375  1.3124 -0.9530  0.5349
11203TIP3    H255025   2.269   6.606  15.266 -2.3700  0.7829  0.4421
11204TIP3   OH255026   4.131   0.732  16.439 -0.5175 -0.3701  0.9391
11204TIP3    H155027   4.141   0.735  16.534  0.9397  2.7301  0.7374
11204TIP3    H255028   4.202   0.675  16.409 -0.7121 -0.9920  1.6449
11205TIP3   OH255029   6.640   1.798  11.621 -0.5767 -0.0941 -0.5135
11205TIP3    H155030   6.622   1.742  11.545  0.0700  0.0227 -0.7623
11205TIP3    H255031   6.735   1.793  11.631 -0.8080 -1.2827  1.2078
11206TIP3   OH255032   1.857   3.755   1.421  0.9093  0.8817  0.8845
11206TIP3    H155033   1.947   3.774   1.448  1.4952  0.3017 -0.6503
11206TIP3    H255034   1.862   3.668   1.382 -0.7323 -0.0991  2.7587
11207TIP3   OH255035   4.422   1.146   3.194 -0.5003  0.2022 -0.1526
11207TIP3    H155036   4.462   1.187   3.271 -1.0488 -0.1966  0.3509
11207TIP3    H255037   4.362   1.212   3.160  1.9925  1.5342 -2.0533
11208TIP3   OH255038   4.533   1.352  16.765  0.1854 -0.0671 -0.5384
11208TIP3    H155039   4.540   1.444  16.738 -0.7021 -0.1512 -1.0780
11208TIP3    H255040   4.555   1.302  16.687 -0.3955 -0.3098 -0.5541
11209TIP3   OH255041   2.195   0.157  16.918  0.0453 -0.1250  0.0461
11209TIP3    H155042   2.127   0.094  16.895 -0.0823  0.1014 -0.1898
11209TIP3    H255043   2.219   0.134  17.008 -0.4322 -0.1227  0.1711
11210TIP3   OH255044   0.075   5.206   2.224  0.5470 -0.2064 -0.0905
11210TIP3    H155045   0.037   5.184   2.139  0.4589 -0.8091  0.1022
11210TIP3    H255046   0.078   5.122   2.271 -0.4666  0.3090  0.9240
11211TIP3   OH255047   2.153   0.469   5.681 -0.0616 -0.0025  0.4890
11211TIP3    H155048   2.151   0.382   5.721 -2.0029  0.5663  1.6660
11211TIP3    H255049   2.069   0.509   5.704  0.6636  2.0730 -0.3119
11212TIP3   OH255050   4.667   4.761  13.080  0.1160  0.2296  0.1523
11212TIP3    H155051   4.676   4.856  13.087  2.4143  0.0181  0.6261
11212TIP3    H255052   4.649   4.745  12.988 -3.0634  1.2784  0.5397
11213TIP3   OH255053   3.196   1.113   4.628  0.0049  0.3016  0.1421
11213TIP3    H155054   3.169   1.022   4.639 -0.8215  0.3711 -1.2409
11213TIP3    H255055   3.278   1.108   4.580  0.2001  0.2617  0.4823
11214TIP3   OH255056   6.771   4.320  12.030 -0.6216  0.0039  0.0376
11214TIP3    H155057   6.740   4.372  11.956 -0.3173 -1.8766 -1.4412
11214TIP3    H255058   6.697   4.264  12.054 -1.2278  1.6400  2.1603
11215TIP3   OH255059   3.884   0.113   3.128 -0.0166  0.0306 -0.2699
11215TIP3    H155060   3.932   0.106   3.210  1.0989 -0.9402 -1.0069
11215TIP3    H255061   3.879   0.024   3.094 -0.2845  0.4471 -1.3721
11216TIP3   OH255062   0.312   5.600   2.460  0.1009 -0.0385 -0.0509
11216TIP3    H155063   0.373   5.529   2.478 -0.0612 -0.0230  0.5744
11216TIP3    H255064   0.239   5.558   2.413 -2.1843 -1.2016  4.2753
11217TIP3   OH255065   6.048   5.380   4.177  0.0995 -0.6420 -0.5734
11217TIP3    H155066   6.005   5.318   4.236  1.9484 -0.4511  1.0074
11217TIP3    H255067   6.007   5.364   4.092  0.9579 -4.5042 -0.3399
11218TIP3   OH255068   3.785   5.899  16.099  0.5868 -0.2108  0.0918
11218TIP3    H155069   3.828   5.918  16.183  0.1540 -1.1237  0.5306
11218TIP3    H255070   3.827   5.958  16.036  2.6340 -1.2211  0.4645
11219TIP3   OH255071   0.709   5.661   4.063  0.5464 -0.0595  0.5505
11219TIP3    H155072   0.797   5.644   4.031  1.3801  1.2985  2.0458
11219TIP3    H255073   0.709   5.755   4.084 -1.0784 -0.1601  1.0615
11220TIP3   OH255074   3.574   1.448   2.581 -0.1851 -0.0362 -0.3830
11220TIP3    H155075   3.648   1.445   2.642 -0.5968 -1.5024  0.0769
11220TIP3    H255076   3.513   1.382   2.614 -1.1977  0.3817 -1.3901
11221TIP3   OH255077   0.526   1.056  16.951 -0.1916  0.3519 -0.1665
11221TIP3    H155078   0.568   1.083  17.033  0.1147 -0.6549  0.0274
11221TIP3    H255079   0.443   1.018  16.979 -0.6205  1.1033 -0.4296
11222TIP3   OH255080   6.136   2.671   3.620  0.5066 -0.3146 -0.2006
11222TIP3    H155081   6.142   2.713   3.706 -3.4034 -0.5581  0.3035
11222TIP3    H255082   6.121   2.579   3.640  0.8889 -0.5817 -1.1613
11223TIP3   OH255083   0.887   1.351   2.197 -0.3301  0.5032 -0.7025
11223TIP3    H155084   0.871   1.359   2.103  2.1020 -1.3848 -1.3332
11223TIP3    H255085   0.968   1.300   2.204 -1.1694 -0.5559  2.4526
11224TIP3   OH255086   3.042   4.316  12.328 -0.0088 -0.3323 -0.6600
11224TIP3    H155087   3.043   4.398  12.378  1.3246 -0.9703  0.3826
11224TIP3    H255088   3.122   4.319  12.275  1.3136 -2.0499  1.1912
11225TIP3   OH255089   1.087   0.764   0.540 -0.2178 -0.4700 -0.5156
11225TIP3    H155090   1.001   0.724   0.553 -0.1154 -0.2472  0.9391
11225TIP3    H255091   1.146   0.690   0.523 -0.4354 -0.7399 -0.0899
11226TIP3   OH255092   0.614   1.952   4.156 -0.5447 -0.4450  0.0586
11226TIP3    H155093   0.647   1.941   4.246  1.3722 -0.9851 -0.6837
11226TIP3    H255094   0.596   2.045   4.148 -0.4510 -0.3483  0.9210
11227TIP3   OH255095   2.230   2.398  16.989 -0.5618 -0.0040  0.4297
11227TIP3    H155096   2.208   2.490  16.976  0.8057  0.3596  0.5660
11227TIP3    H255097   2.212   2.382  17.082 -0.1766  0.3187  0.5650
11228TIP3   OH255098   3.244   2.452  14.924 -0.2399  0.4859 -0.7604
11228TIP3    H155099   3.271   2.437  14.834 -0.1852  0.2339 -0.7046
11228TIP3    H255100   3.273   2.373  14.971  1.4713  1.4617 -0.1391
11229TIP3   OH255101   4.274   2.756   3.697 -0.2925  0.1865  0.1488
11229TIP3    H155102   4.292   2.785   3.607  2.1944 -2.4670 -0.3183
11229TIP3    H255103   4.355   2.777   3.744 -0.8296 -0.2765  1.2694
11230TIP3   OH255104   4.316   0.736  15.972 -0.1580  0.0859 -0.0203
11230TIP3    H155105   4.369   0.668  15.931 -0.4620 -0.0919 -0.1151
11230TIP3    H255106   4.231   0.695  15.987 -0.0831  0.1878  0.6832
11231TIP3   OH255107   2.051   0.899   0.010  0.2912  0.6616  0.3778
11231TIP3    H155108   1.978   0.954   0.039 -0.3145 -0.3073  0.7271
11231TIP3    H255109   2.048   0.903  -0.086 -0.9050 -0.2540  0.3746
11232TIP3   OH255110   6.371   5.073   4.234  0.3708 -0.0331  0.6029
11232TIP3    H155111   6.322   5.124   4.298  1.0672  0.1226  1.0171
11232TIP3    H255112   6.338   4.983   4.245  2.0792 -0.4465  2.7876
11233TIP3   OH255113   6.345   4.865  16.086 -0.3056 -0.5173  0.4942
11233TIP3    H155114   6.343   4.830  15.997  3.1175  0.2949  0.0044
11233TIP3    H255115   6.413   4.813  16.130  0.0816  1.0068  1.7331
11234TIP3   OH255116   6.315   2.948   2.826  0.5252 -0.2189 -0.0963
11234TIP3    H155117   6.234   2.900   2.845  0.2720  0.1223 -0.3015
11234TIP3    H255118   6.331   2.999   2.905  0.1468  0.2621 -0.3325
11235TIP3   OH255119   1.058   0.441  10.978 -0.3644 -0.3316  0.0864
11235TIP3    H155120   1.020   0.374  10.921  0.2381  0.4830 -1.3127
11235TIP3    H255121   1.120   0.392  11.033 -0.4181 -1.0328 -0.4584
11236TIP3   OH255122   3.273   6.690  15.346  0.8154  0.1458  0.6369
11236TIP3    H155123   3.243   6.627  15.281  0.1708  0.8364  0.2635
11236TIP3    H255124   3.273   6.775  15.300  0.4178  0.6240  1.5093
11237TIP3   OH255125   0.805   2.670  11.448  0.3490  0.0680  0.0334
11237TIP3    H155126   0.756   2.738  11.402 -1.2832 -1.5083 -0.6634
11237TIP3    H255127   0.775   2.675  11.539 -1.7629 -1.3797 -0.5392
11238TIP3   OH255128   6.031   3.024  10.329  0.2063  0.1812  0.1855
11238TIP3    H155129   6.103   2.979  10.284  0.6547 -0.9798  2.0113
11238TIP3    H255130   6.062   3.114  10.339  0.6896  0.1031 -0.5634
11239TIP3   OH255131   0.756   6.373  13.668  0.3783  0.2540  0.7088
11239TIP3    H155132   0.801   6.291  13.649 -2.8518 -1.8038  1.4709
11239TIP3    H255133   0.709   6.394  13.588 -0.6066  0.1283  1.2468
11240TIP3   OH255134   1.854   1.725   1.553 -0.4549  0.0876 -0.1993
11240TIP3    H155135   1.761   1.731   1.575 -0.0815 -0.1380  1.5361
11240TIP3    H255136   1.859   1.656   1.487 -1.4094 -0.5868  0.4153
11241TIP3   OH255137   4.923   0.888  12.519 -0.2438  0.4271  0.1462
11241TIP3    H155138   4.959   0.883  12.431  2.1855 -1.0349  1.1599
11241TIP3    H255139   4.971   0.960  12.560 -1.5274  1.2526  0.2285
11242TIP3   OH255140   3.881   0.037  12.861 -0.1286 -0.1888  0.7963
11242TIP3    H155141   3.935   0.115  12.851 -0.4479 -0.0990 -0.3426
11242TIP3    H255142   3.885   0.016  12.954  1.6315 -0.0071  0.7732
11243TIP3   OH255143   3.349   1.782   1.462  0.2204 -0.4115 -0.0257
11243TIP3    H155144   3.344   1.711   1.397 -1.9795  0.5986 -1.0162
11243TIP3    H255145   3.399   1.851   1.418  1.4772 -0.9295  0.5612
11244TIP3   OH255146   4.291   2.982   2.414 -0.2050  0.1586  0.1617
11244TIP3    H155147   4.323   3.034   2.488 -1.6692  2.4930 -0.7981
11244TIP3    H255148   4.203   2.956   2.438  0.2869 -1.3782  0.3597
11245TIP3   OH255149   0.591   1.337   0.807 -0.8109 -0.2284  0.3721
11245TIP3    H155150   0.657   1.330   0.738 -0.4833 -1.4900  0.8091
11245TIP3    H255151   0.519   1.386   0.767 -0.1789 -0.0458 -0.5343
11246TIP3   OH255152   5.440   3.103  12.992  0.2961  0.5621  0.3881
11246TIP3    H155153   5.389   3.067  12.920  0.6420  0.4152  0.2165
11246TIP3    H255154   5.470   3.189  12.960  1.9462 -0.2560 -0.3346
11247TIP3   OH255155   5.603   0.202  16.091  0.0935 -0.0786 -0.1886
11247TIP3    H155156   5.534   0.152  16.046 -0.2142 -0.5963  0.8488
11247TIP3    H255157   5.573   0.293  16.086 -0.6547 -0.2981  0.2385
11248TIP3   OH255158   4.488   5.307   1.176  0.2327  0.4243 -0.9829
11248TIP3    H155159   4.445   5.266   1.251  2.9077 -1.2742 -0.3119
11248TIP3    H255160   4.516   5.392   1.209  0.1427  0.2664 -0.4865
11249TIP3   OH255161   0.811   1.649  10.855  0.0234  0.2488  0.0403
11249TIP3    H155162   0.898   1.686  10.870 -0.4279  1.6039 -0.5854
11249TIP3    H255163   0.798   1.654  10.760 -0.3751 -0.7784  0.0362
11250TIP3   OH255164   1.461   5.159  12.807 -0.1521  0.9802 -0.2140
11250TIP3    H155165   1.381   5.185  12.763 -1.2787 -2.2067 -0.2070
11250TIP3    H255166   1.441   5.168  12.900 -0.8085 -0.5659 -0.1916
11251TIP3   OH255167   1.725   3.008  14.032  0.6005  0.2120 -0.0446
11251TIP3    H155168   1.773   2.926  14.044  1.7288  0.5160 -2.1624
11251TIP3    H255169   1.653   2.985  13.972 -1.6430 -0.1139  2.6528
11252TIP3   OH255170   6.599   4.629   3.594  0.8980  0.0220 -0.2330
11252TIP3    H155171   6.564   4.549   3.633 -0.3047 -0.2059 -1.7469
11252TIP3    H255172   6.682   4.644   3.641  1.2242 -2.1753 -0.0498
11253TIP3   OH255173   5.220   5.065  17.080 -0.1277 -0.1951 -0.3786
11253TIP3    H155174   5.272   5.133  17.037 -1.0472  0.3689 -0.5963
11253TIP3    H255175   5.284   4.997  17.102  0.5037 -0.0882 -1.8067
11254TIP3   OH255176   4.059   5.178   6.343 -0.2058 -0.1171  0.3065
11254TIP3    H155177   4.138   5.231   6.334 -0.6273  0.1817 -1.9911
11254TIP3    H255178   4.085   5.104   6.398  1.4101  0.4773  0.3588
11255TIP3   OH255179   4.814   3.830  13.738 -0.7923  0.1320  0.2469
11255TIP3    H155180   4.854   3.815  13.652 -1.3534 -1.0066  0.1647
11255TIP3    H255181   4.787   3.742  13.767 -1.6477  0.6579  1.0711
11256TIP3   OH255182   6.002   3.858   5.772  0.3733 -0.5240  0.4153
11256TIP3    H155183   5.967   3.856   5.683  0.4473  0.9246  0.3412
11256TIP3    H255184   6.096   3.843   5.761  0.1415 -2.0064  0.4011
11257TIP3   OH255185   3.209   4.962   5.709  0.2295  0.0162 -0.1244
11257TIP3    H155186   3.305   4.955   5.713  0.2958  0.5902 -0.6311
11257TIP3    H255187   3.191   5.055   5.724 -0.0577  0.4558 -2.8978
11258TIP3   OH255188   5.720   0.399  11.445  0.1901  0.6435  0.1618
11258TIP3    H155189   5.634   0.370  11.415  0.5778 -0.1708 -0.1781
11258TIP3    H255190   5.734   0.482  11.400  0.0584  0.2350 -0.6484
11259TIP3   OH255191   4.074   4.394  10.714 -0.8447  0.0432  0.0103
11259TIP3    H155192   4.152   4.372  10.663 -0.7999  1.3499 -0.5021
11259TIP3    H255193   4.086   4.486  10.738 -1.5460 -0.1505  1.1640
11260TIP3   OH255194   5.846   2.076   2.593  0.0398 -0.1874 -0.8598
11260TIP3    H155195   5.890   1.994   2.615 -1.5487 -1.2393 -1.4971
11260TIP3    H255196   5.895   2.143   2.640  0.8267 -1.6015  0.3808
11261TIP3   OH255197   3.720   6.279   4.795 -0.0147 -0.3021 -0.0453
11261TIP3    H155198   3.707   6.369   4.823 -0.0477 -0.6092  0.9632
11261TIP3    H255199   3.659   6.228   4.849  2.0358 -1.2499  1.4280
11262TIP3   OH255200   0.774   0.584   2.099  0.4714 -0.2056 -0.4199
11262TIP3    H155201   0.784   0.678   2.092 -0.4848 -0.1095 -0.5674
11262TIP3    H255202   0.739   0.570   2.187  2.8563 -0.6199  0.5087
11263TIP3   OH255203   3.616   4.983  15.859  0.5496  0.3332 -0.1464
11263TIP3    H155204   3.548   4.990  15.792 -0.5342 -1.2604  0.7618
11263TIP3    H255205   3.676   4.916  15.826  0.1604 -0.2608  0.3552
11264TIP3   OH255206   4.403   3.530  12.716  0.0052  0.5264 -0.0603
11264TIP3    H155207   4.343   3.467  12.676 -0.6222  0.4036  1.0572
11264TIP3    H255208   4.393   3.516  12.810 -1.3584  3.4206  0.2546
11265TIP3   OH255209   2.106   5.029   4.860  0.6053 -0.1302  0.0467
11265TIP3    H155210   2.126   4.997   4.772  0.5802  1.5219 -0.5758
11265TIP3    H255211   2.142   4.963   4.919  0.4239 -1.3599 -1.2107
11266TIP3   OH255212   4.351   4.463  11.678  0.0854 -0.5191 -0.9886
11266TIP3    H155213   4.310   4.379  11.697  1.3234 -0.8767  0.2080
11266TIP3    H255214   4.411   4.478  11.751 -0.5685  1.7034 -0.8518
11267TIP3   OH255215   4.927   0.177  15.687 -0.2707  0.3897 -0.4050
11267TIP3    H155216   4.993   0.113  15.713 -1.1356 -0.2712  0.1901
11267TIP3    H255217   4.965   0.222  15.612  0.5184 -0.5340 -0.5586
11268TIP3   OH255218   5.412   5.506  12.333 -0.3564 -0.1435 -0.0144
11268TIP3    H155219   5.449   5.566  12.269 -0.8096 -2.7024 -2.8022
11268TIP3    H255220   5.318   5.514  12.321 -0.5217  0.8763  1.8320
11269TIP3   OH255221   2.462   3.690   2.639  0.4288 -0.6333  0.2636
11269TIP3    H155222   2.445   3.778   2.670  0.3715  0.0993 -1.7331
11269TIP3    H255223   2.400   3.634   2.685 -2.2032  0.9232 -1.2951
11270TIP3   OH255224   1.708   4.705  13.872  0.3430 -0.3584  0.0288
11270TIP3    H155225   1.770   4.721  13.801 -1.4615 -1.5206 -1.8746
11270TIP3    H255226   1.636   4.766  13.854  0.7799  0.7931  2.0624
11271TIP3   OH255227   0.791   2.883  14.875 -0.0549  0.0863 -0.2470
11271TIP3    H155228   0.772   2.892  14.782  0.7623  1.7682 -0.2651
11271TIP3    H255229   0.711   2.913  14.919 -0.5620 -1.0148 -0.3827
11272TIP3   OH255230   0.559   6.399   0.839 -0.1537 -0.0367  0.9835
11272TIP3    H155231   0.487   6.354   0.794  0.2485 -0.3830  0.6907
11272TIP3    H255232   0.558   6.488   0.802 -0.2602 -0.1204  0.7850
11273TIP3   OH255233   6.610   5.442  16.905  0.2335 -0.0648  0.0512
11273TIP3    H155234   6.684   5.464  16.961  1.8844 -1.3725 -1.5446
11273TIP3    H255235   6.636   5.472  16.818 -0.5938 -1.5855 -0.7469
11274TIP3   OH255236   6.557   5.559   0.206  0.3023 -0.2561  0.8103
11274TIP3    H155237   6.513   5.522   0.129 -0.4973  1.7278  0.2964
11274TIP3    H255238   6.548   5.491   0.273  0.8321 -1.9178 -0.7840
11275TIP3   OH255239   1.537   1.131  14.590  0.7455 -0.0540  0.5869
11275TIP3    H155240   1.460   1.154  14.642  0.6421 -4.3683  2.5431
11275TIP3    H255241   1.610   1.172  14.636  0.0916  0.4428  1.1964
11276TIP3   OH255242   1.981   5.911   1.322  0.4411  0.2656 -0.3736
11276TIP3    H155243   2.051   5.927   1.258  1.7493 -1.6872  0.5205
11276TIP3    H255244   1.973   5.815   1.324 -1.2115  0.4191  0.6700
11277TIP3   OH255245   5.382   5.204   0.969 -0.4095  0.1675 -0.2797
11277TIP3    H155246   5.457   5.149   0.949  0.6560  1.0151  1.2681
11277TIP3    H255247   5.363   5.186   1.061 -2.5174 -0.5146 -0.8336
11278TIP3   OH255248   4.974   6.186  13.891  0.1710  0.1860 -0.5007
11278TIP3    H155249   5.029   6.119  13.931 -0.8002  0.5078  1.4653
11278TIP3    H255250   5.035   6.255  13.866  0.9130 -0.4173 -0.3900
11279TIP3   OH255251   1.444   6.573  13.174  0.3264 -0.0697 -0.2392
11279TIP3    H155252   1.481   6.655  13.140 -0.6547  0.6572  0.4237
11279TIP3    H255253   1.494   6.555  13.253 -0.1462  0.4410  0.1771
11280TIP3   OH255254   2.212   0.585   3.412  0.1545  0.1880  0.6535
11280TIP3    H155255   2.118   0.601   3.411  0.0690 -0.3158 -1.6145
11280TIP3    H255256   2.225   0.524   3.485 -1.2676  0.2007  0.9358
11281TIP3   OH255257   6.112   2.359  12.200  0.0337  0.1024  0.2591
11281TIP3    H155258   6.142   2.449  12.192  2.0631 -0.5359  0.2743
11281TIP3    H255259   6.187   2.312  12.236 -1.4572 -1.3381  1.5969
11282TIP3   OH255260   2.907   3.825   5.976  0.0860  0.3605  0.0267
11282TIP3    H155261   2.878   3.810   6.065 -0.1956 -0.5208 -0.2133
11282TIP3    H255262   2.951   3.744   5.950  2.9923  1.7494  0.4493
11283TIP3   OH255263   0.934   3.823   4.964 -0.7196  0.0263  0.3144
11283TIP3    H155264   0.933   3.769   4.885  0.9688 -0.4743  0.6193
11283TIP3    H255265   0.870   3.781   5.022 -0.9130 -0.4366 -0.2310
11284TIP3   OH255266   0.165   2.016  11.834 -0.4554  0.2398 -0.6716
11284TIP3    H155267   0.134   2.010  11.744 -1.0282  2.5045 -0.6494
11284TIP3    H255268   0.119   2.091  11.870  1.3356  0.6209  0.8810
11285TIP3   OH255269   0.948   5.275  15.982 -0.2562  0.1572  0.0434
11285TIP3    H155270   0.998   5.355  16.000  2.8757 -1.6643 -0.2679
11285TIP3    H255271   0.901   5.294  15.901 -0.2970  2.0036  0.4745
11286TIP3   OH255272   3.274   1.039   0.054  0.3755 -0.1091  0.1255
11286TIP3    H155273   3.243   1.128   0.066  1.3657 -0.0147  2.2637
11286TIP3    H255274   3.278   1.003   0.143  1.6515 -1.7008 -0.5429
11287TIP3   OH255275   0.870   4.928  13.080  0.2645 -0.6801 -0.5162
11287TIP3    H155276   0.778   4.909  13.062 -0.3210  0.0014  1.5768
11287TIP3    H255277   0.870   5.017  13.115  2.1547  0.6704 -3.7620
11288TIP3   OH255278   6.045   6.623   3.142 -0.1537 -0.1300 -0.2583
11288TIP3    H155279   6.103   6.609   3.067 -0.9004 -0.7614 -0.7220
11288TIP3    H255280   5.993   6.700   3.119 -0.3522 -0.2985 -0.3757
11289TIP3   OH255281   1.963   5.299  12.752 -0.2743  0.0285  0.3913
11289TIP3    H155282   1.975   5.299  12.846  0.1182  1.1099  0.3554
11289TIP3    H255283   1.978   5.208  12.725 -0.3740 -0.2780  1.3623
11290TIP3   OH255284   0.719   4.384   1.392 -0.2785  0.1018  0.7395
11290TIP3    H155285   0.663   4.385   1.314 -0.2831 -0.8272  0.7284
11290TIP3    H255286   0.727   4.291   1.415 -0.0978  0.3554  1.7192
11291TIP3   OH255287   2.755   3.856   1.137 -0.0353 -0.1065  0.6411
11291TIP3    H155288   2.664   3.872   1.162 -0.1248 -0.1263  0.3287
11291TIP3    H255289   2.806   3.891   1.210 -0.2585  0.9090  0.3289
11292TIP3   OH255290   3.227   0.940  16.514  0.1540 -0.5107 -0.0035
11292TIP3    H155291   3.155   0.993  16.549 -0.1874  0.6150 -2.2773
11292TIP3    H255292   3.184   0.863  16.478  0.2352 -0.5469 -0.0232
11293TIP3   OH255293   0.516   0.130   0.166  0.2091  0.6011  0.5140
11293TIP3    H155294   0.550   0.050   0.206  0.0577  0.5488  0.5369
11293TIP3    H255295   0.461   0.169   0.234  1.7553  1.6928  1.1925
11294TIP3   OH255296   3.428   0.582  15.473 -0.0293 -0.1456  0.0665
11294TIP3    H155297   3.435   0.668  15.433  1.4907 -0.2786  0.0029
11294TIP3    H255298   3.517   0.560  15.500 -0.5879 -1.1825  1.1763
11295TIP3   OH255299   5.687   0.350  13.837  0.0157  0.0719 -0.0103
11295TIP3    H155300   5.638   0.268  13.830 -0.0145  0.0581  0.3174
11295TIP3    H255301   5.629   0.417  13.801  0.1363 -0.0879 -0.4996
11296TIP3   OH255302   5.271   0.883   4.840  0.0411 -0.0109  0.4353
11296TIP3    H155303   5.310   0.854   4.757  0.2799  0.8992  0.2198
11296TIP3    H255304   5.260   0.803   4.891 -3.2255 -1.0676 -1.7502
11297TIP3   OH255305   3.405   1.583   0.784 -0.0059 -0.6701  0.1787
11297TIP3    H155306   3.455   1.664   0.789  0.4240 -0.9661  0.7983
11297TIP3    H255307   3.469   1.514   0.799 -0.4043 -1.1159 -0.1358
11298TIP3   OH255308   3.995   4.936   0.321 -0.3567  0.5458  0.4025
11298TIP3    H155309   3.998   4.958   0.414 -2.4125  1.9035  0.1866
11298TIP3    H255310   3.920   4.876   0.314 -0.7972  1.2092 -0.5227
11299TIP3   OH255311   3.102   6.160  11.204 -0.1814  0.5366 -0.4587
11299TIP3    H155312   3.195   6.183  11.202  0.1457 -0.7644 -0.2657
11299TIP3    H255313   3.096   6.075  11.161 -0.6936 -1.3299  3.1171
11300TIP3   OH255314   3.492   2.739  12.370 -0.5109 -0.4104  0.4317
11300TIP3    H155315   3.465   2.826  12.399  0.4049  0.5508 -1.5177
11300TIP3    H255316   3.465   2.680  12.441 -1.0080  1.4710  1.8262
11301TIP3   OH255317   1.046   0.994  10.326  0.7247  0.4231 -1.0644
11301TIP3    H155318   1.058   1.078  10.282  1.8057  0.6661 -0.3255
11301TIP3    H255319   1.110   0.936  10.285  1.8389  0.6908  0.2757
11302TIP3   OH255320   4.045   1.923   6.619 -0.2541 -0.0200 -0.8421
11302TIP3    H155321   4.116   1.988   6.620 -1.9461  1.9195 -2.8279
11302TIP3    H255322   3.973   1.966   6.664  0.0397 -2.3064  1.9006
11303TIP3   OH255323   2.464   0.776   6.066 -0.1161  0.5305 -0.2702
11303TIP3    H155324   2.374   0.743   6.068 -0.8410  2.3711 -0.6263
11303TIP3    H255325   2.505   0.730   5.994 -0.6971 -0.5329  0.0719
11304TIP3   OH255326   4.243   2.089   0.721  0.1630 -0.4794  0.7817
11304TIP3    H155327   4.213   2.154   0.657  0.9982 -0.7383  0.1163
11304TIP3    H255328   4.189   2.012   0.704  0.7299 -0.7175  0.0425
11305TIP3   OH255329   4.733   2.502   3.087 -0.2423 -0.4228 -0.4567
11305TIP3    H155330   4.774   2.565   3.027 -1.5015  2.5087  1.6602
11305TIP3    H255331   4.639   2.510   3.071 -0.4524 -1.4414  0.1797
11306TIP3   OH255332   0.621   0.310   5.655 -0.6343  0.3537 -0.7043
11306TIP3    H155333   0.631   0.322   5.749  0.8568 -0.2009 -0.7903
11306TIP3    H255334   0.540   0.358   5.634 -1.0416  0.3891  0.8580
11307TIP3   OH255335   5.458   1.802  11.736  0.1423  0.3957  1.1289
11307TIP3    H155336   5.396   1.863  11.695  0.4286 -0.9813 -1.4940
11307TIP3    H255337   5.406   1.723  11.752  1.2537 -1.0086 -1.6912
11308TIP3   OH255338   0.375   6.608  13.349 -0.4121  0.2777  0.0534
11308TIP3    H155339   0.371   6.520  13.313 -0.0481  1.3725 -2.8640
11308TIP3    H255340   0.284   6.633  13.364 -0.4541 -1.0449  2.1719
11309TIP3   OH255341   5.075   1.324  11.575  0.1224  0.2301 -0.0727
11309TIP3    H155342   5.040   1.377  11.647  0.0215  0.2001 -0.0995
11309TIP3    H255343   4.999   1.280  11.538  0.3511 -0.8610  0.7020
11310TIP3   OH255344   4.058   3.164  14.336 -0.3137 -0.4631 -0.4882
11310TIP3    H155345   4.117   3.205  14.272 -0.1372  0.8155  0.4724
11310TIP3    H255346   4.053   3.228  14.407 -1.3075 -1.4392  0.3172
11311TIP3   OH255347   2.578   3.681  13.314  0.2105  0.2156 -0.0780
11311TIP3    H155348   2.557   3.626  13.389  0.6625  2.1021  1.4716
11311TIP3    H255349   2.535   3.765  13.332  1.6378  1.2162 -1.1445
11312TIP3   OH255350   2.700   1.388   1.642 -0.0003 -0.2884 -0.3063
11312TIP3    H155351   2.710   1.397   1.737 -1.0088  0.0571 -0.2199
11312TIP3    H255352   2.672   1.475   1.613  1.2367 -0.1325 -1.0573
11313TIP3   OH255353   0.619   5.659  10.645  0.0287 -0.0672  0.3554
11313TIP3    H155354   0.669   5.608  10.708  0.4137 -0.5702 -0.3571
11313TIP3    H255355   0.684   5.715  10.602 -0.1725 -0.0210  0.1110
11314TIP3   OH255356   3.902   1.952  16.110  0.3223  0.3791 -0.2580
11314TIP3    H155357   3.994   1.925  16.110  0.1147 -0.3267 -0.5071
11314TIP3    H255358   3.891   2.000  16.028  0.2607 -0.2375 -0.6089
11315TIP3   OH255359   5.293   6.239  15.036  0.1951  1.0328 -0.5515
11315TIP3    H155360   5.381   6.219  15.002 -0.6620  1.4118 -3.0974
11315TIP3    H255361   5.277   6.329  15.009 -1.2517  0.7264 -0.7492
11316TIP3   OH255362   1.961   1.839   5.238  0.3304  0.1214 -0.0116
11316TIP3    H155363   1.879   1.885   5.259  0.8092  0.9093  0.1429
11316TIP3    H255364   2.010   1.901   5.184 -0.4520 -1.5021 -2.6583
11317TIP3   OH255365   4.005   0.709  13.111 -0.6212  0.5147 -0.3205
11317TIP3    H155366   3.916   0.691  13.079 -0.5066  0.1541 -0.4377
11317TIP3    H255367   4.051   0.745  13.036 -0.4382 -0.0519 -0.4840
11318TIP3   OH255368   0.110   5.280   2.775  0.0243 -0.3713 -0.1866
11318TIP3    H155369   0.065   5.241   2.849 -0.1570 -1.6880 -0.9794
11318TIP3    H255370   0.043   5.333   2.731  0.7695  2.6203  2.0670
11319TIP3   OH255371   1.938   1.305   4.865  0.1472 -0.0280  0.4712
11319TIP3    H155372   1.928   1.395   4.834  0.3118 -0.1598  0.0316
11319TIP3    H255373   2.031   1.298   4.887  0.3027 -0.3341 -0.2695
11320TIP3   OH255374   1.994   2.168  15.790 -0.1967  0.1125  0.2181
11320TIP3    H155375   1.982   2.073  15.794  0.7020  0.0773  2.7174
11320TIP3    H255376   2.070   2.181  15.734 -1.4435 -0.5269 -1.6618
11321TIP3   OH255377   3.618   0.215  13.131  0.3668 -0.4915 -0.7460
11321TIP3    H155378   3.533   0.197  13.091 -0.5391  2.3651 -0.2271
11321TIP3    H255379   3.612   0.178  13.219 -1.0267  1.2262 -0.0894
11322TIP3   OH255380   5.608   1.615  16.180 -0.2332 -0.4487 -0.2778
11322TIP3    H155381   5.698   1.628  16.151 -1.1559  1.1583 -2.5325
11322TIP3    H255382   5.603   1.662  16.263  1.1418 -1.0537  0.1715
11323TIP3   OH255383   1.804   1.294  13.731 -0.3985  0.0033 -0.4981
11323TIP3    H155384   1.767   1.335  13.809 -0.9063  1.1146 -1.3090
11323TIP3    H255385   1.788   1.200  13.744  0.0496  0.1265  0.9963
11324TIP3   OH255386   6.581   6.783  10.758  0.3480  0.1628  0.1782
11324TIP3    H155387   6.511   6.848  10.758 -0.9787 -1.2255 -0.4069
11324TIP3    H255388   6.641   6.813  10.690  0.0413  1.0761  0.3020
11325TIP3   OH255389   4.175   2.009   1.164 -0.2501  0.7244  0.0869
11325TIP3    H155390   4.246   1.962   1.121  2.1170  2.0186  2.4699
11325TIP3    H255391   4.203   2.100   1.163 -2.2117  1.3542  0.4888
11326TIP3   OH255392   2.494   2.288   1.039 -0.5133  0.7077 -0.2968
11326TIP3    H155393   2.448   2.318   1.118  0.2049 -0.3855  0.5420
11326TIP3    H255394   2.424   2.279   0.974 -1.4721 -0.6114  0.8688
11327TIP3   OH255395   4.582   0.918  16.219  0.4430  0.0732 -0.3250
11327TIP3    H155396   4.515   0.936  16.285  2.0789  1.8403  0.8974
11327TIP3    H255397   4.664   0.913  16.268  1.2055 -2.3584 -1.7584
11328TIP3   OH255398   2.581   0.647  16.688 -0.0236 -0.1649 -0.0336
11328TIP3    H155399   2.613   0.591  16.757  0.0941  0.5138  0.4679
11328TIP3    H255400   2.537   0.720  16.733 -1.4069 -0.5668 -0.6777
11329TIP3   OH255401   5.107   0.681   0.985 -0.6746  0.0538  0.3177
11329TIP3    H155402   5.129   0.609   0.927 -2.0226  0.7740 -1.1487
11329TIP3    H255403   5.181   0.688   1.045  0.9858 -0.4171 -1.6111
11330TIP3   OH255404   6.511   5.103   3.086  0.0096 -0.0495 -0.3693
11330TIP3    H155405   6.499   5.009   3.069 -2.5932  0.0685  0.6590
11330TIP3    H255406   6.556   5.105   3.171 -0.0871 -0.3553 -0.3076
11331TIP3   OH255407   5.835   5.382   3.974  0.1789  0.6099  0.3308
11331TIP3    H155408   5.802   5.295   3.952 -0.6072  1.1713 -0.8021
11331TIP3    H255409   5.756   5.433   3.995  0.5283  1.3035 -0.0070
11332TIP3   OH255410   0.038   1.045  13.850  0.1421 -0.5434  0.5631
11332TIP3    H155411   0.053   0.957  13.884 -0.5062 -0.7893  0.2329
11332TIP3    H255412  -0.049   1.041  13.811  0.5840 -0.0769 -0.4919
11333TIP3   OH255413   1.626   2.349   1.236  0.3164  0.1066  0.4258
11333TIP3    H155414   1.565   2.390   1.298 -0.3748  0.5965 -0.5702
11333TIP3    H255415   1.675   2.423   1.198 -0.7442  0.0070 -1.1764
11334TIP3   OH255416   0.513   2.928  13.201 -0.1022 -0.3416 -0.2261
11334TIP3    H155417   0.426   2.890  13.195  0.1305 -0.7141 -1.3216
11334TIP3    H255418   0.571   2.860  13.168  0.5011  0.3007 -0.5060
11335TIP3   OH255419   3.259   2.818  11.601  0.7668  0.2235 -0.0047
11335TIP3    H155420   3.238   2.832  11.508  2.2504 -0.3430 -0.4462
11335TIP3    H255421   3.350   2.788  11.600  0.4841 -0.7076  1.5727
11336TIP3   OH255422   1.380   6.136  15.655  0.4243 -0.2006  0.7267
11336TIP3    H155423   1.392   6.079  15.732 -2.3310 -2.1907 -0.2541
11336TIP3    H255424   1.323   6.086  15.597 -0.0454  2.5817 -1.2863
11337TIP3   OH255425   4.126   2.641  16.424 -0.7787  0.2712 -0.3370
11337TIP3    H155426   4.054   2.683  16.472 -1.4127 -1.4827  0.2879
11337TIP3    H255427   4.084   2.570  16.376  0.6462 -1.2488  0.6222
11338TIP3   OH255428   1.247   0.768   4.812 -0.4056 -0.6735 -0.1333
11338TIP3    H155429   1.256   0.685   4.859 -1.2783 -0.7751 -0.1364
11338TIP3    H255430   1.310   0.826   4.854  0.6572 -1.5172 -0.5376
11339TIP3   OH255431   3.286   1.029   3.115 -0.3029  0.2022 -0.2758
11339TIP3    H155432   3.240   1.031   3.200 -0.5104  0.0998 -0.3850
11339TIP3    H255433   3.286   1.120   3.087 -1.7286  0.0104 -0.9597
11340TIP3   OH255434   4.617   2.622  12.185 -0.3065 -0.0889  0.4381
11340TIP3    H155435   4.614   2.540  12.136  1.9630  0.1729 -0.2093
11340TIP3    H255436   4.699   2.663  12.157 -1.3297  2.3131  0.8990
11341TIP3   OH255437   2.505   2.173   0.740  0.0883  0.3274  1.1283
11341TIP3    H155438   2.529   2.241   0.803 -0.3760  1.1820  0.3950
11341TIP3    H255439   2.523   2.090   0.785  3.7497  0.9193  0.9036
11342TIP3   OH255440   1.509   1.103   3.864  0.1025  0.0715  0.0693
11342TIP3    H155441   1.579   1.046   3.896  0.8369 -0.6379 -2.6801
11342TIP3    H255442   1.430   1.072   3.909  0.9875 -1.3105  0.7000
11343TIP3   OH255443   5.621   3.244  17.225  0.1997  0.2287  0.5239
11343TIP3    H155444   5.553   3.228  17.160  0.6905  1.9528 -0.4273
11343TIP3    H255445   5.575   3.286  17.298 -0.0261 -0.0338  0.5368
11344TIP3   OH255446   1.690   4.103   4.330 -0.3975 -0.3996  0.3723
11344TIP3    H155447   1.595   4.106   4.325 -0.4277 -1.3357  0.2423
11344TIP3    H255448   1.711   4.010   4.324  0.6491 -0.0412 -1.8658
11345TIP3   OH255449   5.835   3.580   3.900 -0.2716 -0.3470  0.0123
11345TIP3    H155450   5.814   3.613   3.987 -0.5446  1.1058 -0.5877
11345TIP3    H255451   5.751   3.557   3.862 -0.4918  1.8850 -0.9689
11346TIP3   OH255452   3.943   3.809   2.131  0.2821  0.3831 -0.0932
11346TIP3    H155453   3.981   3.893   2.157 -0.9738  0.5653  1.2078
11346TIP3    H255454   3.990   3.744   2.182 -0.9462  0.5905  1.3474
11347TIP3   OH255455   3.219   1.158   1.310  0.1328 -0.6817  0.2935
11347TIP3    H155456   3.137   1.205   1.321  0.5652  0.1303  0.0253
11347TIP3    H255457   3.200   1.070   1.344 -1.1274 -0.7978 -0.6703
11348TIP3   OH255458   2.572   2.319   5.542 -0.4434  0.8985 -0.5418
11348TIP3    H155459   2.662   2.328   5.574  0.0466 -0.7837 -1.3688
11348TIP3    H255460   2.547   2.230   5.568 -2.0056  1.4898  0.0064
11349TIP3   OH255461   1.799   5.905  14.104  0.3626  0.3104  0.7431
11349TIP3    H155462   1.847   5.894  14.186  0.1950  1.5809  1.0327
11349TIP3    H255463   1.802   6.000  14.088  0.4440  0.0641 -0.7498
11350TIP3   OH255464   6.454   0.800  10.231  0.1207  0.5369  0.3759
11350TIP3    H155465   6.490   0.884  10.204 -0.9372  0.6861 -0.5934
11350TIP3    H255466   6.398   0.820  10.306 -0.7396  0.8162 -0.3322
11351TIP3   OH255467   4.380   0.126   4.611 -0.1822  0.1038 -0.6232
11351TIP3    H155468   4.370   0.049   4.668  1.6660 -0.1918 -0.6522
11351TIP3    H255469   4.392   0.199   4.672  2.1103 -0.2579 -0.5780
11352TIP3   OH255470   5.691   0.657  13.835  0.5700  0.0418 -0.1364
11352TIP3    H155471   5.615   0.615  13.876  2.0643 -2.4088  0.2245
11352TIP3    H255472   5.684   0.634  13.742  1.0316 -0.4416 -0.0532
11353TIP3   OH255473   4.347   3.165  16.614  0.6761  0.5144 -0.4396
11353TIP3    H155474   4.343   3.070  16.622 -0.7972  0.5899 -0.0620
11353TIP3    H255475   4.417   3.192  16.673 -0.5330 -0.1412  1.3440
11354TIP3   OH255476   0.950   4.743  15.557 -0.7549 -0.2660  0.2584
11354TIP3    H155477   0.997   4.759  15.475  1.9796 -0.6205  1.7022
11354TIP3    H255478   0.954   4.827  15.603 -2.1504 -0.1106  0.1185
11355TIP3   OH255479   2.110   6.131   5.675  0.1451 -0.8805  0.0632
11355TIP3    H155480   2.100   6.058   5.614 -0.2712 -0.8992  0.1513
11355TIP3    H255481   2.124   6.089   5.760 -2.0422 -0.8816  0.4434
11356TIP3   OH255482   3.271   4.342   3.422 -0.9277  0.4087 -0.5960
11356TIP3    H155483   3.302   4.425   3.458  0.8827 -0.7725  0.6601
11356TIP3    H255484   3.183   4.361   3.390 -0.6651  2.7259 -0.0391
11357TIP3   OH255485   3.476   3.593   3.405 -0.2956 -0.2114  0.0187
11357TIP3    H155486   3.466   3.666   3.466  0.2146  2.1424 -2.6270
11357TIP3    H255487   3.567   3.598   3.375 -0.7374 -0.8709 -1.4846
11358TIP3   OH255488   0.414   1.688  12.693  0.0097 -0.2517 -0.3948
11358TIP3    H155489   0.416   1.763  12.753 -0.7052 -1.2399  0.8801
11358TIP3    H255490   0.448   1.615  12.744  2.8600 -0.3526 -2.3373
11359TIP3   OH255491   0.101   0.683   2.089  0.4760 -0.0598 -0.4604
11359TIP3    H155492   0.011   0.708   2.071  0.6438  0.5226 -0.4966
11359TIP3    H255493   0.148   0.704   2.008  0.4390 -1.4026 -0.8430
11360TIP3   OH255494   2.629   4.324  15.482  0.7235  0.3921  0.1113
11360TIP3    H155495   2.723   4.321  15.502  0.2763  0.0616  2.2671
11360TIP3    H255496   2.614   4.414  15.452  1.4295  0.9423  1.3583
11361TIP3   OH255497   1.025   0.994  16.809  0.3488  0.4385  0.0344
11361TIP3    H155498   1.085   1.027  16.876  1.2858  0.3205 -0.7325
11361TIP3    H255499   0.971   0.930  16.854  0.0105  1.4070  1.0161
11362TIP3   OH255500   2.748   5.952   0.398  0.1101 -0.0443  0.0733
11362TIP3    H155501   2.830   5.986   0.433  1.7483 -2.1927 -1.5378
11362TIP3    H255502   2.707   5.906   0.471  1.5926 -1.1442  0.2206
11363TIP3   OH255503   2.146   0.467   3.949 -0.2201  0.5272 -0.2465
11363TIP3    H155504   2.222   0.435   3.997  0.1261 -0.8193 -1.6759
11363TIP3    H255505   2.174   0.551   3.912  1.2979 -0.9829 -2.5682
11364TIP3   OH255506   5.219   6.034   2.767  0.4217 -0.8951  0.2275
11364TIP3    H155507   5.135   6.060   2.727  1.1234  0.2544 -0.5165
11364TIP3    H255508   5.206   5.943   2.791 -0.9943 -0.7866 -0.0487
11365TIP3   OH255509   0.102   1.749   4.922 -0.3193 -0.2434  0.3207
11365TIP3    H155510   0.018   1.795   4.914 -0.5735 -0.7575  0.0362
11365TIP3    H255511   0.141   1.755   4.835  0.5579  1.1558  0.7704
11366TIP3   OH255512   2.816   0.313   3.448  0.5613 -0.2019 -0.1855
11366TIP3    H155513   2.822   0.327   3.353  0.6825 -0.3964 -0.2093
11366TIP3    H255514   2.782   0.395   3.483 -0.4833 -0.4943 -0.5117
11367TIP3   OH255515   5.869   3.556  11.814  0.0377  0.4242  0.3151
11367TIP3    H155516   5.958   3.558  11.777  0.3595 -0.0311  1.0534
11367TIP3    H255517   5.877   3.600  11.898 -0.1875 -0.6194  0.8931
11368TIP3   OH255518   2.588   2.510  15.305 -0.1408 -0.0998  0.0487
11368TIP3    H155519   2.597   2.479  15.215 -0.8479 -0.6330  0.1579
11368TIP3    H255520   2.507   2.562  15.304  0.4227  0.7793  0.1308
11369TIP3   OH255521   6.513   3.809   2.658 -0.0442 -0.3353 -0.0890
11369TIP3    H155522   6.556   3.726   2.676 -0.1167 -0.5492 -0.9130
11369TIP3    H255523   6.463   3.794   2.578  0.1692  0.5892 -0.4030
11370TIP3   OH255524   2.045   1.404  15.578  0.1354  0.5213  0.3292
11370TIP3    H155525   2.129   1.368  15.547  0.8127  1.8237  0.6268
11370TIP3    H255526   1.993   1.416  15.499 -0.3508 -1.6834  0.2686
11371TIP3   OH255527   5.784   4.836  17.116  0.7273 -0.5117 -0.5226
11371TIP3    H155528   5.721   4.904  17.140 -0.4511 -1.5448 -0.6057
11371TIP3    H255529   5.783   4.775  17.190 -0.0337 -1.6719 -1.4522
11372TIP3   OH255530   1.928   3.441  16.189  0.5215  0.1143  0.1052
11372TIP3    H155531   1.878   3.520  16.165  0.8531  0.5886  0.9749
11372TIP3    H255532   1.980   3.467  16.265  0.8814 -0.8513  0.1997
11373TIP3   OH255533   1.549   0.332   3.745 -0.9477  0.3679  0.2064
11373TIP3    H155534   1.583   0.295   3.826 -0.9383 -1.1224 -0.4570
11373TIP3    H255535   1.627   0.346   3.691 -1.2511 -2.5373 -1.1049
11374TIP3   OH255536   3.735   3.391  13.100 -0.0874  0.7260 -0.0088
11374TIP3    H155537   3.654   3.346  13.076 -0.6341  0.4868  2.2654
11374TIP3    H255538   3.801   3.322  13.105 -0.2606  0.5963  0.4797
11375TIP3   OH255539   2.049   2.860   3.109  0.1303  0.4998 -0.4557
11375TIP3    H155540   2.057   2.765   3.101 -0.6861  0.5439 -2.0352
11375TIP3    H255541   1.972   2.873   3.164 -0.4333  0.2500 -1.1814
11376TIP3   OH255542   1.315   3.412  16.401 -0.0118 -0.0195  0.4466
11376TIP3    H155543   1.319   3.414  16.496 -3.6774  1.1457  0.6597
11376TIP3    H255544   1.279   3.498  16.377 -0.0680 -0.6662 -1.8935
11377TIP3   OH255545   1.000   5.992  16.240 -0.2002  0.2422  0.4724
11377TIP3    H155546   1.075   6.047  16.261 -0.3059  0.4849  0.2070
11377TIP3    H255547   0.940   6.004  16.314  0.5383 -0.8884  1.2847
11378TIP3   OH255548   5.402   3.217   0.841  0.2679 -0.3180 -0.5478
11378TIP3    H155549   5.493   3.188   0.852  0.6142  1.1154  0.5081
11378TIP3    H255550   5.405   3.279   0.768 -0.1458 -1.4363 -1.5368
11379TIP3   OH255551   0.206   3.010  15.193  0.4674  0.2966  0.5931
11379TIP3    H155552   0.301   3.005  15.204  0.2609 -2.0039  1.7202
11379TIP3    H255553   0.183   3.100  15.216  2.1682  0.3595  2.1293
11380TIP3   OH255554   0.291   2.212  13.070  0.5516  0.2816  0.0659
11380TIP3    H155555   0.276   2.232  13.162  0.6660 -2.0017  0.6281
11380TIP3    H255556   0.238   2.133  13.054  1.8118 -0.2898 -1.3769
11381TIP3   OH255557   1.128   1.373   1.397  0.4019 -0.2061  0.4567
11381TIP3    H155558   1.042   1.396   1.433  0.7431  0.8288  0.6401
11381TIP3    H255559   1.109   1.321   1.319 -0.3511 -2.5330  2.1434
11382TIP3   OH255560   4.838   3.944   4.461  0.0482 -0.3241  0.2733
11382TIP3    H155561   4.874   3.857   4.445 -1.0267 -0.5508 -0.9972
11382TIP3    H255562   4.795   3.937   4.547  0.2302 -0.9659  0.3116
11383TIP3   OH255563   1.517   6.109  14.449 -0.6567  0.0323 -0.3359
11383TIP3    H155564   1.526   6.051  14.374 -0.9386 -0.2648 -0.1396
11383TIP3    H255565   1.486   6.053  14.520  0.3309  0.1566  0.2038
11384TIP3   OH255566   1.664   3.175   1.143 -0.5707 -0.3010 -0.1668
11384TIP3    H155567   1.691   3.163   1.234 -3.0194 -1.1663  0.5045
11384TIP3    H255568   1.671   3.087   1.105  0.0881 -0.0117 -0.7312
11385TIP3   OH255569   2.644   6.484   0.121 -0.1509  0.3798 -0.5626
11385TIP3    H155570   2.598   6.433   0.054 -0.1873  1.2768 -1.2241
11385TIP3    H255571   2.725   6.436   0.137 -0.0514  0.2716 -1.3955
11386TIP3   OH255572   1.530   4.542   0.833  0.3434  0.5652  0.4258
11386TIP3    H155573   1.467   4.487   0.787 -1.8849  3.7425 -0.5113
11386TIP3    H255574   1.478   4.588   0.899  1.3507  4.1910 -1.1695
11387TIP3   OH255575   3.080   5.433   0.426 -0.2073  0.2252  0.3662
11387TIP3    H155576   3.076   5.337   0.422 -0.8264  0.3066 -1.3845
11387TIP3    H255577   2.997   5.459   0.466 -0.2580  0.0486  0.3760
11388TIP3   OH255578   5.058   2.130   5.340 -0.4369 -0.5851  0.7125
11388TIP3    H155579   5.124   2.144   5.272 -0.4369 -3.3636  0.1145
11388TIP3    H255580   4.975   2.130   5.293 -0.7808  1.4046  1.2689
11389TIP3   OH255581   0.850   2.329  12.135  0.1722 -0.3204  0.3178
11389TIP3    H155582   0.900   2.366  12.062 -0.5316  0.5051  0.2461
11389TIP3    H255583   0.797   2.260  12.096 -0.0545 -0.0130  0.0769
11390TIP3   OH255584   3.990   2.347  12.482 -0.3488 -0.3587 -0.5737
11390TIP3    H155585   3.915   2.287  12.485 -1.3289  0.8907  0.9486
11390TIP3    H255586   4.033   2.336  12.567 -1.1988  1.8764  0.1931
11391TIP3   OH255587   0.771   3.830  13.784 -0.4354  0.0537  0.5405
11391TIP3    H155588   0.848   3.839  13.841 -0.6233 -2.7364  1.3165
11391TIP3    H255589   0.697   3.822  13.845 -1.1597  1.1282 -0.1796
11392TIP3   OH255590   0.504   0.398   3.964 -0.2270  0.7755 -0.3638
11392TIP3    H155591   0.531   0.464   3.900  0.3797  1.4494  0.5755
11392TIP3    H255592   0.543   0.427   4.046 -1.8647  0.4799  0.5348
11393TIP3   OH255593   0.665   6.757  14.478  0.1065 -0.5015  0.5057
11393TIP3    H155594   0.728   6.740  14.408  1.5793  1.1541  1.4090
11393TIP3    H255595   0.611   6.829  14.446  0.6789  0.1511  1.0001
11394TIP3   OH255596   2.294   5.628  12.440  0.1756  0.3305  0.1168
11394TIP3    H155597   2.310   5.678  12.360  0.2635  2.5880  1.4915
11394TIP3    H255598   2.274   5.695  12.506 -0.0997 -1.4965  1.9241
11395TIP3   OH255599   3.688   0.365  14.724  0.4920 -0.0776 -0.3384
11395TIP3    H155600   3.749   0.334  14.657  1.3201 -0.4473  0.5690
11395TIP3    H255601   3.716   0.455  14.742 -0.2280  0.2929 -1.0516
11396TIP3   OH255602   5.507   0.015  14.037 -0.1126  0.1768  0.0281
11396TIP3    H155603   5.525  -0.058  13.978  0.0385 -0.3830  0.7571
11396TIP3    H255604   5.412   0.022  14.039 -0.1170  0.1947 -0.2807
11397TIP3   OH255605   1.402   1.892   3.203  0.4971  0.6119 -0.0592
11397TIP3    H155606   1.421   1.979   3.239  0.7232 -0.4888  2.6609
11397TIP3    H255607   1.365   1.844   3.277 -1.0928 -1.1501 -1.9407
11398TIP3   OH255608   0.036   3.031  17.226 -0.5447 -0.4130  0.0440
11398TIP3    H155609   0.083   2.981  17.159 -2.1648 -0.3246 -1.1837
11398TIP3    H255610   0.105   3.075  17.276  0.7699 -2.0523 -0.3119
11399TIP3   OH255611   4.525   0.212   2.752  0.1939 -0.1073  0.2591
11399TIP3    H155612   4.608   0.242   2.788  0.9668  0.0278 -1.6118
11399TIP3    H255613   4.506   0.132   2.801  1.8725 -0.6182  0.1229
11400TIP3   OH255614   1.326   4.984   4.859 -0.1860  0.1915 -0.0143
11400TIP3    H155615   1.260   4.916   4.871 -0.7321  0.4972 -1.2017
11400TIP3    H255616   1.408   4.944   4.889 -0.6246 -0.7509 -0.0567
11401TIP3   OH255617   2.739   6.366   4.054 -0.5910 -0.4801  0.1467
11401TIP3    H155618   2.822   6.326   4.029 -1.1185 -0.5911 -1.4872
11401TIP3    H255619   2.733   6.445   4.000 -1.4849 -0.3938  0.3599
11402TIP3   OH255620   6.132   6.083   0.320 -0.3158 -0.6354 -0.4893
11402TIP3    H155621   6.089   6.002   0.291 -1.8520  0.6857 -2.0241
11402TIP3    H255622   6.192   6.105   0.250 -0.9216  0.2938 -0.7244
11403TIP3   OH255623   5.320   5.209  12.219  0.1677 -0.0364  0.1950
11403TIP3    H155624   5.331   5.120  12.253  0.3638 -0.0356  0.1330
11403TIP3    H255625   5.366   5.265  12.282  2.7440 -0.2755 -1.4076
11404TIP3   OH255626   3.732   2.142  12.450 -0.0207  0.3223  0.1809
11404TIP3    H155627   3.733   2.176  12.360  0.4721 -0.0441  0.0402
11404TIP3    H255628   3.773   2.056  12.443  0.1810  0.3666  0.7871
11405TIP3   OH255629   2.790   4.005  13.622  0.5422  0.6304  0.5894
11405TIP3    H155630   2.871   4.027  13.668 -0.8160  2.0383  2.4076
11405TIP3    H255631   2.759   4.088  13.587 -1.2495  0.5377  1.8599
11406TIP3   OH255632   0.894   0.595   0.344  0.3308  0.7861 -0.4747
11406TIP3    H155633   0.888   0.554   0.430 -1.4855 -0.6302 -1.2513
11406TIP3    H255634   0.830   0.666   0.348  2.1583  2.4290  0.2350
11407TIP3   OH255635   2.646   4.240   5.856 -0.5380  0.4147  0.1257
11407TIP3    H155636   2.664   4.237   5.762 -1.4531 -0.5007 -0.0248
11407TIP3    H255637   2.726   4.207   5.897  0.1054  1.4119 -0.2857
11408TIP3   OH255638   0.596   5.271   4.897 -0.0871 -0.4352  0.6745
11408TIP3    H155639   0.618   5.271   4.804 -1.5117 -0.2917  0.3156
11408TIP3    H255640   0.679   5.281   4.942  0.5713 -0.0851 -0.6039
11409TIP3   OH255641   6.308   0.348  12.466  0.1933  0.1910  0.3523
11409TIP3    H155642   6.263   0.293  12.402  1.4287  0.3240 -0.6479
11409TIP3    H255643   6.387   0.377  12.422  1.5268 -0.4311  2.2321
11410TIP3   OH255644   5.233   6.642  12.555  0.2756 -0.5365 -0.5431
11410TIP3    H155645   5.184   6.661  12.475  0.3248 -1.5912 -0.8425
11410TIP3    H255646   5.259   6.727  12.589  0.6685 -0.0995 -1.9167
11411TIP3   OH255647   5.721   6.568   2.714 -0.3373  0.2010 -0.1964
11411TIP3    H155648   5.797   6.623   2.735  1.7949 -2.2225 -1.2602
11411TIP3    H255649   5.683   6.546   2.799 -1.2792  3.3426  0.2363
11412TIP3   OH255650   1.597   5.330   4.225  0.1999 -0.1455  0.1245
11412TIP3    H155651   1.668   5.317   4.162  0.2348  0.4477  0.0461
11412TIP3    H255652   1.527   5.272   4.193  0.7881 -1.0442  0.4373
11413TIP3   OH255653   2.970   5.265  14.648 -0.7472  0.4207  0.3928
11413TIP3    H155654   2.919   5.333  14.603  0.6606  1.1150 -0.2023
11413TIP3    H255655   2.906   5.198  14.671 -1.6044  0.2275 -2.3108
11414TIP3   OH255656   3.350   2.349  13.346 -0.2468  0.1758  0.0005
11414TIP3    H155657   3.424   2.343  13.407 -0.8598  0.3186  0.7707
11414TIP3    H255658   3.380   2.410  13.278  0.0004  0.9827  0.8172
11415TIP3   OH255659   3.745   3.484  11.444  0.3330 -0.0041  0.3749
11415TIP3    H155660   3.677   3.501  11.378 -1.4906  0.1323  2.2475
11415TIP3    H255661   3.700   3.434  11.512  2.8452 -2.4883  0.3147
11416TIP3   OH255662   2.841   0.529   4.752  0.1325  0.7373 -0.0017
11416TIP3    H155663   2.823   0.615   4.715  0.0881  0.6601 -0.1594
11416TIP3    H255664   2.773   0.472   4.716  0.1661  0.6337  0.0958
11417TIP3   OH255665   3.628   4.219  11.892  0.0776 -0.6974  0.2604
11417TIP3    H155666   3.709   4.270  11.885 -0.3398  0.2934  2.1780
11417TIP3    H255667   3.573   4.252  11.821  0.1596  0.8821  0.9173
11418TIP3   OH255668   3.722   4.370   2.761 -0.2585 -0.1542 -0.1601
11418TIP3    H155669   3.661   4.438   2.733 -0.5847 -0.9137 -1.3869
11418TIP3    H255670   3.773   4.410   2.831 -3.5048 -0.1129  2.3294
11419TIP3   OH255671   1.977   5.580   1.508  0.6003 -0.2547  0.3453
11419TIP3    H155672   1.894   5.547   1.473  1.5733 -1.3973 -0.9402
11419TIP3    H255673   1.981   5.546   1.598 -0.5848  0.3041  0.6162
11420TIP3   OH255674   0.903   2.407   2.804 -0.8022  0.4130 -0.2582
11420TIP3    H155675   0.883   2.417   2.711 -1.1227 -0.8969 -0.3403
11420TIP3    H255676   0.930   2.315   2.813  0.6964  0.9155  0.6719
11421TIP3   OH255677   6.478   1.276  12.558 -0.2759 -0.0620  0.1113
11421TIP3    H155678   6.512   1.320  12.636  0.3665  1.7250 -1.1637
11421TIP3    H255679   6.530   1.310  12.486 -1.8437 -0.5903 -1.3062
11422TIP3   OH255680   5.385   1.122  14.525  0.1152 -0.1822  0.2744
11422TIP3    H155681   5.440   1.081  14.592 -0.3564  1.3525  1.6402
11422TIP3    H255682   5.356   1.204  14.565 -0.3753  0.6512 -1.7322
11423TIP3   OH255683   5.423   1.658   3.470 -0.3471 -0.1922  0.1395
11423TIP3    H155684   5.448   1.566   3.479 -1.4444 -0.4067  1.0981
11423TIP3    H255685   5.328   1.657   3.471 -0.3642  0.9682  0.2322
11424TIP3   OH255686   3.753   4.517  14.638 -0.0224  0.1229  0.3798
11424TIP3    H155687   3.773   4.465  14.560  1.2994 -1.3646  1.6582
11424TIP3    H255688   3.799   4.600  14.624  1.7806 -0.8366  0.3831
11425TIP3   OH255689   2.574   3.017   4.161  0.3540 -0.0402  0.2204
11425TIP3    H155690   2.533   2.998   4.245  1.4513 -0.5592  0.6454
11425TIP3    H255691   2.518   2.974   4.097 -0.7732  0.7919  0.6434
11426TIP3   OH255692   4.759   5.145  10.597  0.1627  0.1953  0.0720
11426TIP3    H155693   4.837   5.175  10.644  0.2611 -1.5680  1.1101
11426TIP3    H255694   4.699   5.118  10.667 -0.6883 -0.1068 -0.7709
11427TIP3   OH255695   1.440   0.062   4.000  0.1623 -0.5863  0.1955
11427TIP3    H155696   1.519   0.102   3.963  0.1547  0.3560  1.1693
11427TIP3    H255697   1.393   0.028   3.925  0.0073  1.5375 -0.7072
11428TIP3   OH255698   0.662   5.815   4.882  0.2563  0.1814  0.6180
11428TIP3    H155699   0.695   5.799   4.970 -0.5381 -1.4621  0.6308
11428TIP3    H255700   0.611   5.737   4.860 -1.5483  1.5918 -0.3730
11429TIP3   OH255701   6.382   2.637  12.664 -0.1461 -0.4052 -0.2474
11429TIP3    H155702   6.296   2.596  12.659  0.3741 -1.3036 -2.8935
11429TIP3    H255703   6.401   2.663  12.573  1.6825  1.2176  0.5630
11430TIP3   OH255704   5.241   6.598  14.494 -0.2321 -0.1251 -0.5209
11430TIP3    H155705   5.191   6.617  14.574  0.3624  1.8911 -0.5958
11430TIP3    H255706   5.176   6.601  14.424 -0.2684  0.9301 -0.4409
11431TIP3   OH255707   5.383   4.365  15.291  0.1149 -0.0982  0.0233
11431TIP3    H155708   5.333   4.446  15.277  1.2837  0.9008  1.3877
11431TIP3    H255709   5.372   4.347  15.385  0.5756 -1.0502 -0.1024
11432TIP3   OH255710   6.358   6.770  14.774 -0.5679  0.3607  0.4548
11432TIP3    H155711   6.270   6.801  14.755 -0.6615 -1.2446 -2.0230
11432TIP3    H255712   6.346   6.706  14.845 -1.2263  1.0596  0.9775
11433TIP3   OH255713   3.371   3.420   4.020  0.3381 -0.1172 -0.2322
11433TIP3    H155714   3.405   3.499   3.980  2.0349 -0.9401 -0.4533
11433TIP3    H255715   3.439   3.393   4.082 -0.0715 -1.5574 -0.3831
11434TIP3   OH255716   3.466   4.875   3.016  0.1156  0.3514 -0.6673
11434TIP3    H155717   3.489   4.794   2.971  0.3610 -0.9962  1.8538
11434TIP3    H255718   3.536   4.936   2.993 -0.0103 -0.1522 -2.4648
11435TIP3   OH255719   3.603   1.014   6.344 -0.1263  0.2201  0.4897
11435TIP3    H155720   3.684   1.028   6.392  0.3008  0.2507 -0.2296
11435TIP3    H255721   3.587   0.920   6.350  0.3979  0.0945 -0.0551
11436TIP3   OH255722   6.155   3.511  15.577  0.3694 -0.1831  0.0518
11436TIP3    H155723   6.222   3.508  15.508 -0.7350 -0.4990 -1.0268
11436TIP3    H255724   6.096   3.581  15.550 -1.0177 -1.4300 -0.2229
11437TIP3   OH255725   5.121   4.743   5.549 -0.0857  0.7103 -0.9678
11437TIP3    H155726   5.139   4.655   5.514  0.8290  1.0274 -1.3151
11437TIP3    H255727   5.054   4.778   5.491 -0.2410  0.3475 -1.0088
11438TIP3   OH255728   6.049   4.773  16.972  0.0505 -0.2688 -0.4076
11438TIP3    H155729   5.955   4.755  16.969 -0.3986  2.0946 -1.6516
11438TIP3    H255730   6.055   4.861  17.008  1.8224 -0.5065 -0.1054
11439TIP3   OH255731   5.244   1.305   3.969  0.3409  0.2367 -0.4135
11439TIP3    H155732   5.278   1.372   4.028  0.0611  0.2345 -0.2478
11439TIP3    H255733   5.282   1.223   4.002 -0.8931  0.0550  0.6081
11440TIP3   OH255734   0.803   1.012   1.015 -0.4215 -0.1846  0.2242
11440TIP3    H155735   0.781   1.020   0.923  0.4089  1.4788  0.1516
11440TIP3    H255736   0.724   1.041   1.061  0.1122  1.7097 -0.0033
11441TIP3   OH255737   2.297   5.756   5.578  0.1865  1.0645  0.4347
11441TIP3    H155738   2.373   5.801   5.541  0.0726  0.9558  0.0640
11441TIP3    H255739   2.315   5.751   5.671 -0.3126  2.8646  0.6460
11442TIP3   OH255740   4.252   6.586   2.683 -0.5573 -0.4688 -0.0876
11442TIP3    H155741   4.335   6.540   2.691  0.2301  1.0372  0.7053
11442TIP3    H255742   4.269   6.673   2.720 -3.0408 -0.8022  1.9650
11443TIP3   OH255743   3.651   3.814  11.356 -0.7715 -0.1994 -0.4305
11443TIP3    H155744   3.564   3.831  11.323 -0.2535  1.6998 -0.8590
11443TIP3    H255745   3.700   3.781  11.281 -0.7732 -0.0260 -0.5082
11444TIP3   OH255746   3.352   2.678   1.789  0.0502  0.2358  0.1149
11444TIP3    H155747   3.312   2.650   1.871 -0.1665  0.6223  0.1420
11444TIP3    H255748   3.279   2.707   1.734  0.4273  2.8126  0.8859
11445TIP3   OH255749   0.866   4.206  12.021  0.2584 -0.4759  0.1265
11445TIP3    H155750   0.822   4.253  12.093 -1.1133  0.6012 -1.3789
11445TIP3    H255751   0.798   4.152  11.983  0.8871 -0.7490 -0.6105
11446TIP3   OH255752   6.371   0.580  16.443 -0.2626 -0.2319 -0.5307
11446TIP3    H155753   6.368   0.636  16.365  1.2227  0.1764 -0.3001
11446TIP3    H255754   6.445   0.613  16.494 -0.8615 -0.8688  0.7858
11447TIP3   OH255755   4.964   4.897   0.609  0.3431 -0.4562 -0.5256
11447TIP3    H155756   4.946   4.929   0.697 -1.1101 -2.1456 -0.1763
11447TIP3    H255757   5.020   4.964   0.570  1.2513  0.1670  1.7707
11448TIP3   OH255758   1.370   5.160   4.131  0.6233  0.3183 -0.1138
11448TIP3    H155759   1.351   5.165   4.037 -3.1814  1.7128  0.6574
11448TIP3    H255760   1.352   5.069   4.155 -0.2361  0.4153 -0.3847
11449TIP3   OH255761   2.104   2.423  14.193  0.0682 -0.4559  0.6936
11449TIP3    H155762   2.096   2.330  14.172 -0.7176 -0.3064  0.3194
11449TIP3    H255763   2.198   2.438  14.201  0.1666 -1.4762  1.6186
11450TIP3   OH255764   0.973   0.802  13.767  0.2561 -0.3747  0.0058
11450TIP3    H155765   0.962   0.883  13.717  2.5254  0.7911  1.3112
11450TIP3    H255766   0.885   0.781  13.798 -0.1742  2.3815  0.8098
11451TIP3   OH255767   2.563   2.772  14.073 -0.1411 -0.2697 -0.3748
11451TIP3    H155768   2.500   2.795  14.141  0.5261  0.7207 -0.0787
11451TIP3    H255769   2.631   2.722  14.118 -0.9075 -1.7005 -0.7711
11452TIP3   OH255770   6.014   6.305  13.135  0.5212  0.3868 -0.2903
11452TIP3    H155771   6.054   6.247  13.199 -2.3271 -0.7973  0.4455
11452TIP3    H255772   6.088   6.355  13.100  2.4543 -0.6914  2.0834
11453TIP3   OH255773   0.629   4.800  16.372 -0.0251 -0.7488  0.0561
11453TIP3    H155774   0.675   4.794  16.456 -1.7321 -1.9994  0.9546
11453TIP3    H255775   0.576   4.879  16.379  0.5050 -0.3655 -0.2101
11454TIP3   OH255776   6.707   3.454  16.599 -0.2570  0.1787 -0.8247
11454TIP3    H155777   6.615   3.476  16.587  0.2535  2.0494 -1.4815
11454TIP3    H255778   6.742   3.445  16.510  0.2396 -0.3636 -0.5851
11455TIP3   OH255779   5.184   3.229   4.925  0.3786  0.0650  0.6082
11455TIP3    H155780   5.261   3.220   4.982  1.9492 -1.3792 -1.6669
11455TIP3    H255781   5.114   3.184   4.973  1.4792 -0.5077  1.7115
11456TIP3   OH255782   2.928   2.065   5.832 -0.1307 -0.1902  0.6552
11456TIP3    H155783   2.836   2.051   5.851 -0.0602 -1.6527 -0.0212
11456TIP3    H255784   2.963   2.108   5.910 -1.2706 -0.0666  1.1031
11457TIP3   OH255785   3.754   3.450  11.031 -0.0867 -0.2840  0.0538
11457TIP3    H155786   3.759   3.355  11.036  0.2523 -0.3221 -0.8407
11457TIP3    H255787   3.779   3.470  10.940 -0.2191  0.6457  0.2205
11458TIP3   OH255788   3.443   2.885   1.424  0.0187  0.3131 -0.3943
11458TIP3    H155789   3.510   2.939   1.383  1.4145 -1.8254 -1.0162
11458TIP3    H255790   3.489   2.837   1.493 -1.0428 -0.5500 -0.2610
11459TIP3   OH255791   5.461   0.865   0.043  0.5976  0.4341 -0.0570
11459TIP3    H155792   5.531   0.825  -0.009  0.3112  0.5081 -0.5043
11459TIP3    H255793   5.398   0.898  -0.022  0.5418  1.0883  0.3170
11460TIP3   OH255794   3.818   3.762  13.633  0.5101  0.5705  0.1705
11460TIP3    H155795   3.856   3.845  13.606 -0.3975  0.5668 -1.1410
11460TIP3    H255796   3.750   3.744  13.569 -0.5787 -0.2706  1.5191
11461TIP3   OH255797   0.594   6.184   4.638  0.6643  0.1296  0.0354
11461TIP3    H155798   0.684   6.182   4.606  0.9540 -0.6644  0.9105
11461TIP3    H255799   0.569   6.092   4.645 -0.8702  0.3509 -2.0270
11462TIP3   OH255800   0.879   6.091   4.193 -0.3538 -0.7642  0.5272
11462TIP3    H155801   0.877   6.153   4.120  1.2560 -0.1578  0.9671
11462TIP3    H255802   0.922   6.139   4.263  0.8352 -2.3508  0.9052
11463TIP3   OH255803   4.811   6.227  16.188 -0.0802 -0.1406  0.6080
11463TIP3    H155804   4.776   6.166  16.123  0.7058 -0.6566  0.6721
11463TIP3    H255805   4.821   6.175  16.267 -1.3463  0.5650  1.2525
11464TIP3   OH255806   4.440   6.221  12.041  0.0717 -0.0036 -0.0226
11464TIP3    H155807   4.511   6.242  12.102  0.5566  0.5221 -0.7668
11464TIP3    H255808   4.416   6.304  12.001 -0.3294 -0.3278 -0.4661
11465TIP3   OH255809   3.136   4.005  15.394 -0.1893  0.2434 -0.4503
11465TIP3    H155810   3.133   3.939  15.324 -0.1239 -0.2060 -0.0329
11465TIP3    H255811   3.223   3.995  15.432 -0.8410 -0.6971  0.8253
11466TIP3   OH255812   5.142   4.065   1.273 -0.3824  0.2905 -0.3143
11466TIP3    H155813   5.103   3.978   1.279  0.5075 -0.1520 -0.9028
11466TIP3    H255814   5.106   4.112   1.349 -1.3626 -0.3782 -0.3477
11467TIP3   OH255815   4.744   3.994   3.814  0.3225 -0.8506  0.1127
11467TIP3    H155816   4.735   3.906   3.777  0.5215 -1.0133  0.4460
11467TIP3    H255817   4.824   4.028   3.774  1.0334 -1.3674  1.0615
11468TIP3   OH255818   3.180   0.261   1.366 -0.2949  0.1216  0.4290
11468TIP3    H155819   3.115   0.326   1.395  0.6847  0.9746  0.7482
11468TIP3    H255820   3.193   0.281   1.273  0.2027  0.5625  0.5902
11469TIP3   OH255821   5.300   5.633  12.622  0.3663 -0.3610 -0.2663
11469TIP3    H155822   5.225   5.665  12.673  0.4500 -1.0465  0.3042
11469TIP3    H255823   5.280   5.540  12.608  0.2906 -0.1459 -1.5874
11470TIP3   OH255824   6.476   0.276  13.735 -0.0757 -0.2360  0.7816
11470TIP3    H155825   6.534   0.199  13.728  0.4477  0.2255 -0.1647
11470TIP3    H255826   6.522   0.344  13.686 -0.5223  0.6946  1.6628
11471TIP3   OH255827   5.632   3.404   1.799  0.8718 -0.6697  0.0404
11471TIP3    H155828   5.639   3.319   1.754 -0.2468 -1.1063  0.6918
11471TIP3    H255829   5.582   3.385   1.878  0.5383  0.6250  0.1418
11472TIP3   OH255830   6.587   6.346  15.608 -0.0341 -0.1836 -0.0051
11472TIP3    H155831   6.537   6.289  15.666  2.0756 -0.9629  1.0893
11472TIP3    H255832   6.676   6.313  15.613  0.4319  0.5398 -2.7183
11473TIP3   OH255833   3.808   3.074   3.824  0.2364 -0.2523  0.1987
11473TIP3    H155834   3.796   3.070   3.919 -0.6496  1.0545  0.1508
11473TIP3    H255835   3.903   3.078   3.812  0.3173  0.4959  1.0707
11474TIP3   OH255836   1.263   2.906   3.007 -0.3881  0.4494  0.2578
11474TIP3    H155837   1.352   2.939   3.015 -0.0869 -0.1631 -0.4501
11474TIP3    H255838   1.245   2.865   3.092 -0.6586  2.1276  1.0274
11475TIP3   OH255839   5.992   3.992  15.671 -0.8967 -0.6496  0.4290
11475TIP3    H155840   5.960   4.079  15.647 -0.0674 -1.4563 -3.9492
11475TIP3    H255841   6.087   3.998  15.664 -0.8041 -1.7894  0.5077
11476TIP3   OH255842   5.195   4.611   0.298  0.0226 -0.2650 -0.6556
11476TIP3    H155843   5.187   4.614   0.203  1.0378  1.0238 -0.7100
11476TIP3    H255844   5.210   4.518   0.318 -0.1440 -0.5289 -1.7517
11477TIP3   OH255845   1.660   3.365   4.442  0.2224 -0.3260 -0.2245
11477TIP3    H155846   1.619   3.346   4.526  1.0033  0.1361  0.2683
11477TIP3    H255847   1.754   3.361   4.459  0.4202  2.6888 -0.3764
11478TIP3   OH255848   6.131   6.037  11.534  0.0493 -0.2093 -0.2644
11478TIP3    H155849   6.143   6.085  11.616  0.3184 -1.4331  0.4316
11478TIP3    H255850   6.068   6.090  11.484  0.9846  1.2939  0.1129
11479TIP3   OH255851   0.644   5.552   1.610 -0.3034  0.4991 -0.1486
11479TIP3    H155852   0.595   5.478   1.647  0.5574 -1.0655 -2.0618
11479TIP3    H255853   0.598   5.629   1.643 -1.4292 -0.8607  1.6293
11480TIP3   OH255854   0.642   2.712  13.953  0.9860  0.0352 -0.0144
11480TIP3    H155855   0.697   2.704  14.031 -0.1166  1.5016  0.9199
11480TIP3    H255856   0.614   2.803  13.952 -1.1835 -0.6201 -0.6453
11481TIP3   OH255857   0.167   4.244   2.691 -0.4214  0.0603 -0.5405
11481TIP3    H155858   0.127   4.327   2.667 -2.2244  0.0885  2.3018
11481TIP3    H255859   0.213   4.262   2.773  1.1894 -1.2085 -1.1241
11482TIP3   OH255860   1.430   6.551  15.591 -0.3640 -0.1591  0.4197
11482TIP3    H155861   1.453   6.615  15.658 -1.1980 -0.7448  1.2735
11482TIP3    H255862   1.470   6.585  15.511  1.2922  0.1282  1.3642
11483TIP3   OH255863   5.071   1.497  12.722 -0.0145 -0.0171 -0.4148
11483TIP3    H155864   5.156   1.537  12.737  0.5113 -1.7656  1.4593
11483TIP3    H255865   5.016   1.532  12.792 -0.0888 -0.9898  0.0216
11484TIP3   OH255866   0.168   4.872  15.754  0.1168  0.6937 -0.5669
11484TIP3    H155867   0.210   4.817  15.688  0.2635 -1.2434  1.1174
11484TIP3    H255868   0.232   4.941  15.771  1.9207 -1.2341  0.6882
11485TIP3   OH255869   6.631   6.108   3.132 -0.2998 -0.0425  0.0495
11485TIP3    H155870   6.712   6.111   3.081  0.4906 -0.9129  1.2363
11485TIP3    H255871   6.609   6.015   3.138 -1.3439  0.1773 -0.1700
11486TIP3   OH255872   4.210   3.153  16.322 -0.2587  0.2718  0.3695
11486TIP3    H155873   4.184   3.245  16.315  0.5294  0.6282  1.8598
11486TIP3    H255874   4.189   3.129  16.413  0.1764 -0.8137  0.1913
11487TIP3   OH255875   4.571   0.993   4.809 -0.0439  0.0502  0.1513
11487TIP3    H155876   4.604   1.070   4.763  3.1314  0.1170  2.3441
11487TIP3    H255877   4.523   1.029   4.884 -0.4532 -0.0752 -0.0530
11488TIP3   OH255878   0.669   5.778   0.108  0.0182  0.2779  0.1738
11488TIP3    H155879   0.700   5.734   0.187 -0.5124  0.6075  0.5717
11488TIP3    H255880   0.736   5.761   0.043 -0.5122 -1.7353  0.1251
11489TIP3   OH255881   6.204   0.570   3.024 -0.0377  0.0193 -0.6941
11489TIP3    H155882   6.209   0.590   2.930 -1.3908 -2.1178 -1.2601
11489TIP3    H255883   6.252   0.641   3.066  1.0745  0.7248 -3.0483
11490TIP3   OH255884   2.267   1.370  16.429 -0.3784 -0.6663  0.3034
11490TIP3    H155885   2.286   1.336  16.517  1.9464 -0.0763  0.0630
11490TIP3    H255886   2.346   1.418  16.404 -1.5787  0.4255 -1.5278
11491TIP3   OH255887   1.274   3.878  13.220 -0.2157 -0.4720 -0.4013
11491TIP3    H155888   1.274   3.848  13.130  1.7085 -0.5321 -0.4076
11491TIP3    H255889   1.199   3.937  13.226  0.1215  0.1620 -2.2369
11492TIP3   OH255890   2.611   4.094  16.928  0.2346 -0.8439  0.3968
11492TIP3    H155891   2.695   4.140  16.924 -0.0559 -0.0327  2.7710
11492TIP3    H255892   2.603   4.067  17.019 -2.3952 -0.3197  0.3647
11493TIP3   OH255893   1.392   6.187   3.000  0.3619  0.4342  0.6311
11493TIP3    H155894   1.441   6.186   3.083  0.4636  0.1223  0.5679
11493TIP3    H255895   1.458   6.201   2.933  0.2134  1.2012  0.6457
11494TIP3   OH255896   0.790   4.726  12.599 -0.2997 -0.6483 -0.6016
11494TIP3    H155897   0.859   4.674  12.558  0.1148 -0.1858 -0.4872
11494TIP3    H255898   0.791   4.810  12.552 -2.6636 -1.6165 -2.5296
11495TIP3   OH255899   1.237   4.917   0.108  0.4040  0.3891  0.1795
11495TIP3    H155900   1.241   4.961   0.023 -0.7897 -0.4150 -0.3026
11495TIP3    H255901   1.326   4.888   0.124  0.0829 -2.1219 -2.2427
11496TIP3   OH255902   0.731   0.745   4.366 -0.6919 -0.4885  0.3118
11496TIP3    H155903   0.644   0.715   4.341 -0.7606  0.4696 -0.6464
11496TIP3    H255904   0.715   0.815   4.430 -0.6968  0.7628 -1.0248
11497TIP3   OH255905   6.062   5.720  17.044  0.0994  0.5178 -0.7722
11497TIP3    H155906   6.127   5.688  16.980  0.8359  1.3737 -0.4678
11497TIP3    H255907   6.087   5.811  17.059 -0.4365  0.4905  0.2938
11498TIP3   OH255908   6.369   5.155  13.302 -0.4031  0.3222  0.5351
11498TIP3    H155909   6.456   5.159  13.342  1.3826  0.7404 -3.0893
11498TIP3    H255910   6.320   5.227  13.341  1.2099  0.7083  1.8999
11499TIP3   OH255911   6.154   1.549  14.541 -0.0426  0.0809  0.2812
11499TIP3    H155912   6.059   1.555  14.553  0.1275  0.7629  1.3349
11499TIP3    H255913   6.178   1.469  14.588 -0.1916 -0.5374 -0.6673
11500TIP3   OH255914   6.785   1.177  12.684 -0.0947 -0.2723 -0.5646
11500TIP3    H155915   6.812   1.107  12.744 -1.1555 -1.2017 -1.1345
11500TIP3    H255916   6.774   1.133  12.599 -0.3674  0.6667 -1.0226
11501TIP3   OH255917   3.699   3.120   5.965  0.0195 -0.1816  0.3193
11501TIP3    H155918   3.641   3.187   5.929 -0.4813  0.2761  1.9245
11501TIP3    H255919   3.643   3.045   5.981  0.0383 -0.0529  1.0187
11502TIP3   OH255920   1.886   2.510   3.866  0.1398 -0.6926 -0.0250
11502TIP3    H155921   1.806   2.546   3.905  2.2993  2.7939  1.4571
11502TIP3    H255922   1.932   2.470   3.940  1.6985  1.1228  0.0435
11503TIP3   OH255923   6.656   4.340   5.908  0.3154  0.1390  0.0443
11503TIP3    H155924   6.728   4.387   5.950  0.0289  0.5288  0.1065
11503TIP3    H255925   6.630   4.396   5.835 -0.1368  0.1547  0.2178
11504TIP3   OH255926   3.698   0.050  15.256 -0.2904 -0.6225 -0.6197
11504TIP3    H155927   3.737   0.110  15.320  3.8859 -1.3951 -2.2950
11504TIP3    H255928   3.680  -0.029  15.306  1.6148 -0.7115 -0.0234
11505TIP3   OH255929   2.552   5.484  12.262  0.4821 -0.1332 -0.5581
11505TIP3    H155930   2.583   5.571  12.287 -0.1042 -0.6017  1.8930
11505TIP3    H255931   2.533   5.491  12.169  2.7810  1.6815 -0.9319
11506TIP3   OH255932   2.715   0.176   0.422 -0.2406 -0.3904 -0.4005
11506TIP3    H155933   2.622   0.159   0.403 -0.1533 -0.4725 -0.7548
11506TIP3    H255934   2.731   0.263   0.387  0.0460 -0.7396 -1.1530
11507TIP3   OH255935   5.346   2.921   4.822 -0.4026  0.6117 -0.1683
11507TIP3    H155936   5.255   2.925   4.795 -0.4593 -0.9893 -0.2824
11507TIP3    H255937   5.396   2.934   4.742 -0.5345  0.4669 -0.2724
11508TIP3   OH255938   2.646   5.543  13.376  0.9779 -0.5060 -0.1696
11508TIP3    H155939   2.550   5.546  13.382  0.9862  4.0228 -0.4339
11508TIP3    H255940   2.673   5.492  13.452 -1.6158 -1.1356  0.3891
11509TIP3   OH255941   2.048   2.620  17.022  0.4108 -0.1549  0.4956
11509TIP3    H155942   1.997   2.585  17.095 -0.7230 -0.2331 -0.3357
11509TIP3    H255943   2.085   2.701  17.055  0.6940 -0.6793  1.4794
11510TIP3   OH255944   5.752   6.755  12.698  0.4249 -0.3240  0.0868
11510TIP3    H155945   5.795   6.777  12.616 -0.1432  0.2071 -0.0710
11510TIP3    H255946   5.814   6.697  12.743  1.3284  0.4584 -0.1232
11511TIP3   OH255947   5.808   2.076   4.883  0.1515  0.0455 -0.8525
11511TIP3    H155948   5.760   2.054   4.803 -1.9284  1.8913 -0.1727
11511TIP3    H255949   5.750   2.047   4.954  0.6436  1.0842 -0.0072
11512TIP3   OH255950   0.658   5.134  16.002  0.2683 -0.1130 -0.6921
11512TIP3    H155951   0.719   5.072  15.962  0.4025  0.6142 -1.6441
11512TIP3    H255952   0.623   5.088  16.078  0.8337 -1.1204 -1.0319
11513TIP3   OH255953   4.427   2.341   5.487  0.2626  0.4423 -0.1982
11513TIP3    H155954   4.491   2.412   5.497 -0.5090  1.2644 -0.9957
11513TIP3    H255955   4.419   2.304   5.575  1.4236  0.6835  0.0206
11514TIP3   OH255956   2.393   5.922  14.760 -0.1239  0.2627 -0.5094
11514TIP3    H155957   2.383   5.910  14.665 -0.2539  0.9433 -0.5822
11514TIP3    H255958   2.447   5.848  14.788  0.2596  0.2843 -1.1812
11515TIP3   OH255959   5.511   1.345   4.426 -0.1164  0.1155 -0.2170
11515TIP3    H155960   5.515   1.295   4.344 -4.3048  0.5795 -0.8003
11515TIP3    H255961   5.517   1.437   4.398  1.1604  0.1975  0.2822
11516TIP3   OH255962   6.117   0.600  17.013  0.2596  0.4466  0.3404
11516TIP3    H155963   6.164   0.518  16.995  0.0351  0.4296 -0.1861
11516TIP3    H255964   6.162   0.666  16.961 -0.4344  0.3850 -0.3556
11517TIP3   OH255965   5.276   0.829   0.514 -0.0273 -0.1092  0.5439
11517TIP3    H155966   5.288   0.827   0.419 -2.3367  0.1045  0.2022
11517TIP3    H255967   5.303   0.742   0.544 -1.2281 -0.8984 -0.5997
11518TIP3   OH255968   2.243   3.719  14.357 -0.3129 -0.5739  0.1202
11518TIP3    H155969   2.154   3.734  14.388 -0.2486 -0.3708  0.2109
11518TIP3    H255970   2.235   3.653  14.289 -1.1133  2.7352 -3.1632
11519TIP3   OH255971   6.734   6.456  11.923  0.2321 -0.4764 -0.2710
11519TIP3    H155972   6.825   6.485  11.921  0.4291 -1.0737 -0.3568
11519TIP3    H255973   6.683   6.534  11.904  0.8323 -0.6155 -2.6136
11520TIP3   OH255974   4.201   0.609   3.604  0.3291 -0.8329  0.3074
11520TIP3    H155975   4.258   0.685   3.613  1.0843 -1.2858 -0.5179
11520TIP3    H255976   4.181   0.605   3.510 -0.0992 -1.3672  0.4176
11521TIP3   OH255977   4.628   4.061   4.270  0.1997  0.3235 -0.1521
11521TIP3    H155978   4.679   4.039   4.348  0.9954  0.2935 -0.6755
11521TIP3    H255979   4.685   4.038   4.197 -0.1831  1.2001 -0.7373
11522TIP3   OH255980   1.862   3.828   0.388 -0.2361 -0.0829  0.2319
11522TIP3    H155981   1.810   3.861   0.315 -1.0814 -1.2707  0.2833
11522TIP3    H255982   1.937   3.887   0.393 -1.4363  1.4774 -0.0287
11523TIP3   OH255983   2.505   5.466   4.325 -0.3601 -0.1756  0.5626
11523TIP3    H155984   2.560   5.389   4.328  1.1007  0.8810  1.2746
11523TIP3    H255985   2.479   5.473   4.233  0.4508 -0.8401  0.2780
11524TIP3   OH255986   6.588   2.686  15.686 -0.3958 -0.8325  0.3102
11524TIP3    H155987   6.671   2.708  15.729  1.5197 -2.8918 -2.1818
11524TIP3    H255988   6.536   2.767  15.692  3.1900  1.7240 -1.2487
11525TIP3   OH255989   0.102   6.084  12.745 -0.1917  0.0880 -0.7439
11525TIP3    H155990   0.088   5.990  12.745  0.2362  0.0063  1.6994
11525TIP3    H255991   0.197   6.095  12.748 -0.2704  0.5741  0.2971
11526TIP3   OH255992   3.398   3.935   2.435  0.7252  0.3461  0.0019
11526TIP3    H155993   3.487   3.919   2.402  0.5819 -0.9895  0.2091
11526TIP3    H255994   3.410   3.995   2.509  1.6745 -1.1876  1.1403
11527TIP3   OH255995   6.134   6.725   0.224 -0.3950  0.0440  0.1562
11527TIP3    H155996   6.067   6.663   0.252  0.2495 -0.3638  0.8322
11527TIP3    H255997   6.091   6.810   0.223 -1.2398 -0.3896 -0.5968
11528TIP3   OH255998   4.149   6.468   0.995 -0.1527  0.1210 -0.4365
11528TIP3    H155999   4.233   6.426   0.975 -0.9391 -1.4082 -0.6133
11528TIP3    H256000   4.089   6.395   1.012 -1.4028  1.1969 -0.1334
11529TIP3   OH256001   5.967   3.542   0.108  0.6162 -0.1213 -0.4187
11529TIP3    H156002   5.931   3.478   0.046 -0.6735 -2.0397  2.2432
11529TIP3    H256003   6.043   3.498   0.146  1.1693  0.9081 -0.3189
11530TIP3   OH256004   6.353   4.934  17.113  0.2056 -0.1961  0.2810
11530TIP3    H156005   6.398   4.865  17.063  0.6411  0.7269 -0.6141
11530TIP3    H256006   6.260   4.919  17.095  0.1908 -1.5367  1.3862
11531TIP3   OH256007   4.042   3.910  14.255 -0.3710  0.0235  0.1258
11531TIP3    H156008   4.029   3.981  14.317 -1.0704  0.3344 -0.3710
11531TIP3    H256009   4.044   3.831  14.310  0.2797  0.4096  0.6622
11532TIP3   OH256010   3.201   4.167   2.845 -0.2110  0.2362 -0.0996
11532TIP3    H156011   3.119   4.135   2.807  0.2811  0.4631 -1.3854
11532TIP3    H256012   3.252   4.088   2.861 -0.2594  0.1625 -0.3017
11533TIP3   OH256013   4.268   5.323   4.905  0.0334  0.2385 -0.1418
11533TIP3    H156014   4.333   5.302   4.839 -1.4307 -2.1092 -0.9038
11533TIP3    H256015   4.319   5.340   4.985  1.6085 -0.5243 -0.9707
11534TIP3   OH256016   2.866   3.993  14.815 -0.1799 -1.3986  0.5639
11534TIP3    H156017   2.929   3.940  14.863  1.2639 -0.7836 -0.6234
11534TIP3    H256018   2.870   3.961  14.725 -2.8351 -2.5183  0.7853
11535TIP3   OH256019   2.534   4.335   4.783  0.0718 -0.0932 -0.1503
11535TIP3    H156020   2.626   4.312   4.797 -0.6791 -2.1145  1.7945
11535TIP3    H256021   2.513   4.396   4.854 -0.6199 -1.2935  0.7109
11536TIP3   OH256022   4.989   2.390   3.149 -0.3706 -0.6348 -0.1206
11536TIP3    H156023   5.040   2.460   3.189  0.7260  0.1623 -2.7725
11536TIP3    H256024   4.898   2.411   3.171  0.1280  0.3264  1.0721
11537TIP3   OH256025   5.077   1.979   3.597  0.8668  0.2162 -0.1641
11537TIP3    H156026   5.046   1.902   3.550  0.3888  1.1687 -1.4291
11537TIP3    H256027   5.172   1.977   3.586  1.2739 -2.2628  3.0436
11538TIP3   OH256028   5.812   4.761  15.910  0.3892 -0.3069  0.0985
11538TIP3    H156029   5.878   4.727  15.972  1.2123  0.4616 -0.3382
11538TIP3    H256030   5.832   4.717  15.828  0.0531 -0.4312  0.0845
11539TIP3   OH256031   3.240   4.481   1.975 -0.8904  0.1449 -0.3391
11539TIP3    H156032   3.257   4.425   1.900 -0.8197 -2.4360  1.5538
11539TIP3    H256033   3.325   4.492   2.018 -1.6427 -2.1354  1.8602
11540TIP3   OH256034   1.191   0.032  11.752  0.2752 -0.3431  0.2178
11540TIP3    H156035   1.172  -0.035  11.686  1.3550 -0.6781  0.2494
11540TIP3    H256036   1.252   0.092  11.709 -0.5405  0.5347  0.2539
11541TIP3   OH256037   3.434   4.661   1.489 -0.3665  0.3221 -0.0134
11541TIP3    H156038   3.380   4.733   1.520 -2.0921 -0.4444 -1.1632
11541TIP3    H256039   3.372   4.596   1.456  1.1526 -1.7165  1.0209
11542TIP3   OH256040   4.595   1.334   0.252 -0.2583 -0.2364  0.8345
11542TIP3    H156041   4.521   1.328   0.312 -0.9047  2.1553  0.3209
11542TIP3    H256042   4.662   1.384   0.301 -0.1947  0.3477  0.1656
11543TIP3   OH256043   5.484   6.196  12.191  0.1381  0.0175  0.0263
11543TIP3    H156044   5.550   6.150  12.242 -1.4366 -0.8463  1.3243
11543TIP3    H256045   5.505   6.289  12.202  1.4595 -0.2610 -0.0425
11544TIP3   OH256046   4.816   2.125   4.922 -0.5467  0.0642 -0.2077
11544TIP3    H156047   4.769   2.052   4.881 -0.4673  0.5426 -1.1524
11544TIP3    H256048   4.786   2.203   4.875 -0.4117  0.6110  0.6090
11545TIP3   OH256049   3.345   0.264  14.049 -0.1280  0.2369  0.4833
11545TIP3    H156050   3.275   0.258  14.114 -1.1785  1.9247 -0.4602
11545TIP3    H256051   3.302   0.300  13.971  1.8136  1.5255 -0.0302
11546TIP3   OH256052   1.952   4.266   1.480  0.4171 -0.0502 -0.0900
11546TIP3    H156053   1.950   4.170   1.478  2.3707 -0.1139  0.0942
11546TIP3    H256054   1.913   4.292   1.397  3.0890 -1.0982 -1.7452
11547TIP3   OH256055   5.940   0.679   0.009  0.5379 -0.3179 -0.1195
11547TIP3    H156056   5.997   0.635  -0.054  2.5242  1.5569  0.2890
11547TIP3    H256057   5.985   0.670   0.093  0.6927  1.8597  0.0775
11548TIP3   OH256058   2.808   1.543   4.341  0.4041 -0.6486 -0.3891
11548TIP3    H156059   2.713   1.542   4.330  0.3152 -0.9793  0.3934
11548TIP3    H256060   2.834   1.630   4.310 -0.3628  0.1229  1.0677
11549TIP3   OH256061   5.101   3.834  16.725 -0.1841  0.1371 -0.9328
11549TIP3    H156062   5.100   3.740  16.707 -0.2340 -0.1583  0.5673
11549TIP3    H256063   5.009   3.860  16.723 -0.2333 -0.0050 -0.5692
11550TIP3   OH256064   4.936   0.771   1.710 -0.1540 -0.0021  0.2367
11550TIP3    H156065   5.020   0.728   1.698  0.1207  0.1098  1.6926
11550TIP3    H256066   4.871   0.701   1.699  0.2713 -0.7239  2.1740
11551TIP3   OH256067   4.177   2.784   2.065  0.1304  0.5038  0.0526
11551TIP3    H156068   4.142   2.780   2.154 -2.7272  1.2531 -0.9710
11551TIP3    H256069   4.115   2.840   2.017  0.8381 -0.9492 -2.7260
11552TIP3   OH256070   2.257   3.979  14.624  0.0366 -0.1172  0.3381
11552TIP3    H156071   2.248   4.063  14.669 -0.6355 -0.1219  0.2155
11552TIP3    H256072   2.172   3.937  14.635 -0.2640  0.0596 -1.2924
11553TIP3   OH256073   3.055   2.503   1.412  0.1612  0.2689 -0.4268
11553TIP3    H156074   3.024   2.593   1.409  0.4492  0.3189 -3.0235
11553TIP3    H256075   2.998   2.456   1.350  0.8813 -1.0598 -0.1108
11554TIP3   OH256076   3.095   5.969  14.733 -0.1204  0.5587  0.1678
11554TIP3    H156077   3.043   5.951  14.654  2.2186  2.0817 -1.8209
11554TIP3    H256078   3.140   6.051  14.713  2.3040 -0.2238  2.1639
11555TIP3   OH256079   4.480   3.776  16.145 -0.0705  0.1311 -0.2644
11555TIP3    H156080   4.407   3.781  16.083  1.6377  0.4896 -2.3090
11555TIP3    H256081   4.493   3.682  16.158 -0.0334  0.0368 -0.9488
11556TIP3   OH256082   0.989   2.534  11.915  0.7613  0.0239  0.8029
11556TIP3    H156083   1.027   2.473  11.852  0.6187 -0.5363  1.2577
11556TIP3    H256084   0.909   2.566  11.873 -0.5389 -2.0808  1.6429
11557TIP3   OH256085   0.301   5.566   5.144 -0.3391 -0.0827 -0.7774
11557TIP3    H156086   0.242   5.581   5.218 -0.6723 -0.5256 -0.9463
11557TIP3    H256087   0.291   5.644   5.089  1.3759  1.1403  0.5993
11558TIP3   OH256088   4.890   0.540  13.271 -0.6420 -0.3120 -0.2817
11558TIP3    H156089   4.800   0.567  13.290 -1.2498 -3.8333  2.3059
11558TIP3    H256090   4.927   0.518  13.356  1.4258 -2.5055 -1.6793
11559TIP3   OH256091   6.154   3.472   5.002  0.0270  0.5388 -0.0939
11559TIP3    H156092   6.179   3.527   4.928  2.7229  1.5389  1.4876
11559TIP3    H256093   6.190   3.517   5.079 -2.0104 -0.8801  1.7626
11560TIP3   OH256094   5.227   0.475   1.324  0.0396  0.6611 -0.4117
11560TIP3    H156095   5.312   0.477   1.278  0.2008 -0.1610 -0.1631
11560TIP3    H256096   5.177   0.407   1.278 -0.4026  0.9787 -0.4036
11561TIP3   OH256097   0.970   1.811  16.776 -0.2580 -0.2088 -0.0961
11561TIP3    H156098   0.964   1.865  16.698  0.6939  0.9383  0.6119
11561TIP3    H256099   0.924   1.860  16.844  1.2128  0.0741  0.7310
11562TIP3   OH256100   2.948   2.542   2.388 -0.0080  0.4436 -0.3483
11562TIP3    H156101   2.855   2.563   2.398 -0.6843 -1.2388 -2.5167
11562TIP3    H256102   2.980   2.603   2.322  0.5542  1.2976  0.6972
11563TIP3   OH256103   5.054   0.054  16.604  0.2040  0.4938  0.2821
11563TIP3    H156104   5.029  -0.034  16.576 -1.9436  0.5632  1.8416
11563TIP3    H256105   5.038   0.109  16.528  0.9885 -0.3701 -0.5131
11564TIP3   OH256106   2.094   5.614  10.272 -0.2230  0.4460 -0.5706
11564TIP3    H156107   2.078   5.544  10.208  0.8935  1.8766 -2.4765
11564TIP3    H256108   2.012   5.663  10.277 -0.8003 -0.5827  0.2819
11565TIP3   OH256109   3.358   6.670  17.016  0.1004  0.2389 -0.1675
11565TIP3    H156110   3.389   6.676  17.106 -1.0741 -0.7683  0.3202
11565TIP3    H256111   3.356   6.576  16.997 -1.0571  0.3659 -0.7274
11566TIP3   OH256112   0.228   2.139  13.370 -0.0651  0.1003  0.4103
11566TIP3    H156113   0.275   2.196  13.430 -0.3284 -0.0103  0.7268
11566TIP3    H256114   0.228   2.053  13.414  0.2248 -0.1117 -0.0040
11567TIP3   OH256115   1.628   3.859   0.562 -0.3198 -0.5903  0.6302
11567TIP3    H156116   1.689   3.820   0.498  0.0462  0.6358  0.2144
11567TIP3    H256117   1.650   3.952   0.561 -1.3862 -0.3337  1.3952
11568TIP3   OH256118   4.182   2.290  11.538  0.0281 -0.1961  0.0896
11568TIP3    H156119   4.088   2.309  11.543  0.0974  0.3378 -0.5269
11568TIP3    H256120   4.221   2.371  11.507  0.6927 -0.4352  0.2902
11569TIP3   OH256121   0.965   3.492   0.619  0.3889 -0.1925 -0.4342
11569TIP3    H156122   0.936   3.574   0.659  0.2195 -0.8127  0.7329
11569TIP3    H256123   0.928   3.424   0.675  0.5935 -1.0637 -1.3582
11570TIP3   OH256124   0.663   6.444   5.417 -0.1961 -0.5274  0.3838
11570TIP3    H156125   0.632   6.375   5.476  1.0105  0.0490  1.7244
11570TIP3    H256126   0.745   6.410   5.383  0.3855  0.2214  1.0240
11571TIP3   OH256127   0.085   6.299  15.694 -0.0574  0.4711 -0.0919
11571TIP3    H156128   0.073   6.344  15.777 -1.6162  0.3752 -0.2602
11571TIP3    H256129   0.112   6.367  15.633 -0.6870  0.8587  0.0644
11572TIP3   OH256130   5.125   2.244  11.196 -0.4975  0.3227 -0.0664
11572TIP3    H156131   5.060   2.204  11.138 -0.5249  0.9063 -0.4460
11572TIP3    H256132   5.083   2.323  11.229 -0.2633  0.3011  0.2897
11573TIP3   OH256133   1.090   2.959  15.093 -0.1899 -0.3816 -0.0710
11573TIP3    H156134   1.065   3.003  15.175 -0.8339 -0.6882 -0.1053
11573TIP3    H256135   1.116   3.031  15.035 -0.5295 -0.0971  0.1238
11574TIP3   OH256136   3.749   0.860   3.906  0.7253 -0.0037 -0.0709
11574TIP3    H156137   3.701   0.807   3.842  1.6457 -1.1125  0.1435
11574TIP3    H256138   3.719   0.829   3.991  2.1862 -1.0598  0.0707
11575TIP3   OH256139   5.316   1.140   0.406  0.4983 -0.1931  0.0609
11575TIP3    H156140   5.285   1.164   0.318  1.0368  0.9413  0.1698
11575TIP3    H256141   5.241   1.097   0.447  0.6570 -1.9265 -1.4114
11576TIP3   OH256142   1.871   5.603   2.405  0.4916  0.2206 -0.1757
11576TIP3    H156143   1.966   5.607   2.396  0.8838  0.3437  3.1815
11576TIP3    H256144   1.857   5.539   2.475 -1.7987  1.3310  0.4286
11577TIP3   OH256145   3.252   5.883  10.797 -0.0547  0.4483  0.0926
11577TIP3    H156146   3.177   5.848  10.749 -1.2964  2.5163  0.4621
11577TIP3    H256147   3.320   5.896  10.731 -0.3160 -0.6034 -0.3907
11578TIP3   OH256148   0.301   4.697  10.775 -0.2338 -0.1784 -0.0721
11578TIP3    H156149   0.227   4.720  10.719 -0.7501 -1.9486 -0.1404
11578TIP3    H256150   0.267   4.629  10.833  0.8091  0.3485  1.1736
11579TIP3   OH256151   2.086   1.558   3.737 -0.7836 -0.3504  0.1302
11579TIP3    H156152   2.155   1.493   3.747 -0.3848  0.0029 -0.3587
11579TIP3    H256153   2.076   1.570   3.643 -1.1160  0.0186  0.2068
11580TIP3   OH256154   5.883   3.946   3.706 -0.3878  0.2090  0.0726
11580TIP3    H156155   5.906   3.950   3.799 -0.7726  2.1307  0.1120
11580TIP3    H256156   5.788   3.956   3.704 -0.7196 -2.7173 -0.3801
11581TIP3   OH256157   5.651   6.099   2.146  0.0292  0.0084  0.4217
11581TIP3    H156158   5.575   6.053   2.183 -0.6796  0.9593  0.1468
11581TIP3    H256159   5.635   6.101   2.052  0.9450 -0.7738  0.2403
11582TIP3   OH256160   2.444   0.107  13.401 -0.1806  0.3475 -0.4240
11582TIP3    H156161   2.408   0.154  13.477 -1.5971 -0.8894 -0.3028
11582TIP3    H256162   2.507   0.046  13.440  0.1801  0.7518 -0.3793
11583TIP3   OH256163   1.559   5.619   3.371  0.1718 -0.4440 -0.1361
11583TIP3    H156164   1.478   5.605   3.323  0.6956 -0.5600 -1.0010
11583TIP3    H256165   1.563   5.714   3.384 -0.5766 -0.5320  0.7557
11584TIP3   OH256166   1.255   4.953  15.432  0.2688  0.5493  0.2822
11584TIP3    H156167   1.202   4.874  15.419  1.6071 -0.3178  0.0816
11584TIP3    H256168   1.345   4.924  15.422  0.6942  2.5299 -2.1385
11585TIP3   OH256169   4.599   4.778   2.289  0.3829 -0.2083 -0.4934
11585TIP3    H156170   4.584   4.845   2.355  1.5906 -0.2836 -0.1278
11585TIP3    H256171   4.688   4.795   2.257  0.1799 -0.7781 -1.3959
11586TIP3   OH256172   4.861   6.256   3.011 -0.0241 -0.2396  0.0365
11586TIP3    H156173   4.923   6.258   3.084 -1.7218 -0.7126  1.5376
11586TIP3    H256174   4.872   6.168   2.973  0.3130 -0.2721  0.2013
11587TIP3   OH256175   2.659   3.548   4.753 -0.2636 -0.4743 -0.0024
11587TIP3    H156176   2.684   3.456   4.740 -1.5242 -1.0573  1.4792
11587TIP3    H256177   2.594   3.565   4.686 -0.6521 -0.9363  0.2500
11588TIP3   OH256178   1.454   5.614  12.183  0.2062 -0.1333 -0.1518
11588TIP3    H156179   1.390   5.546  12.207  0.5915 -0.8339 -1.0941
11588TIP3    H256180   1.528   5.599  12.241  0.4199 -0.7307 -0.5664
11589TIP3   OH256181   0.886   1.277   3.840  0.7692  0.5381  0.2317
11589TIP3    H156182   0.959   1.216   3.825  0.7869  0.2175  1.5162
11589TIP3    H256183   0.908   1.320   3.923  0.1652  1.4382 -0.0720
11590TIP3   OH256184   2.654   2.750  11.428  0.2382  0.9433  0.5188
11590TIP3    H156185   2.689   2.764  11.340 -1.6399  1.1583 -0.2155
11590TIP3    H256186   2.570   2.797  11.429 -2.1104 -3.0282  0.8122
11591TIP3   OH256187   0.800   3.126  15.190  0.2068  0.9563  0.2860
11591TIP3    H156188   0.807   3.110  15.284  1.2941 -0.6357 -0.0486
11591TIP3    H256189   0.843   3.051  15.150 -0.3530  1.5690 -1.4924
11592TIP3   OH256190   6.079   1.974   2.989  0.6377  0.0076 -0.4553
11592TIP3    H156191   6.020   2.029   3.039  0.0587 -0.1650 -0.9461
11592TIP3    H256192   6.119   1.916   3.054 -0.2101 -0.3040 -0.2161
11593TIP3   OH256193   2.370   5.184   2.015 -0.7139 -0.4435  0.2277
11593TIP3    H156194   2.376   5.241   1.938 -1.6401 -0.9773 -0.2575
11593TIP3    H256195   2.460   5.174   2.045 -0.2561 -0.8389 -1.2464
11594TIP3   OH256196   1.698   2.070  16.791 -0.5517  0.2718  0.1092
11594TIP3    H156197   1.751   2.126  16.734  0.3469 -1.1277 -0.4657
11594TIP3    H256198   1.643   2.130  16.840 -0.8959  1.5378 -1.8005
11595TIP3   OH256199   4.123   6.488   4.396  0.6781 -0.2581  0.1125
11595TIP3    H156200   4.118   6.401   4.357 -0.5679 -1.0271  1.9314
11595TIP3    H256201   4.032   6.517   4.403  1.0492  0.9438  0.0650
11596TIP3   OH256202   4.076   3.412   4.241  0.5454 -0.4920  0.0271
11596TIP3    H156203   3.987   3.388   4.216 -0.9719  3.0790  1.5980
11596TIP3    H256204   4.121   3.425   4.158 -0.5302 -1.8256 -0.7890
11597TIP3   OH256205   0.115   0.138  16.633  0.2092  0.1255  0.6688
11597TIP3    H156206   0.144   0.203  16.569  0.1705  0.2473  0.7737
11597TIP3    H256207   0.163   0.058  16.610  1.5974  0.6646  1.6500
11598TIP3   OH256208   0.398   0.387  12.107  0.3634  0.3264 -0.4286
11598TIP3    H156209   0.359   0.468  12.076 -0.0810 -0.1973 -1.2704
11598TIP3    H256210   0.333   0.319  12.085  0.8536 -0.2914 -0.0012
11599TIP3   OH256211   0.325   0.510  14.801 -0.2172 -0.5412 -0.3413
11599TIP3    H156212   0.347   0.441  14.739 -0.9051 -0.8686 -0.2304
11599TIP3    H256213   0.388   0.579  14.783  2.2220 -2.2526  1.3681
11600TIP3   OH256214   2.038   6.445  16.161 -0.2718 -0.3069 -0.0510
11600TIP3    H156215   2.101   6.407  16.223 -1.1634 -1.4051  0.1949
11600TIP3    H256216   2.042   6.540  16.179  1.7970 -0.2780 -0.5134
11601TIP3   OH256217   3.529   6.401   1.331  0.3256 -0.3142 -0.1367
11601TIP3    H156218   3.500   6.365   1.415 -0.7126  0.3190 -0.2240
11601TIP3    H256219   3.452   6.444   1.294  1.1614  0.7481 -0.7031
11602TIP3   OH256220   4.147   6.339  14.229 -0.0104  0.0865 -0.1506
11602TIP3    H156221   4.067   6.356  14.179  2.0783  1.7733 -3.0076
11602TIP3    H256222   4.186   6.263  14.185  0.8039  0.3022  0.2021
11603TIP3   OH256223   0.551   4.443  11.926 -0.3099 -0.0192  0.3382
11603TIP3    H156224   0.514   4.430  12.013 -0.7238 -0.9980  0.0324
11603TIP3    H256225   0.486   4.495  11.879 -1.1831 -1.4909 -0.1079
11604TIP3   OH256226   3.227   1.275   2.437 -0.4108 -0.2643  0.3720
11604TIP3    H156227   3.224   1.346   2.501  2.0649  0.4701 -0.2709
11604TIP3    H256228   3.151   1.291   2.380 -0.4667  1.2675  0.8527
11605TIP3   OH256229   0.027   4.001   4.770 -0.4110  0.5181 -0.5059
11605TIP3    H156230   0.102   3.990   4.712  0.0307  1.6946 -0.1799
11605TIP3    H256231  -0.010   4.086   4.745 -0.7739  0.5995  0.2929
11606TIP3   OH256232   0.042   5.780  13.504 -0.3758  0.1098 -0.1868
11606TIP3    H156233   0.113   5.776  13.567  1.4580  0.1751 -2.2018
11606TIP3    H256234   0.050   5.698  13.454 -0.6175  0.9047 -1.5615
11607TIP3   OH256235   5.325   5.544   5.102  0.3095  0.0586  0.0440
11607TIP3    H156236   5.264   5.597   5.153  0.6075  0.5882 -0.1412
11607TIP3    H256237   5.406   5.596   5.101  0.7384 -0.6091  0.2385
11608TIP3   OH256238   4.209   6.344  16.534  0.1899  0.1103  0.2669
11608TIP3    H156239   4.131   6.342  16.479  0.5368 -1.1812 -0.1838
11608TIP3    H256240   4.257   6.422  16.505 -2.0905  2.3395  2.2159
11609TIP3   OH256241   6.307   2.715   2.618  0.2635  0.5398  0.1094
11609TIP3    H156242   6.268   2.728   2.705 -0.1386 -1.4430  0.2378
11609TIP3    H256243   6.236   2.732   2.557  0.4538  1.5846  0.1628
11610TIP3   OH256244   0.944   2.676  13.514 -0.1305  0.5484  0.3004
11610TIP3    H156245   0.865   2.660  13.462  0.6326 -0.3565 -0.6044
11610TIP3    H256246   0.962   2.592  13.556  0.0744  0.8891  0.8890
11611TIP3   OH256247   1.610   5.609  10.899  0.3049 -0.0170 -0.4181
11611TIP3    H156248   1.531   5.562  10.873  0.4141  0.4674 -1.6680
11611TIP3    H256249   1.638   5.567  10.980 -0.6350 -0.8939 -0.5474
11612TIP3   OH256250   1.368   3.270   4.424 -0.1525  0.4673  0.4133
11612TIP3    H156251   1.458   3.246   4.405 -0.2699  0.1892  0.2037
11612TIP3    H256252   1.371   3.305   4.513  0.0269 -0.3266  0.7262
11613TIP3   OH256253   4.329   3.125  14.415  0.0158  0.6244  0.3821
11613TIP3    H156254   4.338   3.032  14.435 -1.9624 -0.0832 -1.7999
11613TIP3    H256255   4.306   3.166  14.499  1.2763 -0.7650  1.4310
11614TIP3   OH256256   6.225   1.370   3.520 -0.3677  0.0155  0.2735
11614TIP3    H156257   6.302   1.326   3.558 -0.1567  1.0332  1.0367
11614TIP3    H256258   6.215   1.330   3.433  0.2318 -1.0532  0.6912
11615TIP3   OH256259   1.466   6.188   3.280  0.6965 -0.1130  0.1833
11615TIP3    H156260   1.548   6.193   3.330 -0.1244 -0.1112  1.5582
11615TIP3    H256261   1.400   6.165   3.345 -0.6025  1.0495 -0.6906
11616TIP3   OH256262   0.695   2.736  11.973 -0.0949  0.3272  0.7282
11616TIP3    H156263   0.709   2.830  11.981  0.6804  0.3017 -0.1997
11616TIP3    H256264   0.737   2.698  12.050 -2.0064  0.8687  2.0675
11617TIP3   OH256265   1.752   2.069   0.983  0.2642 -0.4305 -0.0127
11617TIP3    H156266   1.782   2.003   0.920 -1.9126 -0.2144 -1.3227
11617TIP3    H256267   1.770   2.153   0.940 -2.2315 -0.2937 -0.8879
11618TIP3   OH256268   6.298   0.526  13.413  0.1288  0.2228 -0.3513
11618TIP3    H156269   6.248   0.454  13.374 -0.5351  0.6968 -0.3724
11618TIP3    H256270   6.366   0.546  13.348  1.0037 -1.1108  0.1302
11619TIP3   OH256271   4.563   0.846   4.474 -0.0244 -0.2007  0.0904
11619TIP3    H156272   4.636   0.796   4.437  2.3724  0.5597  3.5414
11619TIP3    H256273   4.561   0.821   4.567 -0.7967  3.6305  1.1953
11620TIP3   OH256274   2.096   5.200   4.371  0.8108 -0.3391 -0.1157
11620TIP3    H156275   2.017   5.165   4.412  0.9664 -0.8207 -0.2294
11620TIP3    H256276   2.146   5.236   4.445 -0.2440  1.4131 -0.2299
11621TIP3   OH256277   4.554   1.214  11.478 -0.0095 -0.1716  0.3029
11621TIP3    H156278   4.463   1.242  11.486 -0.4449 -0.5089 -2.7130
11621TIP3    H256279   4.579   1.242  11.390  2.5428 -0.8179  0.8026
11622TIP3   OH256280   4.609   6.426  11.061  0.0508 -0.2353 -0.6828
11622TIP3    H156281   4.630   6.459  10.974 -0.3194 -0.0773 -0.7128
11622TIP3    H256282   4.513   6.428  11.065 -0.0028 -1.9286 -0.9261
11623TIP3   OH256283   1.585   6.555  10.485 -0.1953 -0.5272 -0.0774
11623TIP3    H156284   1.676   6.583  10.473 -0.0551 -1.0389 -0.1958
11623TIP3    H256285   1.540   6.583  10.405 -0.2232  0.0525  0.1388
11624TIP3   OH256286   0.513   5.169   4.226 -0.2860 -0.2905  0.1760
11624TIP3    H156287   0.495   5.092   4.281 -0.2812 -0.8363 -0.5867
11624TIP3    H256288   0.484   5.243   4.280 -2.7292 -0.9917 -0.1071
11625TIP3   OH256289   1.855   1.331  13.455 -0.2945  0.6621 -0.1303
11625TIP3    H156290   1.838   1.327  13.549  1.7967 -1.1309  0.2255
11625TIP3    H256291   1.828   1.419  13.429  0.6456  1.7756  2.4743
11626TIP3   OH256292   4.955   0.369   5.460 -0.1316  0.1092 -0.2966
11626TIP3    H156293   4.921   0.351   5.548  0.7711  1.7088  0.4129
11626TIP3    H256294   4.893   0.432   5.424  0.3846  0.6953 -0.1708
11627TIP3   OH256295   0.993   5.007  14.429 -0.3137 -0.4336  0.0875
11627TIP3    H156296   0.946   4.958  14.360  0.6412 -1.1427 -0.0669
11627TIP3    H256297   0.952   4.978  14.510  0.3269 -1.5914  0.0037
11628TIP3   OH256298   1.807   2.584   0.590  0.0212 -0.1151 -0.1375
11628TIP3    H156299   1.895   2.622   0.584  0.0980 -0.2279  0.3222
11628TIP3    H256300   1.818   2.493   0.563  0.2461 -0.4371  1.0510
11629TIP3   OH256301   3.930   0.945  16.129  0.3000 -0.5337  0.0733
11629TIP3    H156302   3.889   0.858  16.126  1.9700 -1.3963  1.3133
11629TIP3    H256303   4.005   0.933  16.187  1.8174  1.2214 -1.5142
11630TIP3   OH256304   5.239   4.642   1.218 -0.4417  0.0622  0.1160
11630TIP3    H156305   5.211   4.554   1.246  0.8466 -0.6945 -0.9398
11630TIP3    H256306   5.312   4.663   1.275 -1.4919  0.9499  1.1455
11631TIP3   OH256307   0.601   4.531  16.589 -0.3296 -0.7720 -0.1872
11631TIP3    H156308   0.535   4.515  16.521  0.2801 -1.7764 -0.5675
11631TIP3    H256309   0.684   4.503  16.548  0.5259  1.6559 -0.1690
11632TIP3   OH256310   5.836   5.958  12.568 -0.0749 -0.1411  0.1884
11632TIP3    H156311   5.794   5.951  12.653 -0.0462  1.1506  0.3205
11632TIP3    H256312   5.911   5.899  12.573  0.5372  0.7190  1.4412
11633TIP3   OH256313   3.633   0.570  11.925 -0.7266  0.8642  0.5854
11633TIP3    H156314   3.701   0.616  11.974  1.5436 -1.0447 -0.7144
11633TIP3    H256315   3.620   0.623  11.846  0.3842  0.3999  0.0885
11634TIP3   OH256316   1.134   3.505   2.610  0.2821 -0.2568 -0.1537
11634TIP3    H156317   1.179   3.567   2.551 -0.4225 -0.0985 -0.5426
11634TIP3    H256318   1.201   3.478   2.673  0.2502  2.0029  0.8987
11635TIP3   OH256319   3.310   5.277   2.804 -0.1983  0.8820 -0.1743
11635TIP3    H156320   3.286   5.185   2.795  2.3499 -0.3013  3.9688
11635TIP3    H256321   3.372   5.279   2.877  2.8200  5.3542 -2.6163
11636TIP3   OH256322   4.980   4.096   5.879 -0.2026 -0.5778 -0.0210
11636TIP3    H156323   4.899   4.115   5.926 -0.7941 -2.4790 -0.2215
11636TIP3    H256324   5.032   4.044   5.940  0.5544  0.0065 -0.1632
11637TIP3   OH256325   3.970   4.912  11.222  0.5471 -0.5791 -0.5859
11637TIP3    H156326   4.042   4.852  11.237 -2.7114 -4.8987 -1.3376
11637TIP3    H256327   3.953   4.952  11.308  1.2571 -2.5649  0.5031
11638TIP3   OH256328   3.334   3.571  14.168 -0.2779 -0.1325  0.3491
11638TIP3    H156329   3.350   3.663  14.145  0.4068  0.0769  1.6432
11638TIP3    H256330   3.409   3.546  14.221 -0.9818 -1.1357  0.8938
11639TIP3   OH256331   0.606   0.459   4.233 -0.5163  0.2686 -0.0941
11639TIP3    H156332   0.674   0.428   4.292  0.1452 -0.7716 -1.3840
11639TIP3    H256333   0.557   0.524   4.284 -0.4326 -1.1514  1.8204
11640TIP3   OH256334   1.153   4.175  16.487 -0.2449 -0.4303  0.5733
11640TIP3    H156335   1.138   4.131  16.570 -0.5372 -0.0569  0.7189
11640TIP3    H256336   1.131   4.267  16.504 -0.4711 -0.3853  0.0404
11641TIP3   OH256337   5.842   0.755   0.450  0.6982  0.1867  0.2372
11641TIP3    H156338   5.762   0.739   0.399  0.6743 -0.6959  0.5426
11641TIP3    H256339   5.836   0.847   0.475  0.0202  0.2587 -0.1700
11642TIP3   OH256340   4.878   0.302  11.930 -0.6841  0.1103 -0.1739
11642TIP3    H156341   4.862   0.259  11.846  2.9700  0.7129 -1.2716
11642TIP3    H256342   4.846   0.391  11.917  0.4901  0.4010 -1.2039
11643TIP3   OH256343   0.528   3.107   3.285 -0.0247 -0.3425  0.2284
11643TIP3    H156344   0.523   3.012   3.291  1.5807 -0.4246  0.6188
11643TIP3    H256345   0.548   3.124   3.193  2.9306 -0.5919  0.7647
11644TIP3   OH256346   2.844   5.953   3.833  0.3418 -0.6689  0.2155
11644TIP3    H156347   2.788   5.933   3.908 -0.2493 -0.6174 -0.2033
11644TIP3    H256348   2.916   6.005   3.868  0.5738 -1.4493  0.9048
11645TIP3   OH256349   0.806   6.337  16.412  0.0760 -0.4541 -0.9807
11645TIP3    H156350   0.865   6.271  16.448 -0.2582 -0.5326 -0.5778
11645TIP3    H256351   0.726   6.290  16.391 -0.8547  0.1448  1.0582
11646TIP3   OH256352   2.476   0.876  15.964 -0.6126  0.1335  0.1650
11646TIP3    H156353   2.465   0.910  15.875 -1.2787  2.8852  1.2695
11646TIP3    H256354   2.509   0.786  15.951 -1.9400  0.0269 -2.8492
11647TIP3   OH256355   5.680   0.717  14.963 -0.3907 -0.2744  0.1338
11647TIP3    H156356   5.768   0.752  14.950 -0.3161  0.1492  1.6122
11647TIP3    H256357   5.668   0.654  14.893  1.0128 -0.1742 -0.2041
11648TIP3   OH256358   2.114   3.409  14.917  0.0280 -0.5362  0.5147
11648TIP3    H156359   2.019   3.419  14.924  0.1845  0.8025  0.9305
11648TIP3    H256360   2.142   3.387  15.006  0.2429  0.4615  0.7099
11649TIP3   OH256361   6.332   5.499  17.024 -0.1969 -0.2265 -0.4864
11649TIP3    H156362   6.296   5.512  16.936 -0.0339  0.8829 -0.3920
11649TIP3    H256363   6.426   5.489  17.010  0.1844  2.5249 -0.2343
11650TIP3   OH256364   5.253   0.578   4.952 -0.7359 -0.1122  0.1197
11650TIP3    H156365   5.250   0.603   4.860  0.3666 -1.8163 -0.3909
11650TIP3    H256366   5.186   0.633   4.994  1.0708  3.1326 -1.0727
11651TIP3   OH256367   2.799   0.081  11.090 -0.3321  0.0840 -0.0307
11651TIP3    H156368   2.716   0.085  11.136 -0.6204 -1.4486 -0.3743
11651TIP3    H256369   2.777   0.041  11.006  0.8682 -1.0442  0.1837
11652TIP3   OH256370   1.097   2.570  16.056 -0.4273 -0.8332 -0.3395
11652TIP3    H156371   1.023   2.621  16.088 -0.9956 -1.2530 -0.9769
11652TIP3    H256372   1.058   2.491  16.019  0.4542 -1.7459  0.6599
11653TIP3   OH256373   1.434   3.109  15.474  0.0626 -0.0683  0.2389
11653TIP3    H156374   1.373   3.181  15.491  0.7911  0.4202  0.7766
11653TIP3    H256375   1.393   3.032  15.515  0.6723  0.6226  2.1913
11654TIP3   OH256376   4.501   5.611   2.829 -0.6413  0.0102 -0.2380
11654TIP3    H156377   4.584   5.589   2.870 -0.9769  0.2915  0.6171
11654TIP3    H256378   4.479   5.697   2.865 -1.2064  0.0191 -0.5978
11655TIP3   OH256379   1.249   3.943   6.061 -1.0510  0.3075 -0.0635
11655TIP3    H156380   1.292   3.869   6.104 -2.3147 -0.1721  0.3705
11655TIP3    H256381   1.196   3.984   6.129 -3.3851 -0.7075 -1.2076
11656TIP3   OH256382   1.388   4.650  12.334  0.3409  0.5544  0.1720
11656TIP3    H156383   1.438   4.578  12.295  0.8912  0.1599  1.5562
11656TIP3    H256384   1.298   4.620  12.335 -0.1986  1.7888 -3.5485
11657TIP3   OH256385   2.481   4.794   1.910  0.5531 -0.2192 -0.0815
11657TIP3    H156386   2.436   4.744   1.978 -0.8383 -0.1283 -0.9396
11657TIP3    H256387   2.562   4.824   1.953  0.8464 -2.1889  0.8003
11658TIP3   OH256388   3.201   4.216   2.384  0.2724  0.2685  0.6092
11658TIP3    H156389   3.160   4.260   2.310  0.6647  3.5769  2.2912
11658TIP3    H256390   3.293   4.241   2.379  0.9053 -1.9776  0.5123
11659TIP3   OH256391   3.622   2.860   1.028 -0.2427  0.3206  0.0373
11659TIP3    H156392   3.706   2.853   1.074 -1.2110 -0.0359  1.8232
11659TIP3    H256393   3.627   2.943   0.982  0.5515  0.9715  1.2670
11660TIP3   OH256394   4.038   0.297  13.979  0.4015  0.1224  0.4520
11660TIP3    H156395   4.117   0.251  13.953 -1.1884 -2.7000  0.4111
11660TIP3    H256396   4.055   0.328  14.068  1.9675  0.6312 -0.0127
11661TIP3   OH256397   3.506   0.517   1.416  0.0353  0.1608 -0.3813
11661TIP3    H156398   3.547   0.579   1.476  0.4892  0.4227 -0.9571
11661TIP3    H256399   3.533   0.546   1.329 -0.4266 -0.3542 -0.7028
11662TIP3   OH256400   3.236   5.243   5.766  0.0753 -0.2326 -0.6500
11662TIP3    H156401   3.152   5.288   5.777 -0.4117 -0.5753 -2.7748
11662TIP3    H256402   3.300   5.303   5.803 -1.2269 -0.6158  2.4116
11663TIP3   OH256403   4.792   4.182  13.560 -0.4372  0.3476 -0.9541
11663TIP3    H156404   4.763   4.226  13.641  0.6368  0.4451 -0.6105
11663TIP3    H256405   4.880   4.151  13.581 -0.7300 -0.9246 -1.6032
11664TIP3   OH256406   0.465   0.594   2.129  0.6737  0.0433  0.4225
11664TIP3    H156407   0.504   0.640   2.055  0.5242 -0.7696 -0.1710
11664TIP3    H256408   0.400   0.655   2.164  2.4846  1.4331  1.4559
11665TIP3   OH256409   5.044   0.058   3.367 -0.0278 -0.4356 -0.5862
11665TIP3    H156410   5.094   0.044   3.448 -0.4492  2.1125  0.1463
11665TIP3    H256411   5.095   0.012   3.300  2.3714  0.6080  0.4438
11666TIP3   OH256412   1.036   0.371   3.010  0.0395 -0.0604  0.2746
11666TIP3    H156413   1.018   0.451   2.961  0.7591  1.0866  1.8721
11666TIP3    H256414   1.106   0.328   2.960 -1.8199 -0.8208 -1.7957
11667TIP3   OH256415   2.506   6.316   3.937 -0.0439  0.0762 -0.0402
11667TIP3    H156416   2.586   6.310   3.989 -0.5645 -2.2369  0.5509
11667TIP3    H256417   2.507   6.238   3.881 -1.3164  0.6181 -0.8574
11668TIP3   OH256418   4.110   1.215   1.374 -0.0752 -0.7181  0.5019
11668TIP3    H156419   4.166   1.171   1.437  0.1281 -0.5582  0.4338
11668TIP3    H256420   4.021   1.190   1.399  0.0570 -1.5184  0.2061
11669TIP3   OH256421   4.197   3.630   0.772  0.5349  0.0866  0.1843
11669TIP3    H156422   4.146   3.556   0.739  0.9320 -0.4188  0.7090
11669TIP3    H256423   4.176   3.701   0.711  0.2199 -0.4709 -0.3734
11670TIP3   OH256424   0.866   4.150  15.201 -0.7080 -0.1687 -0.2387
11670TIP3    H156425   0.816   4.154  15.283 -1.0485 -1.6772 -0.3531
11670TIP3    H256426   0.896   4.239  15.187 -1.2811  0.2596  1.1444
11671TIP3   OH256427   2.411   1.769   2.174  0.5021  0.0604 -0.5231
11671TIP3    H156428   2.412   1.733   2.263 -1.9976 -0.3197 -0.6316
11671TIP3    H256429   2.453   1.854   2.183  0.5442 -0.0958  0.9620
11672TIP3   OH256430   3.896   3.594  12.975  0.7055  0.4771 -0.0941
11672TIP3    H156431   3.878   3.567  12.885  1.1813 -0.1873  0.0079
11672TIP3    H256432   3.824   3.558  13.026  0.9379  0.0432 -0.0701
11673TIP3   OH256433   3.232   2.285   6.599 -0.2703 -0.4996  0.3101
11673TIP3    H156434   3.169   2.341   6.645 -0.8503  0.3599 -1.5074
11673TIP3    H256435   3.284   2.246   6.670  0.0713  2.2224  1.6655
11674TIP3   OH256436   3.356   2.010   5.276  0.1738 -0.7463 -0.2364
11674TIP3    H156437   3.288   1.945   5.258 -0.9619  0.2237  0.4724
11674TIP3    H256438   3.311   2.077   5.327  1.5313  0.2027 -0.2871
11675TIP3   OH256439   1.721   6.518   3.389 -0.2306 -0.8010 -0.2211
11675TIP3    H156440   1.708   6.594   3.332  0.6749 -1.4986 -1.3593
11675TIP3    H256441   1.767   6.454   3.335  0.1550 -1.6853  1.1212
11676TIP3   OH256442   0.409   2.890   0.927  0.2727 -0.6646  0.4948
11676TIP3    H156443   0.383   2.805   0.962  1.8905 -1.4058 -0.0336
11676TIP3    H256444   0.497   2.905   0.962  1.1295 -0.5195 -1.6140
11677TIP3   OH256445   4.167   0.141  13.009 -0.2357 -0.1924 -0.4825
11677TIP3    H156446   4.133   0.228  12.988  1.1533 -0.2400 -3.1608
11677TIP3    H256447   4.223   0.156  13.086 -1.4832  0.9372  0.2207
11678TIP3   OH256448   2.468   4.521  15.310 -0.3810  0.2786  0.4409
11678TIP3    H156449   2.376   4.536  15.288 -1.2674 -1.2365  2.9666
11678TIP3    H256450   2.507   4.609  15.310 -2.0301  1.0296  0.2762
11679TIP3   OH256451   6.385   6.698  16.848 -0.6569  0.5708 -0.1091
11679TIP3    H156452   6.310   6.655  16.809  0.5833 -1.4787 -0.2989
11679TIP3    H256453   6.406   6.645  16.925  1.5092  0.2141 -0.9091
11680TIP3   OH256454   3.164   3.927   0.891 -0.4252  0.2563  1.0126
11680TIP3    H156455   3.140   3.944   0.982 -2.0124  0.8433  0.4999
11680TIP3    H256456   3.236   3.863   0.896 -0.3948  0.4169  2.6700
11681TIP3   OH256457   6.647   6.786   5.336 -0.3953 -0.3377  0.5708
11681TIP3    H156458   6.682   6.823   5.417  3.8523  1.7604 -1.9999
11681TIP3    H256459   6.654   6.692   5.347  1.8848 -0.0423  1.9861
11682TIP3   OH256460   2.176   4.266   2.217 -0.3268  0.3094 -0.4173
11682TIP3    H156461   2.121   4.197   2.254  1.5491  0.5296  2.9247
11682TIP3    H256462   2.128   4.346   2.234  0.5057  0.4052  1.5789
11683TIP3   OH256463   6.426   1.128  16.792 -0.6014 -0.3051 -0.1587
11683TIP3    H156464   6.492   1.197  16.803 -0.2640 -0.4474 -1.3016
11683TIP3    H256465   6.348   1.175  16.762 -0.6227 -0.3147 -0.1206
11684TIP3   OH256466   5.361   2.420   3.743 -0.2359  0.7448  0.6526
11684TIP3    H156467   5.429   2.437   3.678 -0.7433  1.1148  0.2233
11684TIP3    H256468   5.278   2.431   3.696 -0.5946 -0.2697  1.0316
11685TIP3   OH256469   1.312   5.808   3.534 -0.6216 -0.5013  0.4676
11685TIP3    H156470   1.267   5.828   3.617 -2.0317 -1.0906 -0.1485
11685TIP3    H256471   1.316   5.713   3.531 -0.6050 -0.4821 -0.1668
11686TIP3   OH256472   1.469   4.416  15.543 -0.3840 -0.1087  0.7326
11686TIP3    H156473   1.508   4.481  15.601 -1.7266  0.8058  0.6148
11686TIP3    H256474   1.455   4.339  15.598  0.2631  0.0464  1.1153
11687TIP3   OH256475   6.506   3.699   3.929 -0.4973  0.5084 -0.1020
11687TIP3    H156476   6.459   3.618   3.908 -1.2951  0.7771  0.6119
11687TIP3    H256477   6.598   3.674   3.929 -0.7509 -0.4403  0.2896
11688TIP3   OH256478   4.036   3.175   5.512  0.1839 -0.2499  0.0109
11688TIP3    H156479   4.122   3.190   5.472 -1.1365 -0.6140 -3.0706
11688TIP3    H256480   3.988   3.257   5.497 -0.5147 -0.5867  0.3912
11689TIP3   OH256481   1.198   1.032   1.498  0.9566 -0.4301 -0.7003
11689TIP3    H156482   1.105   1.048   1.484  0.7014 -0.7719  0.4935
11689TIP3    H256483   1.237   1.036   1.411 -0.3703 -1.5323 -1.3588
11690TIP3   OH256484   1.455   2.506   2.702 -0.5921 -0.1005 -0.0460
11690TIP3    H156485   1.500   2.425   2.682  0.9124  0.4869  0.8730
11690TIP3    H256486   1.377   2.478   2.750  0.5851 -0.9500  1.4234
11691TIP3   OH256487   5.812   2.408   5.131 -0.2568  0.0917 -0.0765
11691TIP3    H156488   5.816   2.484   5.073  1.8284  0.7545  0.9071
11691TIP3    H256489   5.886   2.354   5.105  1.5646  1.0741  2.8718
11692TIP3   OH256490   2.229   6.483  17.027  0.3609  0.2782 -0.3933
11692TIP3    H156491   2.184   6.553  16.981  1.7675  2.3537  1.2660
11692TIP3    H256492   2.301   6.458  16.969  0.7467  1.2687 -0.3499
11693TIP3   OH256493   4.497   5.137  13.565  0.2700  0.8254  0.8738
11693TIP3    H156494   4.522   5.099  13.481 -0.6770  1.3117  0.3647
11693TIP3    H256495   4.578   5.138  13.616  0.6236 -0.4287  0.3387
11694TIP3   OH256496   1.198   6.031  15.489  0.2822 -0.3419 -0.1410
11694TIP3    H156497   1.161   6.078  15.414  0.3523 -0.4439 -0.2394
11694TIP3    H256498   1.232   5.950  15.452 -1.5321 -1.3259  0.3385
11695TIP3   OH256499   2.535   3.852  16.489 -0.5749 -0.1062  0.0881
11695TIP3    H156500   2.471   3.860  16.559 -1.2242 -0.7836 -0.4282
11695TIP3    H256501   2.487   3.813  16.416  0.5271 -1.0215 -0.1575
11696TIP3   OH256502   0.453   4.441   2.595 -0.3884 -0.1194 -0.4954
11696TIP3    H156503   0.479   4.413   2.682  1.1297  0.1416 -0.8439
11696TIP3    H256504   0.446   4.537   2.602 -0.8166 -0.1457 -0.5262
11697TIP3   OH256505   3.681   3.134  15.309  0.1882  0.4460  0.5270
11697TIP3    H156506   3.607   3.167  15.361  0.1159 -0.5254  1.0546
11697TIP3    H256507   3.741   3.097  15.374 -1.2292 -3.4264 -0.1941
11698TIP3   OH256508   6.644   6.155   3.815 -0.2603 -0.1731  0.1780
11698TIP3    H156509   6.576   6.185   3.755  1.2583 -0.0363 -1.5456
11698TIP3    H256510   6.693   6.235   3.837 -0.6941 -0.2548  1.4641
11699TIP3   OH256511   0.012   4.845   5.207 -0.2732 -0.2106 -0.1377
11699TIP3    H156512  -0.050   4.918   5.204 -2.0427 -1.7113 -0.4495
11699TIP3    H256513   0.010   4.815   5.298  1.9121  1.3293  0.4639
11700TIP3   OH256514   2.654   0.394  14.545 -0.1942 -0.0212  0.1015
11700TIP3    H156515   2.729   0.368  14.599 -1.0935 -2.8117  0.1190
11700TIP3    H256516   2.687   0.465  14.490  2.5888 -1.4659 -0.1779
11701TIP3   OH256517   6.018   0.299  12.440  0.2471 -0.3643 -0.0251
11701TIP3    H156518   6.067   0.294  12.521 -1.3801  2.7433  1.2308
11701TIP3    H256519   6.042   0.383  12.402 -0.9870 -0.6319 -1.4443
11702TIP3   OH256520   5.774   4.199  13.193 -0.1791  0.1897  0.5154
11702TIP3    H156521   5.718   4.162  13.262  0.3063 -0.4580  0.5719
11702TIP3    H256522   5.846   4.136  13.185 -0.1172  0.3839 -0.4332
11703TIP3   OH256523   6.200   1.340   5.411 -0.6556  0.5613  0.1971
11703TIP3    H156524   6.232   1.308   5.496 -0.1339  1.4536  0.3399
11703TIP3    H256525   6.270   1.318   5.350  0.4744  2.9100  0.5856
11704TIP3   OH256526   4.718   0.275  13.864 -0.2595 -0.2748  0.2661
11704TIP3    H156527   4.735   0.181  13.853  0.6787 -0.2585  1.4757
11704TIP3    H256528   4.732   0.312  13.777  0.8986 -1.0324  0.1096
11705TIP3   OH256529   4.815   1.866  12.746 -0.4428  0.2368  0.3100
11705TIP3    H156530   4.751   1.797  12.762 -0.9219  0.4771 -0.5157
11705TIP3    H256531   4.820   1.872  12.651  0.4878  0.5259  0.3673
11706TIP3   OH256532   5.098   1.266  10.885  0.1214 -0.2856  0.6215
11706TIP3    H156533   5.068   1.246  10.973  0.8246 -2.1110  0.4664
11706TIP3    H256534   5.144   1.350  10.893 -0.4659 -0.0726  1.8204
11707TIP3   OH256535   1.277   5.442   4.947 -0.4525  0.4993  0.1834
11707TIP3    H156536   1.254   5.360   4.990  1.3341 -1.9528 -3.3096
11707TIP3    H256537   1.217   5.448   4.872  2.9682 -0.4991 -2.7653
11708TIP3   OH256538   1.632   1.805   6.606  0.5746  0.1445  0.8495
11708TIP3    H156539   1.615   1.783   6.698 -1.2303  2.7334  1.1745
11708TIP3    H256540   1.718   1.847   6.607  0.9021 -0.5232  1.2275
11709TIP3   OH256541   1.726   1.869   4.554  0.3540 -0.8056 -1.0006
11709TIP3    H156542   1.724   1.957   4.516 -0.4613 -1.6117 -2.8647
11709TIP3    H256543   1.803   1.828   4.515  1.2970 -0.6321  0.6098
11710TIP3   OH256544   6.155   2.756   2.889 -0.0498  0.5849 -0.0018
11710TIP3    H156545   6.075   2.738   2.840  0.0587  2.4997 -0.9261
11710TIP3    H256546   6.131   2.736   2.980 -1.7994  1.7571 -0.1707
11711TIP3   OH256547   3.150   4.539  15.503 -0.0127  0.4767  0.2419
11711TIP3    H156548   3.126   4.620  15.549  0.5937  0.3550  0.7727
11711TIP3    H256549   3.069   4.510  15.462 -0.2288  1.3824  0.0125
11712TIP3   OH256550   6.598   4.959  12.820 -0.0284  0.4737 -0.4776
11712TIP3    H156551   6.544   4.978  12.896 -0.1022  0.2789 -0.4826
11712TIP3    H256552   6.687   4.980  12.848  0.1357 -0.9665  0.1382
11713TIP3   OH256553   6.117   0.941  14.156  0.3759 -0.1261  0.0405
11713TIP3    H156554   6.034   0.912  14.118  0.4122 -0.3044  0.0977
11713TIP3    H256555   6.158   0.861  14.188 -0.1483  0.1595  1.4455
11714TIP3   OH256556   2.565   3.402  12.259 -0.2860  0.1317 -0.5598
11714TIP3    H156557   2.525   3.383  12.343 -0.4595  0.9316 -0.4553
11714TIP3    H256558   2.657   3.420  12.280  0.0532 -1.2983 -0.7504
11715TIP3   OH256559   4.277   6.497  17.099 -0.3408 -0.2863  0.0072
11715TIP3    H156560   4.310   6.420  17.052 -0.6358 -0.7256  0.5117
11715TIP3    H256561   4.224   6.461  17.170 -0.9063  0.3903 -0.0573
11716TIP3   OH256562   3.063   4.427   2.189  0.2772  0.4442 -0.6618
11716TIP3    H156563   2.992   4.482   2.154 -0.6202 -0.4846 -0.3145
11716TIP3    H256564   3.128   4.424   2.119 -0.8644 -0.2166 -1.7089
11717TIP3   OH256565   1.505   1.420   5.431  0.1541 -0.0566  0.2252
11717TIP3    H156566   1.455   1.344   5.461 -0.4208  0.0878 -0.3508
11717TIP3    H256567   1.450   1.495   5.452  0.0545  0.0949 -0.5360
11718TIP3   OH256568   0.472   3.361  15.114  0.3165 -0.2650 -0.0187
11718TIP3    H156569   0.454   3.333  15.204  0.3907  0.4269  0.2174
11718TIP3    H256570   0.387   3.394  15.082  0.3651 -0.2025 -0.0849
11719TIP3   OH256571   2.827   4.131  15.173  0.0735  0.1304  0.0553
11719TIP3    H156572   2.780   4.069  15.229 -2.2283  1.7204 -0.0424
11719TIP3    H256573   2.778   4.131  15.091  2.0634 -0.4266 -1.1720
11720TIP3   OH256574   0.498   6.240   5.555  0.0838  0.2154  0.5319
11720TIP3    H156575   0.503   6.304   5.626 -0.1439  1.1913 -0.3197
11720TIP3    H256576   0.408   6.249   5.522  1.0134  1.6753 -1.6345
11721TIP3   OH256577   4.748   0.596  14.090 -0.2020  0.6618 -0.0174
11721TIP3    H156578   4.831   0.644  14.083 -0.7000  1.9644  2.3450
11721TIP3    H256579   4.719   0.585  13.999  2.4447  0.3555 -0.8745
11722TIP3   OH256580   2.927   3.617   4.534  0.4624  0.5065 -0.2196
11722TIP3    H156581   2.960   3.547   4.478 -0.8020 -0.8160  0.6669
11722TIP3    H256582   2.862   3.575   4.589  0.5908  2.1230  1.1964
11723TIP3   OH256583   6.068   5.680   1.523  0.3624  0.4207 -0.3562
11723TIP3    H156584   5.990   5.700   1.470  0.9647  0.9222 -1.0689
11723TIP3    H256585   6.141   5.716   1.472  1.0501  0.0420  0.3563
11724TIP3   OH256586   3.546   6.077   3.049  0.4794  0.0100 -0.0657
11724TIP3    H156587   3.471   6.130   3.021 -0.9266 -0.3019  2.8694
11724TIP3    H256588   3.593   6.133   3.110 -1.2652 -2.1486  3.4140
11725TIP3   OH256589   3.110   5.838   0.960  0.2158  0.0008  0.1899
11725TIP3    H156590   3.088   5.827   0.868  2.5372 -0.5875 -0.3297
11725TIP3    H256591   3.110   5.932   0.975 -1.5619  0.0444 -0.0410
11726TIP3   OH256592   0.923   6.219  12.751  0.6837 -0.9185 -0.9013
11726TIP3    H156593   0.904   6.185  12.839  0.0762  0.5133 -0.4542
11726TIP3    H256594   0.837   6.230  12.710  1.0129 -2.4935 -2.0453
11727TIP3   OH256595   0.120   6.231  15.038 -0.8323 -1.0662  0.1936
11727TIP3    H156596   0.088   6.298  14.979 -1.1526 -0.2424  1.2812
11727TIP3    H256597   0.044   6.175  15.055 -0.6076 -1.6142 -0.5774
11728TIP3   OH256598   6.238   2.269   1.931 -0.2583  0.3041 -0.4967
11728TIP3    H156599   6.297   2.258   1.857 -0.5548 -1.6196 -0.4713
11728TIP3    H256600   6.158   2.305   1.892 -0.3329 -0.4826 -1.0835
11729TIP3   OH256601   3.646   2.837   3.781  0.1574  0.4738  0.2607
11729TIP3    H156602   3.591   2.856   3.705  0.1500  1.8917  0.5927
11729TIP3    H256603   3.714   2.904   3.778  0.6372  0.0293  1.0392
11730TIP3   OH256604   3.727   4.241  15.818 -0.5914  0.3214 -0.3333
11730TIP3    H156605   3.793   4.272  15.880 -0.9778 -0.3804  0.4501
11730TIP3    H256606   3.650   4.295  15.836 -0.8252 -0.1391  0.0796
11731TIP3   OH256607   0.282   4.894   5.376  0.8480 -0.7455 -0.3106
11731TIP3    H156608   0.313   4.916   5.288  0.0904 -1.7289 -0.8360
11731TIP3    H256609   0.195   4.857   5.362  0.2685  0.0913  0.9582
11732TIP3   OH256610   2.631   6.055   2.096 -0.1308  0.5897  0.2358
11732TIP3    H156611   2.617   6.001   2.017 -0.3141  0.0162  0.6541
11732TIP3    H256612   2.699   6.117   2.071 -1.5476  1.6914 -1.0054
11733TIP3   OH256613   0.067   4.515  16.883 -0.4068  0.2441 -0.3835
11733TIP3    H156614   0.020   4.562  16.813  0.8189  0.5921 -0.9836
11733TIP3    H256615   0.099   4.585  16.940  0.8933  0.1088 -0.9390
11734TIP3   OH256616   0.821   0.570  11.060 -0.3335  0.1067  0.2658
11734TIP3    H156617   0.906   0.537  11.032 -0.0046 -0.6464  2.0477
11734TIP3    H256618   0.771   0.491  11.084 -2.2287  0.3852 -2.5551
11735TIP3   OH256619   5.885   3.050  12.684  0.5967 -0.2709 -0.2044
11735TIP3    H156620   5.792   3.030  12.680  0.6801 -1.0580  1.3231
11735TIP3    H256621   5.897   3.091  12.770  1.3087  1.6833 -1.2228
11736TIP3   OH256622   1.312   2.127  13.494 -0.4228  0.2144  0.1416
11736TIP3    H156623   1.311   2.037  13.464  0.3141  0.2070  0.1400
11736TIP3    H256624   1.373   2.128  13.568 -1.9437  0.2966  1.4537
11737TIP3   OH256625   5.281   3.142   4.447  0.4069  0.6666  0.0014
11737TIP3    H156626   5.214   3.087   4.488 -2.2883  2.0399 -2.4657
11737TIP3    H256627   5.315   3.195   4.520 -2.3116  1.0796  1.0425
11738TIP3   OH256628   5.006   1.350  15.228  0.2145 -0.1235 -0.6504
11738TIP3    H156629   4.914   1.325  15.236 -0.3560  2.2484  0.8434
11738TIP3    H256630   5.036   1.361  15.318  1.3513  1.1407 -1.1680
11739TIP3   OH256631   0.464   2.566   2.179 -0.0181  0.1172  0.2864
11739TIP3    H156632   0.414   2.610   2.110  1.5766  1.1286 -0.2379
11739TIP3    H256633   0.414   2.583   2.259 -0.1407  1.7337 -0.1178
11740TIP3   OH256634   0.480   3.043  15.277 -1.1977  0.3780 -0.2308
11740TIP3    H156635   0.562   3.082  15.308 -0.4486 -1.0041 -0.4218
11740TIP3    H256636   0.459   2.976  15.342 -0.4376 -1.4852 -1.8446
11741TIP3   OH256637   3.546   2.282   4.800 -0.0754  0.7434 -0.3038
11741TIP3    H156638   3.480   2.216   4.822  2.9997 -2.0744  0.8520
11741TIP3    H256639   3.524   2.357   4.855 -0.8131 -1.0794  1.9414
11742TIP3   OH256640   5.083   1.344  12.105  0.0098  0.6232 -0.6952
11742TIP3    H156641   5.156   1.397  12.073  0.7747 -1.3313 -2.3302
11742TIP3    H256642   5.034   1.320  12.025 -2.4142  1.8640  0.3631
11743TIP3   OH256643   5.316   4.886  14.174 -0.1964  0.5345 -0.7341
11743TIP3    H156644   5.228   4.869  14.209  1.2009 -2.5859  1.4956
11743TIP3    H256645   5.321   4.833  14.095 -0.0705  0.1254 -0.4528
11744TIP3   OH256646   2.283   0.879   4.694  0.0119  0.2865  0.0304
11744TIP3    H156647   2.272   0.798   4.644  1.1764  0.3374 -0.3415
11744TIP3    H256648   2.321   0.941   4.632 -1.5953  1.3694  0.1039
11745TIP3   OH256649   0.474   0.581  14.080  0.0063 -0.0497  0.1432
11745TIP3    H156650   0.466   0.528  14.001  0.8874  0.1651 -0.1009
11745TIP3    H256651   0.467   0.671  14.050  1.2697  0.0667  0.1754
11746TIP3   OH256652   5.723   2.804   2.674 -0.3292  0.2813  0.0796
11746TIP3    H156653   5.786   2.751   2.722  0.4065  0.8048 -0.2921
11746TIP3    H256654   5.665   2.741   2.632 -0.9002 -0.1869  1.5388
11747TIP3   OH256655   0.820   0.204   5.084 -0.3399  0.2216 -0.0151
11747TIP3    H156656   0.912   0.202   5.109 -0.5596 -0.6680  0.7608
11747TIP3    H256657   0.807   0.290   5.043  1.1412 -0.1712 -1.3609
11748TIP3   OH256658   0.328   4.443  14.237 -0.5290  0.0949  0.2573
11748TIP3    H156659   0.339   4.441  14.332  0.2599 -0.0352  0.1698
11748TIP3    H256660   0.288   4.528  14.218 -2.1037 -0.4931  0.8438
11749TIP3   OH256661   0.491   1.293  13.198 -0.4089 -0.2441  0.3288
11749TIP3    H156662   0.439   1.300  13.278 -1.8305  2.3608 -0.7514
11749TIP3    H256663   0.449   1.223  13.148 -0.7360 -0.5207  0.9826
11750TIP3   OH256664   6.404   6.275  13.220  0.1734 -0.1593 -0.1567
11750TIP3    H156665   6.489   6.231  13.222  0.3340  0.1095 -0.9488
11750TIP3    H256666   6.425   6.366  13.199 -0.1765  0.2400  1.2101
11751TIP3   OH256667   1.486   3.017   5.614 -0.0796  0.0402  0.3635
11751TIP3    H156668   1.520   3.105   5.600 -0.2030  0.2433  1.3013
11751TIP3    H256669   1.518   2.993   5.701 -0.6941 -0.5358  0.4356
11752TIP3   OH256670   1.354   1.263  15.908 -0.1505  0.7574 -0.3557
11752TIP3    H156671   1.276   1.219  15.940  0.9802 -0.4536  0.7833
11752TIP3    H256672   1.366   1.230  15.819 -0.5208  0.3747 -0.2631
11753TIP3   OH256673   2.010   4.506   5.033 -0.4835 -0.5309 -0.0822
11753TIP3    H156674   1.977   4.423   4.997 -2.6755 -0.7474  2.3259
11753TIP3    H256675   1.984   4.505   5.125  2.2659  1.4322  0.8001
11754TIP3   OH256676   3.421   6.446  13.485  0.2311 -0.5068 -0.7340
11754TIP3    H156677   3.341   6.447  13.433 -0.5964  0.2686  0.5293
11754TIP3    H256678   3.473   6.519  13.450  0.0739 -0.5505 -1.0613
11755TIP3   OH256679   0.849   1.460  16.029  0.1756 -0.5211  0.2177
11755TIP3    H156680   0.830   1.402  16.103 -1.0193  0.3505  0.6237
11755TIP3    H256681   0.775   1.521  16.028  1.1000  0.5958 -0.5868
11756TIP3   OH256682   3.715   1.285  13.930  0.0278  0.4008  0.0015
11756TIP3    H156683   3.650   1.277  13.861  0.0392 -0.2526  0.0630
11756TIP3    H256684   3.788   1.331  13.889  0.1922 -0.3235 -0.5377
11757TIP3   OH256685   5.597   0.167  10.653 -0.6807  0.0615 -0.2301
11757TIP3    H156686   5.620   0.109  10.581 -1.3324  2.1721 -2.1722
11757TIP3    H256687   5.679   0.207  10.679 -0.4628 -0.6207  0.1580
11758TIP3   OH256688   0.857   3.231  11.000  0.1225 -0.0379  0.7029
11758TIP3    H156689   0.942   3.271  10.979 -0.9159  1.0777 -1.5847
11758TIP3    H256690   0.798   3.305  11.010 -1.1795 -0.8806 -0.5836
11759TIP3   OH256691   4.847   5.694   4.925 -0.1994 -0.0907  0.2160
11759TIP3    H156692   4.810   5.607   4.941 -0.5773 -0.1780 -1.0647
11759TIP3    H256693   4.850   5.735   5.012  0.1185 -1.4293  0.8459
11760TIP3   OH256694   5.836   1.060   0.201  0.5906  0.6885  0.0872
11760TIP3    H156695   5.929   1.059   0.176  0.3693  1.1354 -0.7859
11760TIP3    H256696   5.836   1.040   0.295  1.3305 -2.9492 -0.5965
11761TIP3   OH256697   5.008   5.785  14.210  0.2761 -0.1572  0.0256
11761TIP3    H156698   5.014   5.809  14.303  1.4419 -1.2918  0.2690
11761TIP3    H256699   4.924   5.821  14.181  1.1409  2.6423  0.7936
11762TIP3   OH256700   3.471   6.739  12.841 -0.7410 -0.1305 -0.6390
11762TIP3    H156701   3.458   6.754  12.934 -1.0677 -1.0368 -0.5343
11762TIP3    H256702   3.437   6.818  12.799  3.0682  2.0796  0.2069
11763TIP3   OH256703   0.176   6.441   2.901 -0.4241 -0.4632 -0.2075
11763TIP3    H156704   0.202   6.533   2.894  1.8418 -0.9171  1.6611
11763TIP3    H256705   0.098   6.443   2.957  0.1368  0.2533  0.5685
11764TIP3   OH256706   2.804   0.664  12.483 -0.1891 -0.2404  0.2781
11764TIP3    H156707   2.794   0.745  12.533  1.4072 -0.5224  1.0706
11764TIP3    H256708   2.797   0.691  12.391 -2.0402  0.4333  0.5880
11765TIP3   OH256709   4.536   0.549  16.779 -0.1526 -0.2911  0.4197
11765TIP3    H156710   4.578   0.496  16.711  1.5765  0.6315  0.7184
11765TIP3    H256711   4.536   0.493  16.856 -0.3098 -0.6297  0.1732
11766TIP3   OH256712   4.061   1.290   4.848 -0.0759  0.5536  0.4780
11766TIP3    H156713   4.156   1.289   4.857 -0.0144  0.8241 -0.0697
11766TIP3    H256714   4.032   1.207   4.885  0.6219 -0.7543 -1.7945
11767TIP3   OH256715   2.193   0.252   0.734 -0.2895  1.0455 -0.3611
11767TIP3    H156716   2.117   0.299   0.768 -0.0867  1.5025 -0.5318
11767TIP3    H256717   2.216   0.298   0.653 -1.1004 -0.3878 -1.4108
11768TIP3   OH256718   2.218   5.375  11.346 -0.1421 -0.0137  0.0818
11768TIP3    H156719   2.211   5.470  11.354 -0.3658 -0.0335  0.1219
11768TIP3    H256720   2.261   5.361  11.262  0.5087  0.1413  0.3774
11769TIP3   OH256721   4.417   1.530  15.354  0.3188 -0.0417 -0.3372
11769TIP3    H156722   4.343   1.575  15.395 -0.8220 -0.9985 -1.2930
11769TIP3    H256723   4.405   1.438  15.378  1.4634 -0.1357 -0.1135
11770TIP3   OH256724   5.178   2.609  13.783 -0.3451 -0.2137  0.0623
11770TIP3    H156725   5.245   2.602  13.716 -1.7596  0.6618 -1.4980
11770TIP3    H256726   5.225   2.628  13.864  1.6026 -3.7492 -0.1507
11771TIP3   OH256727   3.865   1.716   5.042 -0.1849  0.1030 -0.0401
11771TIP3    H156728   3.799   1.723   4.973  0.1017  0.6626 -0.2609
11771TIP3    H256729   3.883   1.622   5.048 -2.1715 -0.2367  1.1502
11772TIP3   OH256730   2.157   4.273   4.839  0.5542  0.5041 -0.0073
11772TIP3    H156731   2.177   4.195   4.890 -0.3567 -0.0247 -0.4387
11772TIP3    H256732   2.085   4.315   4.886  0.1178  0.3371 -0.5165
11773TIP3   OH256733   5.061   4.731  17.177  0.1299  0.0437  0.4349
11773TIP3    H156734   5.076   4.653  17.123  0.2409 -0.3787  1.0779
11773TIP3    H256735   4.970   4.725  17.205 -0.4217  1.1106 -1.0472
11774TIP3   OH256736   3.305   2.180  16.170  0.3033  0.6572 -0.3143
11774TIP3    H156737   3.356   2.181  16.251 -0.9928  0.2319  0.5121
11774TIP3    H256738   3.297   2.272  16.146  0.0974  0.8387  0.4311
11775TIP3   OH256739   6.178   2.325  13.653 -0.0896  0.0704 -0.2365
11775TIP3    H156740   6.092   2.286  13.668 -0.0997  0.3903  0.5856
11775TIP3    H256741   6.239   2.252  13.664 -0.2570 -0.1615 -0.8406
11776TIP3   OH256742   1.316   5.317   2.849 -0.4607 -0.0359 -0.9905
11776TIP3    H156743   1.408   5.330   2.824 -0.8724  0.0107 -2.4854
11776TIP3    H256744   1.269   5.388   2.805 -1.0545  0.6865  0.7738
11777TIP3   OH256745   2.396   4.869   5.974 -0.2364 -0.1388 -0.0917
11777TIP3    H156746   2.359   4.782   5.961 -1.4337  0.2425  0.6566
11777TIP3    H256747   2.334   4.913   6.033  0.4895  1.1244 -0.2469
11778TIP3   OH256748   5.629   2.012   4.697  0.2415  0.4529  0.4221
11778TIP3    H156749   5.592   1.924   4.699  1.1995  0.0679  2.0719
11778TIP3    H256750   5.647   2.029   4.604 -1.8091 -0.2790 -0.1273
11779TIP3   OH256751   2.919   1.489   0.094 -0.7270 -0.3037  0.5016
11779TIP3    H156752   2.885   1.487   0.005  0.9572  0.8355 -0.1920
11779TIP3    H256753   2.845   1.518   0.148 -1.0446  1.4425 -0.8603
11780TIP3   OH256754   3.914   5.966  11.211  0.4026  0.1627 -0.5160
11780TIP3    H156755   3.906   6.039  11.150  1.5593  0.3165 -0.5018
11780TIP3    H256756   3.960   6.004  11.286  1.7363 -0.7868 -0.8518
11781TIP3   OH256757   4.965   6.118   2.692 -0.0267  0.0298 -0.4999
11781TIP3    H156758   4.924   6.117   2.779 -1.0965  1.1711 -0.9916
11781TIP3    H256759   4.896   6.092   2.632 -0.2511  2.5710 -1.4114
11782TIP3   OH256760   0.689   0.556  15.865  0.1983  0.8908 -0.0266
11782TIP3    H156761   0.751   0.484  15.866  0.5125  1.1650  0.9759
11782TIP3    H256762   0.622   0.532  15.929  0.4949  1.6411  0.5773
11783TIP3   OH256763   4.542   3.465  10.799 -0.1786 -0.0810 -0.1176
11783TIP3    H156764   4.570   3.556  10.785 -0.3887 -0.1030 -0.6779
11783TIP3    H256765   4.448   3.470  10.814 -0.0219 -0.1017  0.8841
11784TIP3   OH256766   2.801   5.432  10.777  0.2723  0.3189  0.6076
11784TIP3    H156767   2.875   5.488  10.756  1.5734 -1.1730  1.1189
11784TIP3    H256768   2.806   5.360  10.713 -0.5263  0.0203  0.8675
11785TIP3   OH256769   6.104   6.425  14.624  0.1517 -0.5317  0.3310
11785TIP3    H156770   6.041   6.458  14.560  1.9981 -0.0411 -1.3038
11785TIP3    H256771   6.087   6.476  14.703 -3.1923 -2.2065  0.7798
11786TIP3   OH256772   3.838   2.186   3.653  0.1458 -0.3267 -0.2396
11786TIP3    H156773   3.933   2.188   3.667  0.3882  1.1492 -1.8720
11786TIP3    H256774   3.800   2.202   3.739  1.3998  0.1294  0.2346
11787TIP3   OH256775   3.614   1.057   3.721 -0.0535  0.3284 -0.5678
11787TIP3    H156776   3.697   1.034   3.762 -1.4077 -1.2096  1.4351
11787TIP3    H256777   3.561   0.977   3.728 -2.1139  1.6462 -0.6523
11788TIP3   OH256778   5.914   4.971  15.229  0.3644 -0.4308 -0.0024
11788TIP3    H156779   5.845   5.034  15.209  2.2613  2.2554  1.6422
11788TIP3    H256780   5.873   4.910  15.291 -1.5489 -0.9565 -1.7470
11789TIP3   OH256781   5.926   1.687  11.314 -0.4977  0.3533  0.2531
11789TIP3    H156782   5.972   1.605  11.332 -0.9264 -0.4165 -2.0095
11789TIP3    H256783   5.836   1.662  11.297 -0.4312  1.1598 -1.4351
11790TIP3   OH256784   2.793   4.278  13.863 -0.2703 -0.1902 -0.0028
11790TIP3    H156785   2.704   4.312  13.857 -0.0769  0.1438 -1.1507
11790TIP3    H256786   2.844   4.334  13.804  0.1636 -2.0597 -1.4737
11791TIP3   OH256787   4.947   0.591  11.657  0.6162 -0.5183 -0.1745
11791TIP3    H156788   4.973   0.629  11.573 -1.7645 -0.1284 -0.7747
11791TIP3    H256789   4.912   0.505  11.635  0.9055 -0.8204  0.5416
11792TIP3   OH256790   5.928   1.807   2.642 -0.0861  0.3759 -0.0483
11792TIP3    H156791   6.020   1.789   2.664  0.1027 -0.8872 -1.8196
11792TIP3    H256792   5.894   1.723   2.611 -1.3242  1.2839 -1.1723
11793TIP3   OH256793   3.269   3.584   2.068  0.8560  0.2036  0.0167
11793TIP3    H156794   3.250   3.602   1.976  2.1975 -0.6409 -0.4444
11793TIP3    H256795   3.237   3.494   2.082  2.5552 -0.4628 -0.2191
11794TIP3   OH256796   4.839   5.308  15.704  0.2754 -0.4218 -0.0370
11794TIP3    H156797   4.933   5.321  15.714  0.2071  2.1375 -2.2403
11794TIP3    H256798   4.831   5.224  15.659  1.5068 -0.6209  0.1058
11795TIP3   OH256799   1.395   5.905  12.714 -0.5171 -0.3882  0.4471
11795TIP3    H156800   1.460   5.835  12.703  0.2025  0.0436  1.7964
11795TIP3    H256801   1.435   5.964  12.779 -1.7817  0.4702  0.4559
11796TIP3   OH256802   5.627   3.720  12.461 -0.4479  0.1517  0.4484
11796TIP3    H156803   5.559   3.782  12.489  0.2509  0.4107  1.6200
11796TIP3    H256804   5.685   3.713  12.537  0.6329 -0.3484 -0.4158
11797TIP3   OH256805   4.200   4.750  11.622  0.0679 -0.0552  0.7465
11797TIP3    H156806   4.205   4.784  11.711  1.5897  0.1280  0.6063
11797TIP3    H256807   4.291   4.745  11.593 -0.4328  0.1571 -0.9047
11798TIP3   OH256808   3.538   6.078   5.324  0.4384  0.5722  0.7854
11798TIP3    H156809   3.467   6.124   5.280  1.9511  2.9341  0.6982
11798TIP3    H256810   3.496   6.031   5.396 -1.7422 -1.4637 -1.7201
11799TIP3   OH256811   6.727   6.580   3.326 -0.1136 -0.1148  0.6435
11799TIP3    H156812   6.726   6.592   3.421  2.1038 -1.4543  0.8543
11799TIP3    H256813   6.681   6.497   3.312  0.3904 -0.3934  0.6306
11800TIP3   OH256814   3.748   0.597   4.012 -0.0137 -0.5491 -0.4454
11800TIP3    H156815   3.799   0.534   4.063  0.7617 -0.4576 -1.0957
11800TIP3    H256816   3.694   0.643   4.077  1.8235  0.3868  0.4632
11801TIP3   OH256817   0.170   5.258  15.088  0.1470 -0.4386  0.3421
11801TIP3    H156818   0.228   5.302  15.150 -1.2056  1.3266  0.4097
11801TIP3    H256819   0.093   5.234  15.139  0.2397 -1.5859 -0.0327
11802TIP3   OH256820   3.701   2.315   2.960  0.6306  0.1483  0.1223
11802TIP3    H156821   3.626   2.289   3.013  1.1132  0.2008  0.8345
11802TIP3    H256822   3.776   2.307   3.019  1.4093 -1.4702 -1.0389
11803TIP3   OH256823   4.036   3.591  10.971  0.0585  0.1752 -0.1208
11803TIP3    H156824   3.955   3.579  10.922  0.8293  1.9051 -1.8832
11803TIP3    H256825   4.039   3.685  10.991  0.9178 -0.1125  1.1942
11804TIP3   OH256826   2.679   4.513   1.534  0.6434  0.2080 -0.7626
11804TIP3    H156827   2.755   4.571   1.538  0.8960 -0.1037 -1.0746
11804TIP3    H256828   2.611   4.560   1.583  1.2190  0.1994  0.0593
11805TIP3   OH256829   5.953   2.945   2.681 -0.2676 -0.1451 -0.1275
11805TIP3    H156830   5.867   2.912   2.654  0.4737 -1.2527 -1.2028
11805TIP3    H256831   6.015   2.904   2.620  1.1761 -0.4987  1.5255
11806TIP3   OH256832   4.292   2.250  16.693  0.1949  0.2910  0.2295
11806TIP3    H156833   4.300   2.338  16.655  1.6587  0.2741  0.4717
11806TIP3    H256834   4.312   2.263  16.786 -1.1801 -0.0347  0.5746
11807TIP3   OH256835   1.785   2.344   0.452  0.2548  0.3534 -0.4623
11807TIP3    H156836   1.863   2.288   0.446  0.1396  0.1423  0.0102
11807TIP3    H256837   1.763   2.364   0.361 -0.1082 -0.9260 -0.6707
11808TIP3   OH256838   4.519   5.188  11.191  0.3299  0.6065  0.0369
11808TIP3    H156839   4.527   5.258  11.127 -0.5064  0.8184  0.1605
11808TIP3    H256840   4.601   5.139  11.183 -0.7487 -0.8670 -2.9723
11809TIP3   OH256841   2.852   6.136  15.292  0.3464 -0.6787 -0.0912
11809TIP3    H156842   2.873   6.048  15.259  0.8475 -0.5899 -0.0145
11809TIP3    H256843   2.769   6.125  15.338  1.5791 -1.6120  1.9614
11810TIP3   OH256844   1.376   4.668   1.034 -0.2432 -0.3321  0.2690
11810TIP3    H156845   1.413   4.757   1.037  1.6679 -1.1026 -0.0565
11810TIP3    H256846   1.285   4.680   1.060  0.1205  1.6702  0.7359
11811TIP3   OH256847   2.867   4.978  11.244 -0.1329  0.4456 -0.8726
11811TIP3    H156848   2.808   4.964  11.319 -0.9004  1.6582 -1.2286
11811TIP3    H256849   2.935   4.911  11.254  0.0774  0.9393  1.2160
11812TIP3   OH256850   6.598   3.682  16.133 -0.5872  0.0417 -0.3550
11812TIP3    H156851   6.504   3.678  16.113 -0.3107 -0.7807 -1.5063
11812TIP3    H256852   6.640   3.631  16.064  0.6988  0.2173  0.2789
11813TIP3   OH256853   1.637   6.178   4.868  0.2371 -0.2652  0.0272
11813TIP3    H156854   1.646   6.246   4.934  0.7118  0.0622 -0.3706
11813TIP3    H256855   1.547   6.185   4.838  0.2544  0.1259  0.0619
11814TIP3   OH256856   0.456   5.871   3.476  0.0687  0.2680  0.8944
11814TIP3    H156857   0.447   5.782   3.442  0.3665  0.5954 -0.0473
11814TIP3    H256858   0.436   5.863   3.569 -1.2753 -0.5438  0.5490
11815TIP3   OH256859   4.010   3.039  15.224  0.6797  0.7101 -0.1345
11815TIP3    H156860   4.085   3.053  15.166  1.2051 -0.2028  0.3090
11815TIP3    H256861   3.964   3.123  15.226  1.3395  1.0888 -0.9101
11816TIP3   OH256862   6.167   4.099   5.365  0.1882  0.1261  0.7141
11816TIP3    H156863   6.223   4.176   5.359  1.4214 -0.8062 -0.0074
11816TIP3    H256864   6.225   4.030   5.398 -0.1629 -1.1918 -1.3268
11817TIP3   OH256865   4.602   6.193   0.873  0.0629 -0.1285  0.5754
11817TIP3    H156866   4.586   6.131   0.944  2.4217 -0.0037  1.2232
11817TIP3    H256867   4.697   6.200   0.867 -0.1126  0.6213 -1.9363
11818TIP3   OH256868   1.388   1.603   6.593  0.5492  0.2011  0.5345
11818TIP3    H156869   1.402   1.563   6.679  0.4488 -0.5936  0.1915
11818TIP3    H256870   1.463   1.661   6.580  2.2952 -2.1668 -0.2496
11819TIP3   OH256871   2.186   6.403  13.599  0.3733  0.0276 -0.0465
11819TIP3    H156872   2.105   6.415  13.648  1.1460 -0.2344  1.2927
11819TIP3    H256873   2.215   6.492  13.579  0.7141  0.1751  1.0669
11820TIP3   OH256874   1.777   2.454  16.439  0.2412  0.3839  0.4920
11820TIP3    H156875   1.724   2.424  16.364  2.5376  1.3972 -1.5974
11820TIP3    H256876   1.717   2.509  16.490 -1.2706 -0.0464 -0.7609
11821TIP3   OH256877   2.026   4.215   5.677  0.4208 -0.4648  0.9444
11821TIP3    H156878   2.034   4.296   5.627  1.1129 -1.2985 -0.3134
11821TIP3    H256879   2.064   4.236   5.763  2.7333 -0.0900 -0.1236
11822TIP3   OH256880   6.141   0.145   5.156  0.1240  0.3060  0.1999
11822TIP3    H156881   6.075   0.120   5.221  0.1554 -0.2186  0.0281
11822TIP3    H256882   6.222   0.106   5.187  0.0488 -0.3261 -0.3915
11823TIP3   OH256883   1.689   6.359   5.618  0.5960 -0.2320 -0.2758
11823TIP3    H156884   1.688   6.324   5.707 -0.6285  0.9736  0.2001
11823TIP3    H256885   1.778   6.392   5.606  0.7659 -0.4017  0.4996
11824TIP3   OH256886   2.872   0.522  17.080  0.2816 -0.6583  0.0598
11824TIP3    H156887   2.907   0.571  17.006 -0.2403  0.9552  0.8558
11824TIP3    H256888   2.780   0.506  17.057  0.1492 -0.2568  0.3117
11825TIP3   OH256889   3.721   6.195   0.851  0.2742  0.3234  0.3626
11825TIP3    H156890   3.639   6.148   0.842  0.9149 -1.0666  1.4935
11825TIP3    H256891   3.782   6.130   0.888  1.9152  1.2675 -0.6057
11826TIP3   OH256892   1.328   0.132  17.136  0.0825  0.4731 -0.6471
11826TIP3    H156893   1.365   0.206  17.088 -3.0805  2.3839 -0.2974
11826TIP3    H256894   1.370   0.135  17.222  0.5512  1.3439 -0.9080
11827TIP3   OH256895   1.290   5.296  14.314  0.2899 -0.6063  0.2190
11827TIP3    H156896   1.201   5.269  14.293  0.7417 -2.2058  0.2894
11827TIP3    H256897   1.342   5.266  14.240  1.3086 -2.8812  1.7971
11828TIP3   OH256898   1.982   2.651  14.287  0.0965 -0.0331  0.3617
11828TIP3    H156899   2.031   2.569  14.290 -1.1590 -0.7574  1.2758
11828TIP3    H256900   1.947   2.655  14.197 -0.8340 -1.0915  0.6720
11829TIP3   OH256901   6.360   1.908  15.219 -0.2188  0.4421 -0.0816
11829TIP3    H156902   6.359   2.000  15.194 -0.1054  0.5609  0.3322
11829TIP3    H256903   6.323   1.861  15.144 -0.4210  0.8401 -0.2312
11830TIP3   OH256904   5.148   3.306  16.382  0.5256  0.0767 -0.6461
11830TIP3    H156905   5.159   3.378  16.444  1.0378 -0.0890 -0.5392
11830TIP3    H256906   5.101   3.344  16.308 -0.0345  0.2929 -0.1822
11831TIP3   OH256907   0.542   0.436  14.291  0.3573  0.5338 -0.5094
11831TIP3    H156908   0.521   0.466  14.202 -0.8519  2.7723  0.4746
11831TIP3    H256909   0.498   0.499  14.348 -0.1653 -1.7663  1.6994
11832TIP3   OH256910   4.979   2.170   4.178  0.5053 -0.4380 -0.1284
11832TIP3    H156911   4.966   2.195   4.269  0.4146  2.0166 -0.8032
11832TIP3    H256912   5.040   2.234   4.143  0.0910 -1.0101 -1.9670
11833TIP3   OH256913   6.637   5.567   3.253 -1.0005  0.6500 -0.4102
11833TIP3    H156914   6.695   5.498   3.286 -0.6126  1.9027  1.6246
11833TIP3    H256915   6.561   5.564   3.311 -1.0669  1.7906 -0.4239
11834TIP3   OH256916   0.517   2.269   6.232  0.1087 -0.0599  0.8313
11834TIP3    H156917   0.515   2.196   6.170 -2.2858  0.7594 -0.1284
11834TIP3    H256918   0.440   2.255   6.287 -0.1872  1.5558  0.8444
11835TIP3   OH256919   3.875   1.172  15.593 -1.0287 -0.5555  0.1102
11835TIP3    H156920   3.913   1.231  15.658 -2.2096  1.0976 -0.6597
11835TIP3    H256921   3.877   1.086  15.635  0.8423 -0.0056  1.1965
11836TIP3   OH256922   5.941   4.060   3.445  0.2255 -0.6456 -0.4340
11836TIP3    H156923   5.906   4.067   3.534 -0.2406 -0.6875 -0.6148
11836TIP3    H256924   5.973   3.970   3.438 -1.8521 -1.3451 -1.0887
11837TIP3   OH256925   1.585   1.642   6.032 -0.6023 -0.3947  0.2739
11837TIP3    H156926   1.508   1.691   6.061 -1.9382 -1.2106 -1.7595
11837TIP3    H256927   1.577   1.557   6.076 -0.4863 -0.2291  0.6148
11838TIP3   OH256928   6.723   1.792  11.950 -0.6186  0.3611  0.2956
11838TIP3    H156929   6.778   1.721  11.983  1.4164  2.0678  0.6723
11838TIP3    H256930   6.755   1.807  11.861 -0.5682  1.2283  0.4496
11839TIP3   OH256931   0.633   2.211  10.496  0.5388  0.1041  0.1031
11839TIP3    H156932   0.588   2.295  10.487  0.2453  0.0195  0.7835
11839TIP3    H256933   0.700   2.213  10.428  0.8331  1.0802  0.4138
11840TIP3   OH256934   3.215   5.223   3.723  0.6475  0.1341  0.5058
11840TIP3    H156935   3.262   5.193   3.645 -0.7955 -1.7159  0.3096
11840TIP3    H256936   3.253   5.173   3.795 -0.4562 -0.8137  0.4523
11841TIP3   OH256937   6.032   0.663   0.264 -0.8055 -0.3166 -0.7377
11841TIP3    H156938   5.960   0.691   0.320 -0.4212  2.1283 -1.4029
11841TIP3    H256939   6.084   0.605   0.319 -0.5058  1.9230  1.4289
11842TIP3   OH256940   0.151   4.263   6.237  0.0879 -0.3666  0.3614
11842TIP3    H156941   0.076   4.310   6.201  0.2543  0.0423  0.5373
11842TIP3    H256942   0.130   4.251   6.329 -0.1330 -1.0033  0.2304
11843TIP3   OH256943   6.501   5.074   5.330  0.5973 -0.0767  0.0558
11843TIP3    H156944   6.488   4.982   5.354 -1.4298  0.6060  1.6543
11843TIP3    H256945   6.513   5.119   5.413  0.5205  1.2644 -0.6531
11844TIP3   OH256946   6.201   2.271  15.317 -0.4054  0.1156  0.0684
11844TIP3    H156947   6.226   2.229  15.400 -0.7851  1.4049  0.8515
11844TIP3    H256948   6.285   2.293  15.276 -0.1286 -3.3290 -1.4059
11845TIP3   OH256949   0.056   2.005  11.074  0.0068 -1.2705 -0.5139
11845TIP3    H156950   0.146   2.034  11.089 -0.2928 -1.1167  1.1082
11845TIP3    H256951   0.001   2.079  11.100 -0.5606 -0.9265 -2.6529
11846TIP3   OH256952   3.965   5.906   5.130 -0.6354 -0.5170 -0.0363
11846TIP3    H156953   3.886   5.923   5.181  0.2752 -1.4262  1.7155
11846TIP3    H256954   4.037   5.916   5.192  0.4972 -1.7469 -1.1102
11847TIP3   OH256955   3.470   2.863  14.264  0.5700  0.0908 -0.6418
11847TIP3    H156956   3.537   2.799  14.239  0.8843  0.6031 -1.0913
11847TIP3    H256957   3.476   2.932  14.198  0.9061  1.0759  0.4034
11848TIP3   OH256958   0.310   3.708   6.665  0.2130  0.0515 -0.0599
11848TIP3    H156959   0.215   3.720   6.656  0.1187  0.0635  0.9545
11848TIP3    H256960   0.321   3.619   6.697  0.6688 -0.7612 -2.3591
11849TIP3   OH256961   0.793   1.034   0.708 -0.4392  0.6288  0.4900
11849TIP3    H156962   0.720   0.982   0.674 -1.5148  1.6420  1.2641
11849TIP3    H256963   0.786   1.118   0.662  0.5015  0.5826  0.2486
11850TIP3   OH256964   2.647   0.529   5.207 -0.0327  0.1202  0.0143
11850TIP3    H156965   2.743   0.528   5.203 -0.0351 -0.8106  0.0202
11850TIP3    H256966   2.626   0.614   5.245  0.8553 -0.2290  1.3490
11851TIP3   OH256967   3.288   0.156   5.975 -0.2578 -0.0646  0.1003
11851TIP3    H156968   3.358   0.210   5.938  0.2732 -0.1875  0.9061
11851TIP3    H256969   3.207   0.194   5.940  0.2433 -0.3705 -1.4131
11852TIP3   OH256970   5.206   0.974  14.379 -0.4692  0.5697 -0.3502
11852TIP3    H156971   5.274   1.026  14.423 -0.7324  1.1112 -0.5774
11852TIP3    H256972   5.124   1.021  14.399 -0.7558  0.0209 -0.2263
11853TIP3   OH256973   6.234   6.548   2.933  0.0400  0.5827 -0.1471
11853TIP3    H156974   6.201   6.467   2.894 -2.1958  2.0965 -1.4807
11853TIP3    H256975   6.294   6.583   2.868  2.0146 -0.5990  0.9754
11854TIP3   OH256976   4.644   4.167  12.575  0.0638 -0.3532 -0.3519
11854TIP3    H156977   4.673   4.194  12.488 -0.7373  1.1876 -0.1610
11854TIP3    H256978   4.552   4.143  12.564  0.3060 -1.3735 -0.1766
11855TIP3   OH256979   0.096   3.996  15.258 -0.0916 -0.3685 -0.2068
11855TIP3    H156980   0.107   3.971  15.166  2.8418 -0.8823  0.2361
11855TIP3    H256981   0.077   4.090  15.254  1.2213 -0.1278 -1.2934
11856TIP3   OH256982   6.648   6.250   2.136  0.3516 -0.4015  0.1405
11856TIP3    H156983   6.683   6.168   2.102  1.0540 -0.2812  0.5618
11856TIP3    H256984   6.571   6.225   2.186  1.8044 -1.0380  2.1002
11857TIP3   OH256985   1.855   6.712  14.434 -0.4294 -0.2605 -0.2290
11857TIP3    H156986   1.836   6.802  14.459 -1.7606 -0.4599 -0.5028
11857TIP3    H256987   1.795   6.659  14.487 -0.0318 -0.9575 -0.4642
11858TIP3   OH256988   4.617   5.611   3.888  0.1369 -0.3255 -0.3290
11858TIP3    H156989   4.555   5.642   3.953 -0.3519 -2.9016  0.5147
11858TIP3    H256990   4.668   5.688   3.863 -1.6732  1.2940  0.8678
11859TIP3   OH256991   4.787   4.555  15.926  0.4001 -0.2503 -0.3651
11859TIP3    H156992   4.873   4.515  15.910  0.1167 -1.0662  0.0793
11859TIP3    H256993   4.749   4.502  15.996  0.8125  2.0370  1.6131
11860TIP3   OH256994   3.022   1.397   3.532  0.2537 -0.3538 -0.0609
11860TIP3    H156995   2.998   1.324   3.589  2.3480 -2.1738 -1.4241
11860TIP3    H256996   2.943   1.417   3.482  0.0452 -2.6674 -0.7023
11861TIP3   OH256997   2.700   6.145  12.857  0.1725 -0.7369  0.0891
11861TIP3    H156998   2.709   6.052  12.839 -2.1199 -0.6717 -1.5513
11861TIP3    H256999   2.633   6.151  12.925 -1.3829 -0.2040 -1.4374
11862TIP3   OH257000   2.272   6.324  11.511 -0.0268 -0.3433  0.8613
11862TIP3    H157001   2.311   6.324  11.598 -0.6170 -1.4677  1.1303
11862TIP3    H257002   2.178   6.316  11.526 -0.3320  1.6165  0.1883
11863TIP3   OH257003   3.388   4.615  14.713 -0.1577 -0.1905  0.5905
11863TIP3    H157004   3.466   4.634  14.766 -0.1133 -1.5707  1.0492
11863TIP3    H257005   3.394   4.521  14.697 -0.9754 -0.0365 -0.5988
11864TIP3   OH257006   5.275   6.567  14.928 -0.0924  0.1350 -0.2502
11864TIP3    H157007   5.319   6.591  14.846 -0.9151  0.2039 -0.6851
11864TIP3    H257008   5.191   6.531  14.899 -0.4313  0.2630  0.5766
11865TIP3   OH257009   2.460   1.174   2.629  0.3015 -0.1702  0.2010
11865TIP3    H157010   2.478   1.219   2.711  1.4850 -0.9054  0.3508
11865TIP3    H257011   2.364   1.170   2.625  0.2131  1.0354  0.8937
11866TIP3   OH257012   1.315   5.315  14.896 -0.2355 -0.3595 -0.0320
11866TIP3    H157013   1.356   5.278  14.817  0.3317 -0.8115  0.4730
11866TIP3    H257014   1.310   5.409  14.878  1.4256 -0.2389  0.0785
11867TIP3   OH257015   4.435   6.784   4.249  0.1637  0.5001  0.3862
11867TIP3    H157016   4.442   6.688   4.255  0.5733  0.5198  0.1757
11867TIP3    H257017   4.398   6.800   4.163  1.2290  0.5903 -0.0564
11868TIP3   OH257018   2.844   0.446   3.931  0.0423  0.7698  0.1536
11868TIP3    H157019   2.872   0.445   3.839 -0.6030  0.5263 -0.0385
11868TIP3    H257020   2.924   0.426   3.980  0.3996  0.9457 -0.3482
11869TIP3   OH257021   4.972   6.730   1.230  0.9945  0.5031  0.0600
11869TIP3    H157022   5.064   6.704   1.224  0.2648 -2.0850 -0.6011
11869TIP3    H257023   4.929   6.657   1.273 -0.8030  1.6355  0.2350
11870TIP3   OH257024   5.510   2.034  16.520  0.3812 -0.2574  0.1392
11870TIP3    H157025   5.472   2.097  16.582  0.7490 -1.0929  1.2202
11870TIP3    H257026   5.438   1.975  16.499  0.8083 -1.2619  1.4435
11871TIP3   OH257027   1.020   3.117  12.464  0.5122 -0.3012  0.1335
11871TIP3    H157028   1.086   3.062  12.422  0.2679 -1.0463  0.7255
11871TIP3    H257029   1.065   3.153  12.541 -0.2341 -2.0775  1.4432
11872TIP3   OH257030   1.525   1.577   4.369 -0.5919 -0.5455 -0.1666
11872TIP3    H157031   1.601   1.585   4.310  0.1273  0.2271  0.8498
11872TIP3    H257032   1.550   1.509   4.431  1.2544  2.9028  3.0540
11873TIP3   OH257033   3.385   6.380  12.111 -0.4124  0.6397 -0.5757
11873TIP3    H157034   3.305   6.368  12.059 -0.0651 -2.0436 -0.5627
11873TIP3    H257035   3.449   6.413  12.048 -1.0108  1.0087 -1.0043
11874TIP3   OH257036   4.259   5.948   0.829  0.4006  0.0846 -0.4647
11874TIP3    H157037   4.247   6.043   0.828 -1.2343 -0.1183 -1.3232
11874TIP3    H257038   4.176   5.912   0.798  0.4477 -1.6966  1.3098
11875TIP3   OH257039   0.326   0.898   2.049 -0.6660  0.1641 -0.2092
11875TIP3    H157040   0.412   0.921   2.084 -0.1180 -0.2888 -1.2487
11875TIP3    H257041   0.345   0.847   1.970 -1.8953  0.6308 -0.8082
11876TIP3   OH257042   4.723   0.632   5.944 -0.2667  0.2342  0.2552
11876TIP3    H157043   4.768   0.603   6.024 -0.2370  1.4819  0.6896
11876TIP3    H257044   4.656   0.565   5.930  2.1628 -2.1152 -0.8387
11877TIP3   OH257045   4.867   4.229   3.322  0.4548  0.3080  0.0094
11877TIP3    H157046   4.872   4.138   3.293  0.2848  0.6582 -1.1492
11877TIP3    H257047   4.896   4.280   3.246  0.8430  1.2001  0.7558
11878TIP3   OH257048   3.068   0.178  14.482  0.4337 -0.5811  1.0945
11878TIP3    H157049   3.163   0.178  14.470  0.1138  0.6255 -2.1303
11878TIP3    H257050   3.045   0.271  14.490 -0.5095 -0.8409  1.4419
11879TIP3   OH257051   4.385   6.737   1.320  1.1866 -0.7201 -0.5324
11879TIP3    H157052   4.358   6.646   1.324 -0.7069 -0.1326  1.0291
11879TIP3    H257053   4.328   6.776   1.253  0.3365 -0.1836  0.4833
11880TIP3   OH257054   2.885   1.006   0.253 -0.3267  0.0474 -0.6603
11880TIP3    H157055   2.948   1.077   0.237 -1.6893  1.0070 -1.9174
11880TIP3    H257056   2.827   1.008   0.177 -2.5438 -0.1171  0.9901
11881TIP3   OH257057   5.070   3.252   1.615  0.3119  0.0387  0.3874
11881TIP3    H157058   5.133   3.182   1.629  0.3185 -0.0089  0.1361
11881TIP3    H257059   5.036   3.236   1.526 -1.4029 -1.0012  1.2076
11882TIP3   OH257060   2.147   6.373  16.687  0.2079  0.1573  0.2348
11882TIP3    H157061   2.072   6.431  16.705 -0.7533 -1.0287  0.1529
11882TIP3    H257062   2.209   6.429  16.640 -0.3063  1.3669  0.9513
11883TIP3   OH257063   0.976   2.301   2.211  0.2007  0.1123 -0.4490
11883TIP3    H157064   0.971   2.299   2.307 -0.2469  0.2967 -0.4648
11883TIP3    H257065   1.002   2.213   2.186 -1.8786 -0.5722 -0.2724
11884TIP3   OH257066   2.928   6.474   4.283  0.2716 -0.4059 -0.1194
11884TIP3    H157067   2.936   6.389   4.241  0.4468 -0.1256 -0.6530
11884TIP3    H257068   3.008   6.483   4.334 -0.7258 -1.5206  1.7054
11885TIP3   OH257069   4.070   2.942  13.738 -0.0133 -0.0153 -0.1503
11885TIP3    H157070   4.049   3.034  13.725  1.7418  0.2003 -1.7227
11885TIP3    H257071   4.069   2.905  13.649  1.2054 -1.0637  0.2533
11886TIP3   OH257072   6.551   0.713  11.517 -0.3762  0.0106  0.2955
11886TIP3    H157073   6.555   0.631  11.566 -1.0268 -0.0561  0.2420
11886TIP3    H257074   6.580   0.689  11.428 -2.2180 -0.5368 -0.1833
11887TIP3   OH257075   5.007   5.955  12.262 -0.9343 -0.5860  0.6179
11887TIP3    H157076   4.998   5.908  12.345 -0.2176 -0.6188  0.6810
11887TIP3    H257077   4.963   6.038  12.276 -1.0075 -0.6843  0.9634
11888TIP3   OH257078   2.380   0.354   5.158  0.0597  0.4686  0.1878
11888TIP3    H157079   2.428   0.287   5.206 -0.3028 -1.5594 -2.1807
11888TIP3    H257080   2.428   0.435   5.174  2.2227 -0.8919  0.7155
11889TIP3   OH257081   0.462   0.257   5.244  0.3435 -0.4509 -0.2087
11889TIP3    H157082   0.544   0.306   5.245 -1.1143  2.0545  0.3486
11889TIP3    H257083   0.455   0.222   5.155  1.4623  0.2601 -0.5798
11890TIP3   OH257084   4.008   5.434  15.783  0.0217 -0.0876  0.0781
11890TIP3    H157085   3.934   5.386  15.818  0.3066 -0.6458 -0.0828
11890TIP3    H257086   4.024   5.504  15.847 -2.2756  1.6542 -1.1869
11891TIP3   OH257087   6.081   6.601  13.267  0.4310  0.4303 -0.5828
11891TIP3    H157088   6.030   6.646  13.334 -0.0183 -0.9398  0.0132
11891TIP3    H257089   6.123   6.528  13.313 -1.5637 -1.8010 -2.1678
11892TIP3   OH257090   0.508   4.165   0.389 -0.2158 -0.1511 -0.2875
11892TIP3    H157091   0.428   4.216   0.374  0.2630  0.2056 -1.6954
11892TIP3    H257092   0.478   4.075   0.399 -0.8571  0.0843 -0.0945
11893TIP3   OH257093   1.831   5.438  11.588 -0.0621  0.4981 -0.2440
11893TIP3    H157094   1.803   5.459  11.677 -1.9374 -0.6725 -0.5184
11893TIP3    H257095   1.793   5.507  11.534 -0.7633 -0.0026 -0.3905
11894TIP3   OH257096   1.419   2.087   4.787 -0.1012  0.0619 -0.3687
11894TIP3    H157097   1.352   2.074   4.853  0.0639  0.9559 -0.0186
11894TIP3    H257098   1.494   2.121   4.835 -0.6780  2.7735 -1.2985
11895TIP3   OH257099   6.384   3.158  13.427  0.4957  0.0482  0.2065
11895TIP3    H157100   6.465   3.208  13.414  0.0366  1.0485  1.1251
11895TIP3    H257101   6.358   3.177  13.517 -1.3990  0.7110 -0.4455
11896TIP3   OH257102   6.390   0.718   3.683 -0.0620  0.2158 -0.4613
11896TIP3    H157103   6.407   0.795   3.738  0.0948  0.3664 -0.7170
11896TIP3    H257104   6.309   0.740   3.636 -0.2147  0.0724 -0.2645
11897TIP3   OH257105   4.446   0.601  10.324 -0.4943  0.1648 -0.4208
11897TIP3    H157106   4.489   0.519  10.347 -0.5962  0.3431  0.4205
11897TIP3    H257107   4.363   0.599  10.371 -1.0257  0.2186 -1.3453
11898TIP3   OH257108   5.574   3.908   3.960  0.0477  0.0988  0.4468
11898TIP3    H157109   5.489   3.882   3.994 -0.2903  0.9812  0.2630
11898TIP3    H257110   5.580   3.863   3.875  0.0390 -0.4625  0.7360
11899TIP3   OH257111   6.701   1.624  15.596  0.1399  0.2011 -0.3124
11899TIP3    H157112   6.781   1.609  15.546  0.1908  1.0338 -0.4943
11899TIP3    H257113   6.729   1.628  15.687  0.1244 -0.7606 -0.2554
11900TIP3   OH257114   5.439   2.883   0.112  0.0978  0.1556  0.1158
11900TIP3    H157115   5.424   2.812   0.175  0.6700 -0.1806 -0.1152
11900TIP3    H257116   5.529   2.868   0.081 -0.6704 -0.5313 -1.8607
11901TIP3   OH257117   3.773   1.727   0.090  0.2308  0.0739 -0.0779
11901TIP3    H157118   3.822   1.778   0.154  1.2987  0.1803 -0.9616
11901TIP3    H257119   3.825   1.648   0.078 -0.5713 -0.4755  0.0582
11902TIP3   OH257120   0.056   5.060  16.686 -0.0288 -0.1573 -0.7872
11902TIP3    H157121   0.058   5.125  16.616  1.7133  0.0576 -0.5489
11902TIP3    H257122   0.144   5.061  16.723 -0.6886 -0.8926  0.8488
11903TIP3   OH257123   5.862   1.325   0.771 -0.1664  0.1740  0.4014
11903TIP3    H157124   5.946   1.350   0.808 -0.8223  0.2633  1.8903
11903TIP3    H257125   5.841   1.241   0.813 -1.3432  0.7183  0.9336
11904TIP3   OH257126   1.352   2.726   5.063  0.0149  0.7530 -0.3531
11904TIP3    H157127   1.278   2.690   5.110 -0.6584  0.5758 -1.5156
11904TIP3    H257128   1.416   2.655   5.061  0.6143  1.2158  1.4641
11905TIP3   OH257129   1.722   2.979   0.021  0.0179 -0.7425  0.0435
11905TIP3    H157130   1.729   3.072  -0.005  1.5769 -1.0087 -0.5471
11905TIP3    H257131   1.636   2.952  -0.011 -0.7940  0.7143  0.9396
11906TIP3   OH257132   2.055   5.921   3.150 -0.0566  0.2529 -0.0183
11906TIP3    H157133   2.040   5.854   3.216  1.4293  0.2290  0.3132
11906TIP3    H257134   2.012   5.887   3.071  0.7085 -1.1221  0.1360
11907TIP3   OH257135   0.533   2.964   0.694 -0.3555  0.1031  0.2475
11907TIP3    H157136   0.459   2.937   0.749  0.5709  0.9883  1.9707
11907TIP3    H257137   0.561   2.884   0.650 -1.8175 -0.4027  0.1923
11908TIP3   OH257138   4.913   2.328  14.001  0.2862 -0.4382 -0.0873
11908TIP3    H157139   4.818   2.323  14.005  0.2025  0.0463 -1.1917
11908TIP3    H257140   4.941   2.237  13.987  0.0538 -0.7290  1.3270
11909TIP3   OH257141   2.734   5.846  16.400 -0.0909  0.0881  0.3084
11909TIP3    H157142   2.725   5.805  16.313 -1.0050  1.7041 -0.3754
11909TIP3    H257143   2.825   5.874  16.404 -0.5015  1.6451 -0.8852
11910TIP3   OH257144   5.911   2.594  11.434 -0.5227 -0.1061  0.1930
11910TIP3    H157145   5.893   2.546  11.515  0.2163 -0.7571 -0.0242
11910TIP3    H257146   5.844   2.662  11.431 -0.4694  0.0169  1.4307
11911TIP3   OH257147   5.096   2.487   3.650 -0.7865 -0.1329 -0.4868
11911TIP3    H157148   5.044   2.561   3.619 -1.0578 -0.4240 -0.7271
11911TIP3    H257149   5.072   2.415   3.592  0.6769  0.0023 -1.2803
11912TIP3   OH257150   5.972   2.595  14.705 -0.0267  0.0387  0.7503
11912TIP3    H157151   5.999   2.679  14.669  0.0472  0.0178  0.7557
11912TIP3    H257152   6.000   2.530  14.640  0.1384 -0.0012  0.8628
11913TIP3   OH257153   3.256   1.499   5.223 -0.0489 -0.0815  0.4302
11913TIP3    H157154   3.192   1.562   5.256 -0.7327 -1.1291  1.1486
11913TIP3    H257155   3.236   1.418   5.270  2.1573 -0.2889  1.0547
11914TIP3   OH257156   4.079   4.108   2.460  0.0079 -0.1589 -0.3183
11914TIP3    H157157   4.002   4.110   2.517  0.0686  1.6300 -0.2835
11914TIP3    H257158   4.043   4.105   2.371 -0.1085  0.5716 -0.2979
11915TIP3   OH257159   5.663   0.369  12.107 -0.0070 -0.6134 -0.0884
11915TIP3    H157160   5.572   0.344  12.097 -0.4173  0.8134 -0.1257
11915TIP3    H257161   5.660   0.464  12.124  1.3238 -0.9762  2.3738
11916TIP3   OH257162   0.943   6.214   2.542 -0.0119 -0.2843  0.6256
11916TIP3    H157163   0.882   6.153   2.500  1.0535 -1.9550  1.4314
11916TIP3    H257164   0.900   6.240   2.623 -0.6886  0.4382  0.0396
11917TIP3   OH257165   2.771   1.262   2.211  0.3838 -0.9257  0.5836
11917TIP3    H157166   2.791   1.196   2.144 -0.0710 -0.2598 -0.2132
11917TIP3    H257167   2.697   1.312   2.175  0.7811  0.0790  1.1312
11918TIP3   OH257168   5.177   2.546  16.425  0.0309  0.5412 -0.4026
11918TIP3    H157169   5.095   2.593  16.417  0.3554  1.3787  1.0607
11918TIP3    H257170   5.207   2.534  16.335 -1.1000  1.2579 -0.8766
11919TIP3   OH257171   3.935   6.732   3.811  0.1084 -0.8332  0.0470
11919TIP3    H157172   3.928   6.742   3.906  1.0364 -0.6945  0.1022
11919TIP3    H257173   3.933   6.637   3.797 -0.5210 -0.8383  0.1641
11920TIP3   OH257174   2.917   3.254   3.952  0.7155 -1.0216  0.4488
11920TIP3    H157175   2.997   3.307   3.947 -0.5812  0.7809 -2.0353
11920TIP3    H257176   2.940   3.173   3.908  0.6993  0.1803 -1.8450
11921TIP3   OH257177   3.849   1.406   5.004 -0.1012  0.3328  0.4134
11921TIP3    H157178   3.835   1.342   5.074  0.6300  0.1608  0.3974
11921TIP3    H257179   3.914   1.366   4.947 -0.3058  0.7034 -0.0880
11922TIP3   OH257180   4.749   5.386  10.506 -0.4115  0.2977  0.0330
11922TIP3    H157181   4.697   5.308  10.525  1.2455 -0.5925  1.0653
11922TIP3    H257182   4.789   5.368  10.421 -1.7137  0.9567 -0.7310
11923TIP3   OH257183   0.882   6.188   0.815  0.0315 -0.0214 -0.3484
11923TIP3    H157184   0.889   6.283   0.814 -1.1393  0.0838  0.6199
11923TIP3    H257185   0.972   6.157   0.803  0.5985  1.2173  0.6073
11924TIP3   OH257186   5.288   3.054  11.852  0.6480 -0.1482  0.4015
11924TIP3    H157187   5.269   3.054  11.946  1.0270  0.5470  0.4818
11924TIP3    H257188   5.206   3.082  11.811  0.9198  0.9947  0.6227
11925TIP3   OH257189   4.894   3.799  11.596 -0.5252  0.7071  0.1081
11925TIP3    H157190   4.804   3.830  11.594 -0.4310  0.9133 -1.1184
11925TIP3    H257191   4.886   3.704  11.588 -0.5681  0.8502 -1.7227
11926TIP3   OH257192   5.342   2.231   0.581 -0.2045  0.3246  0.2454
11926TIP3    H157193   5.288   2.280   0.644 -0.6318  0.0434  0.0982
11926TIP3    H257194   5.412   2.292   0.558  0.5273  0.0696  1.7532
11927TIP3   OH257195   0.295   0.118  12.780 -0.4626 -0.2060  0.8250
11927TIP3    H157196   0.359   0.073  12.836  0.3179 -0.2181 -0.0682
11927TIP3    H257197   0.315   0.211  12.791 -0.2538 -0.2132  0.4906
11928TIP3   OH257198   0.565   3.159  13.342 -0.6111  0.3178 -0.1561
11928TIP3    H157199   0.575   3.079  13.291  1.5088  1.0366 -0.9605
11928TIP3    H257200   0.654   3.196  13.345 -0.8952  0.8723  3.1132
11929TIP3   OH257201   1.074   5.493   5.544  0.0221  0.1631  0.0805
11929TIP3    H157202   1.147   5.466   5.488 -2.1032  0.3324 -2.9058
11929TIP3    H257203   1.026   5.413   5.563 -1.0203  0.5235 -0.9775
11930TIP3   OH257204   4.559   0.294   1.374 -0.4488 -0.5445 -0.0135
11930TIP3    H157205   4.583   0.248   1.293  0.7592 -0.6812  0.4150
11930TIP3    H257206   4.636   0.346   1.396 -1.2794  0.5491  0.3138
11931TIP3   OH257207   5.226   6.577   5.296  0.5613  0.0728  0.7512
11931TIP3    H157208   5.249   6.572   5.389  0.7733  2.0128  0.8291
11931TIP3    H257209   5.250   6.666   5.270  0.4582 -0.4256 -1.1557
11932TIP3   OH257210   1.482   2.130   4.220  0.3642 -0.6038 -0.0860
11932TIP3    H157211   1.388   2.113   4.219  0.0353  1.0136  1.0555
11932TIP3    H257212   1.521   2.048   4.250 -0.6655 -1.3369 -0.7268
11933TIP3   OH257213   0.997   1.918   3.864 -0.5064  0.4497 -0.3444
11933TIP3    H157214   1.054   1.919   3.941  1.0648  0.3403 -1.4698
11933TIP3    H257215   1.008   1.830   3.828  1.7362  1.6825 -2.8100
11934TIP3   OH257216   3.435   0.781  10.934 -0.0763  0.2746 -0.7751
11934TIP3    H157217   3.508   0.830  10.972  0.1953 -0.1857 -0.7046
11934TIP3    H257218   3.444   0.795  10.840  0.4182 -0.2187 -0.8045
11935TIP3   OH257219   6.043   1.945   1.595 -0.1116  0.0961  0.0173
11935TIP3    H157220   6.120   1.926   1.648  0.3386 -0.7925 -0.9332
11935TIP3    H257221   6.026   1.864   1.547 -0.6406  0.8106 -1.0204
11936TIP3   OH257222   0.794   4.505  17.015  0.0907 -0.0726  0.1238
11936TIP3    H157223   0.872   4.534  16.967  0.5032  0.0606  0.8666
11936TIP3    H257224   0.732   4.481  16.947  0.9510 -0.6346 -0.4779
11937TIP3   OH257225   6.390   2.094   2.224  0.6737  0.1134 -0.4999
11937TIP3    H157226   6.361   2.181   2.250  0.3406  0.1803 -1.0867
11937TIP3    H257227   6.484   2.094   2.240  0.2888 -0.2519  1.8366
11938TIP3   OH257228   5.831   2.866   5.997 -0.3841  0.0975 -0.3062
11938TIP3    H157229   5.890   2.941   6.005 -0.8475  0.2268  2.4111
11938TIP3    H257230   5.745   2.904   5.980 -0.4731  0.1432  0.2420
11939TIP3   OH257231   3.457   5.699   2.383 -0.2188  0.4106  0.1872
11939TIP3    H157232   3.451   5.755   2.461  2.3722 -0.4940  1.0750
11939TIP3    H257233   3.429   5.613   2.412  2.1346 -0.2704  0.5236
11940TIP3   OH257234   3.686   3.947  15.796 -0.2852 -0.6088 -0.4527
11940TIP3    H157235   3.708   3.914  15.883  1.8442 -2.0110 -1.4773
11940TIP3    H257236   3.689   4.042  15.805  2.9167 -0.7075  0.3618
11941TIP3   OH257237   1.438   1.549  12.688 -0.1380 -0.1874 -0.0815
11941TIP3    H157238   1.478   1.584  12.768  0.1884 -0.9880  0.1061
11941TIP3    H257239   1.512   1.521  12.634 -0.3847 -0.2935 -0.3649
11942TIP3   OH257240   4.129   5.063   2.036  0.1350 -0.1367  0.0139
11942TIP3    H157241   4.128   5.046   2.130  1.9073 -0.1758  0.0415
11942TIP3    H257242   4.146   5.157   2.029 -0.6312 -0.0155 -0.2699
11943TIP3   OH257243   6.255   5.101  14.517  0.3004  0.1198  0.4072
11943TIP3    H157244   6.190   5.036  14.543 -1.1246  0.9960 -0.8596
11943TIP3    H257245   6.208   5.158  14.456  1.9534  1.4390  0.3436
11944TIP3   OH257246   5.591   6.180  16.641 -0.2595  0.0145  0.1592
11944TIP3    H157247   5.612   6.160  16.732  0.0403  1.2120  0.3606
11944TIP3    H257248   5.618   6.271  16.629 -1.3379  0.2200 -0.8105
11945TIP3   OH257249   3.570   5.159   1.107  0.2407 -0.5840  0.2113
11945TIP3    H157250   3.632   5.217   1.152  0.3386 -0.3608 -0.2095
11945TIP3    H257251   3.542   5.208   1.030 -1.4068 -0.1717  1.0316
11946TIP3   OH257252   0.010   2.461   3.445  0.2808  0.0818  0.2982
11946TIP3    H157253   0.092   2.480   3.400  0.6428 -0.8977  0.5236
11946TIP3    H257254  -0.057   2.503   3.391  0.6961 -1.1121 -1.2147
11947TIP3   OH257255   1.317   5.240  16.936  0.7105  0.0610 -0.0752
11947TIP3    H157256   1.349   5.185  16.864  0.1967  1.4564 -1.4029
11947TIP3    H257257   1.358   5.325  16.922  0.7251  0.3114  1.3945
11948TIP3   OH257258   1.599   2.388  15.065  0.0723  0.6268  0.4026
11948TIP3    H157259   1.653   2.313  15.089  1.6949  1.6759  0.1314
11948TIP3    H257260   1.593   2.384  14.969 -2.0886 -0.6476  0.5609
11949TIP3   OH257261   4.015   3.708  14.781 -0.2579  0.1796  0.0364
11949TIP3    H157262   3.921   3.691  14.776 -0.2294  0.1541 -0.5034
11949TIP3    H257263   4.056   3.622  14.771 -0.1636  0.2886 -0.5962
11950TIP3   OH257264   0.011   0.973   3.704  0.3172  0.7766  0.2100
11950TIP3    H157265  -0.029   0.990   3.619 -0.0028 -0.2898  0.1306
11950TIP3    H257266  -0.041   1.024   3.766 -2.9165 -2.5903  0.4597
11951TIP3   OH257267   0.640   6.158   0.944  0.0890 -1.1667 -0.2200
11951TIP3    H157268   0.592   6.234   0.910 -0.0732 -1.1987 -0.0670
11951TIP3    H257269   0.731   6.174   0.920 -0.0482 -1.2751 -0.8302
11952TIP3   OH257270   6.687   3.737   1.097  0.3419  0.1669 -0.3411
11952TIP3    H157271   6.751   3.759   1.029  0.9145  0.2342  0.2176
11952TIP3    H257272   6.692   3.642   1.104 -0.7034  0.0209 -1.3496
11953TIP3   OH257273   2.317   5.222  15.278  0.4631  0.7326  0.4899
11953TIP3    H157274   2.316   5.225  15.182 -1.1377  1.2482  0.5178
11953TIP3    H257275   2.301   5.129  15.298  3.2525  0.1492  0.2545
11954TIP3   OH257276   3.409   0.823  15.862  0.3318  0.4195 -0.7276
11954TIP3    H157277   3.336   0.825  15.799 -1.0136 -0.3382  0.7722
11954TIP3    H257278   3.440   0.732  15.860  0.8141  0.5869 -0.8809
11955TIP3   OH257279   2.238   5.649   6.156 -0.6485 -0.3616 -0.4861
11955TIP3    H157280   2.237   5.738   6.122 -1.8940 -0.4131 -0.5907
11955TIP3    H257281   2.154   5.612   6.130 -0.0090 -1.6794 -0.7257
11956TIP3   OH257282   0.671   2.994  16.675  0.1836  0.4033 -0.4130
11956TIP3    H157283   0.606   2.974  16.742  1.8360  0.2461  1.1621
11956TIP3    H257284   0.683   3.089  16.680 -0.0403  0.4571 -0.8308
11957TIP3   OH257285   0.502   3.901  17.114 -0.5498  0.0362  0.0419
11957TIP3    H157286   0.493   3.968  17.182 -0.0070 -0.1011  0.2582
11957TIP3    H257287   0.550   3.830  17.157  0.9568  0.4974 -0.8530
11958TIP3   OH257288   0.672   2.061   0.829 -0.1327 -0.7020 -0.8728
11958TIP3    H157289   0.585   2.074   0.790 -0.4951  0.7831  0.3858
11958TIP3    H257290   0.732   2.105   0.768 -0.6633  1.3172 -0.0096
11959TIP3   OH257291   4.486   3.348  14.106  0.0944 -0.0811  0.1822
11959TIP3    H157292   4.576   3.359  14.078  0.2023  1.0404  0.9158
11959TIP3    H257293   4.438   3.417  14.060 -0.4559 -0.8930 -0.4755
11960TIP3   OH257294   1.312   5.523   4.335  0.3427  0.4106 -0.1244
11960TIP3    H157295   1.313   5.456   4.403 -1.2724  1.3389  0.8520
11960TIP3    H257296   1.265   5.483   4.262  2.1173 -0.6012 -0.7587
11961TIP3   OH257297   5.040   0.993  14.737  0.3165 -0.3990  0.4017
11961TIP3    H157298   4.991   0.916  14.706  1.4014 -1.3235  0.9243
11961TIP3    H257299   4.983   1.067  14.718 -1.2552 -1.4440  0.9475
11962TIP3   OH257300   0.576   4.432   6.870  0.1420 -0.1497  0.0215
11962TIP3    H157301   0.585   4.494   6.798 -0.7321  0.1141  0.1408
11962TIP3    H257302   0.552   4.486   6.946  2.5618 -0.2156  0.8861
11963TIP3   OH257303   5.992   3.245  11.342 -0.3547 -0.1988  0.2341
11963TIP3    H157304   6.063   3.304  11.369 -0.7134  0.5893 -0.5028
11963TIP3    H257305   5.920   3.264  11.402 -0.5167  0.2279 -0.0873
11964TIP3   OH257306   5.470   0.439   2.804 -0.8383 -0.4718 -0.2166
11964TIP3    H157307   5.531   0.513   2.809  1.8991 -2.6509 -0.2881
11964TIP3    H257308   5.474   0.411   2.713 -1.8500 -0.7237 -0.1881
11965TIP3   OH257309   0.377   4.318   6.131 -0.2895  1.0378 -0.4396
11965TIP3    H157310   0.288   4.306   6.163 -0.2532  0.6510 -0.4847
11965TIP3    H257311   0.432   4.268   6.192 -0.1882  0.5627 -0.9176
11966TIP3   OH257312   0.307   4.097   1.638  0.4171 -0.0008  0.6165
11966TIP3    H157313   0.237   4.035   1.661 -0.8315  0.8816 -0.6886
11966TIP3    H257314   0.321   4.085   1.545  0.8269  1.0134  0.5350
11967TIP3   OH257315   0.520   3.069  14.337  0.0111  0.2789 -0.3356
11967TIP3    H157316   0.522   2.977  14.310 -1.8544  0.3437 -0.7721
11967TIP3    H257317   0.544   3.118  14.259  0.2431  0.2072 -0.3104
11968TIP3   OH257318   6.475   2.435  14.162 -0.1620  0.1136 -0.3599
11968TIP3    H157319   6.487   2.473  14.075  0.4679 -1.1451 -0.8408
11968TIP3    H257320   6.515   2.348  14.156  2.0041  0.8910  1.8745
11969TIP3   OH257321   6.346   3.347   2.130 -0.2244 -0.7649 -0.6158
11969TIP3    H157322   6.280   3.380   2.191  1.1388 -0.6244  0.8046
11969TIP3    H257323   6.399   3.288   2.182  0.9628 -0.6510 -1.6833
11970TIP3   OH257324   3.317   5.030   1.289 -0.2145  0.1529  0.5697
11970TIP3    H157325   3.384   5.039   1.357  1.0585 -1.0844 -0.5191
11970TIP3    H257326   3.336   5.100   1.227 -0.3790  0.2570  0.6360
11971TIP3   OH257327   5.225   2.625   2.870 -0.0013  0.1767 -0.3611
11971TIP3    H157328   5.142   2.656   2.834 -0.2534 -1.9379 -1.6694
11971TIP3    H257329   5.287   2.629   2.797  0.5845 -0.0226  0.1165
11972TIP3   OH257330   4.987   2.035  14.768  0.8196 -1.0772  0.0655
11972TIP3    H157331   5.043   2.044  14.692 -0.0510 -1.1463 -0.5899
11972TIP3    H257332   4.947   2.121  14.780  2.0164 -0.6641  1.2998
11973TIP3   OH257333   5.181   6.415  13.866 -0.0283  0.1192 -0.2926
11973TIP3    H157334   5.224   6.359  13.931 -0.4236  0.1838  0.0308
11973TIP3    H257335   5.252   6.446  13.810  0.2605 -0.2847 -0.1531
11974TIP3   OH257336   0.895   4.812   4.410 -0.1804  0.4952  0.3211
11974TIP3    H157337   0.855   4.734   4.450 -0.1468 -0.7428 -1.9876
11974TIP3    H257338   0.821   4.865   4.383 -0.2619 -0.1323 -0.7353
11975TIP3   OH257339   1.621   2.721  15.018  0.3601  0.1761  0.1267
11975TIP3    H157340   1.543   2.671  14.992 -0.0705  0.4691  0.8389
11975TIP3    H257341   1.694   2.677  14.974  0.0334 -1.3293  1.0681
11976TIP3   OH257342   0.247   5.830  13.691  0.0519 -0.2418  0.0538
11976TIP3    H157343   0.208   5.806  13.775 -0.1480  2.3769  0.7499
11976TIP3    H257344   0.323   5.883  13.714  0.3278  0.0248 -1.4294
11977TIP3   OH257345   4.444   1.484  12.512 -0.2371 -0.4743 -0.2157
11977TIP3    H157346   4.403   1.539  12.579  1.1110 -1.2911  1.3021
11977TIP3    H257347   4.525   1.531  12.489  0.1944 -1.0921  0.0345
11978TIP3   OH257348   3.165   6.426  14.071  0.3447 -0.1862  0.2409
11978TIP3    H157349   3.251   6.429  14.028 -0.1869 -0.0178 -0.8405
11978TIP3    H257350   3.133   6.337  14.053  0.0058 -0.0276  0.0493
11979TIP3   OH257351   4.619   3.685   0.225  0.2708  0.4873  0.1062
11979TIP3    H157352   4.565   3.613   0.257 -0.6154  0.0976 -2.1833
11979TIP3    H257353   4.564   3.762   0.234 -0.8167  0.0604 -2.4219
11980TIP3   OH257354   4.173   4.207  12.051 -0.0512  0.4401 -0.1298
11980TIP3    H157355   4.186   4.201  12.146 -0.1943  0.9801 -0.0702
11980TIP3    H257356   4.122   4.288  12.040 -0.1533  0.3018 -0.6538
11981TIP3   OH257357   1.140   6.598  15.515 -0.0558 -0.9502 -0.3829
11981TIP3    H157358   1.167   6.641  15.434  0.7929  0.1875  0.4869
11981TIP3    H257359   1.221   6.561  15.550 -0.6315 -2.5380 -0.6760
11982TIP3   OH257360   5.376   0.791  11.858  1.0037  0.8022 -0.0028
11982TIP3    H157361   5.419   0.707  11.843  0.5797  0.5118  0.3861
11982TIP3    H257362   5.295   0.768  11.904  1.1610  1.4712  0.6141
11983TIP3   OH257363   4.707   5.506   0.419  0.4429 -0.2624  0.0270
11983TIP3    H157364   4.737   5.512   0.328  2.5731 -0.5129  0.6942
11983TIP3    H257365   4.691   5.413   0.433  1.9623 -0.4605  0.4785
11984TIP3   OH257366   3.208   4.820   1.523  0.4043 -0.2989 -0.1713
11984TIP3    H157367   3.194   4.893   1.463  2.7247  0.3859  0.0906
11984TIP3    H257368   3.181   4.853   1.608  0.3781 -0.1389 -0.2412
11985TIP3   OH257369   2.850   5.637   6.533  0.3784  0.3235  0.0318
11985TIP3    H157370   2.872   5.703   6.598  0.7970  0.7671 -0.5537
11985TIP3    H257371   2.822   5.687   6.456  0.6969 -0.1757 -0.4193
11986TIP3   OH257372   4.635   4.584  15.131 -0.5577  0.6264  0.1219
11986TIP3    H157373   4.636   4.608  15.223  0.1984 -0.5433  0.4291
11986TIP3    H257374   4.662   4.492  15.130  0.4215  0.9108 -1.3441
11987TIP3   OH257375   2.207   1.820  11.865 -0.2125  0.1331  0.5972
11987TIP3    H157376   2.278   1.816  11.800 -0.3013  2.3637  0.3226
11987TIP3    H257377   2.234   1.889  11.926  0.3929 -2.6787  3.6209
11988TIP3   OH257378   3.933   0.961   1.343 -0.0928  0.2488 -0.3631
11988TIP3    H157379   4.007   1.010   1.306  0.6243  1.7442  2.9226
11988TIP3    H257380   3.864   1.027   1.353 -0.7044 -0.4141 -0.2188
11989TIP3   OH257381   1.663   0.245   4.016 -0.1554  0.2603  0.1913
11989TIP3    H157382   1.609   0.250   4.094  0.2223  0.8343  0.4159
11989TIP3    H257383   1.750   0.271   4.045  0.0743  0.0884 -0.3339
11990TIP3   OH257384   1.854   3.588   3.624  0.7115  0.0934 -0.0148
11990TIP3    H157385   1.773   3.596   3.574  0.9916 -0.7794 -0.6360
11990TIP3    H257386   1.851   3.659   3.688  0.4955  1.4338 -1.4911
11991TIP3   OH257387   6.770   3.207  14.487  0.3794 -0.0531  0.3876
11991TIP3    H157388   6.701   3.209  14.553  0.0432  1.1779  0.0081
11991TIP3    H257389   6.770   3.295  14.449  2.5738  0.1634  0.8007
11992TIP3   OH257390   3.359   5.422   2.496 -0.1411  0.0219  0.2032
11992TIP3    H157391   3.364   5.326   2.493  1.5413  0.1332 -3.5741
11992TIP3    H257392   3.267   5.441   2.473 -0.2447 -0.6779  0.0106
11993TIP3   OH257393   4.443   1.322  14.410 -0.3475 -0.3226  0.2938
11993TIP3    H157394   4.390   1.298  14.334 -0.7890 -2.2835  1.1852
11993TIP3    H257395   4.528   1.282  14.394  0.3769  1.4103 -0.3399
11994TIP3   OH257396   5.115   1.133  14.082 -0.0244  0.5322 -0.0954
11994TIP3    H157397   5.115   1.210  14.139 -1.5577 -0.2012  0.9396
11994TIP3    H257398   5.160   1.065  14.132 -0.9888  0.0136  0.0842
11995TIP3   OH257399   3.623   2.721   1.596  0.6907  0.0904 -0.1015
11995TIP3    H157400   3.585   2.714   1.684 -0.0310  2.3021 -0.2245
11995TIP3    H257401   3.708   2.762   1.610  1.6254 -1.7535 -0.2018
11996TIP3   OH257402   2.759   5.783  16.134 -0.3458  0.0185 -0.3643
11996TIP3    H157403   2.691   5.848  16.113  0.5049  1.0233 -0.0894
11996TIP3    H257404   2.840   5.825  16.106  0.2206 -0.9523 -0.1850
11997TIP3   OH257405   2.581   2.557  16.996  0.0060 -0.1270 -0.0179
11997TIP3    H157406   2.598   2.642  17.036 -1.4725 -0.3499  1.0811
11997TIP3    H257407   2.661   2.538  16.947  0.5313  1.6739  0.1082
11998TIP3   OH257408   2.917   1.674  12.945 -0.0583  0.4671  0.0779
11998TIP3    H157409   2.860   1.634  12.880 -0.1564 -0.3369  0.6503
11998TIP3    H257410   2.871   1.753  12.973 -1.5854 -0.9220  1.5790
11999TIP3   OH257411   0.451   1.555  15.501  0.2334 -0.0770  0.3531
11999TIP3    H157412   0.494   1.483  15.455 -0.6881 -0.2751 -0.2244
11999TIP3    H257413   0.500   1.633  15.476  0.5789 -0.3643  0.1220
12000TIP3   OH257414   5.026   4.234  11.026 -0.1705 -0.2029  0.1099
12000TIP3    H157415   4.966   4.189  11.085  2.6596 -2.5616  1.3185
12000TIP3    H257416   5.031   4.179  10.948 -1.9505  1.6263 -1.3758
12001TIP3   OH257417   3.699   6.771   3.667 -0.5356  0.0254 -0.1416
12001TIP3    H157418   3.776   6.764   3.723 -0.5378  1.3716  0.0398
12001TIP3    H257419   3.731   6.748   3.579  0.2791  1.3599 -0.2187
12002TIP3   OH257420   2.747   5.848  13.818 -0.1018  1.0853  0.2260
12002TIP3    H157421   2.707   5.857  13.904  0.1511  1.5208  0.3002
12002TIP3    H257422   2.840   5.866  13.833  0.8165 -3.4831  0.7550
12003TIP3   OH257423   0.680   0.162  15.038  0.2402  0.3975 -0.2125
12003TIP3    H157424   0.650   0.102  15.107 -0.7956  1.0267 -0.1029
12003TIP3    H257425   0.688   0.107  14.960  1.8052 -0.3992  0.5051
12004TIP3   OH257426   1.555   1.585  16.218  0.5062  0.0006 -0.1266
12004TIP3    H157427   1.592   1.542  16.141 -2.1197  1.7512 -2.4508
12004TIP3    H257428   1.566   1.521  16.289  0.7697 -2.6569 -2.4822
12005TIP3   OH257429   5.739   6.500  14.769  0.5568  0.0679  0.0904
12005TIP3    H157430   5.832   6.503  14.745  0.6153  2.4278  0.4779
12005TIP3    H257431   5.727   6.413  14.808  2.1601 -0.9647 -1.6387
12006TIP3   OH257432   0.154   4.176   3.262  0.9317  0.1552 -0.2101
12006TIP3    H157433   0.247   4.196   3.271  0.9169  0.1608 -0.0687
12006TIP3    H257434   0.127   4.222   3.182  0.8466  0.8831  0.2393
12007TIP3   OH257435   4.732   1.955   0.441  0.5885 -0.1784  0.2288
12007TIP3    H157436   4.783   2.035   0.430 -0.8468  0.8024  0.5884
12007TIP3    H257437   4.751   1.903   0.363  3.0016 -0.3381  0.8668
12008TIP3   OH257438   1.034   0.550   5.371  0.1143  0.1690 -0.3356
12008TIP3    H157439   0.950   0.585   5.402 -0.4149 -2.4358  1.2992
12008TIP3    H257440   1.085   0.536   5.450  1.8245  0.9432 -1.2661
12009TIP3   OH257441   2.965   2.765  12.828 -0.0987 -0.3352  0.0294
12009TIP3    H157442   2.972   2.860  12.834 -1.3078 -0.1778 -0.8121
12009TIP3    H257443   2.993   2.745  12.738 -0.1723 -0.7319  0.0932
12010TIP3   OH257444   1.856   1.208   3.648  0.0775  0.2826  0.0069
12010TIP3    H157445   1.905   1.283   3.615  1.8541 -0.1849  1.4966
12010TIP3    H257446   1.918   1.160   3.702 -1.4934 -1.3894  0.4031
12011TIP3   OH257447   2.224   5.101  14.161 -0.2657 -0.3529  0.2924
12011TIP3    H157448   2.202   5.014  14.195  1.5344 -1.0852 -0.3485
12011TIP3    H257449   2.310   5.119  14.198 -0.0919  0.6156 -0.5952
12012TIP3   OH257450   4.530   0.712   1.545  0.7116  0.4986 -0.6042
12012TIP3    H157451   4.594   0.643   1.528 -0.3908 -0.6851 -0.0493
12012TIP3    H257452   4.455   0.666   1.582 -0.2400  1.9402 -0.7081
12013TIP3   OH257453   5.370   4.053   1.550  0.4731 -0.8322  0.0765
12013TIP3    H157454   5.390   3.959   1.541  0.1135 -1.0784  1.6652
12013TIP3    H257455   5.294   4.056   1.608  0.6710  0.4558  0.2874
12014TIP3   OH257456   0.512   2.287  11.372 -0.5834  0.5592 -0.0038
12014TIP3    H157457   0.419   2.312  11.374 -1.2280 -1.4587 -1.6730
12014TIP3    H257458   0.550   2.341  11.303 -1.0110 -0.0935 -0.7574
12015TIP3   OH257459   1.323   5.479   0.043 -0.1449  0.0543 -0.0939
12015TIP3    H157460   1.393   5.476   0.108 -1.9206  0.3826  1.8766
12015TIP3    H257461   1.350   5.547  -0.019  0.9100  0.6918  1.0558
12016TIP3   OH257462   3.193   5.496   2.959  0.0124  0.1284  0.3552
12016TIP3    H157463   3.210   5.575   2.908 -0.4206  0.2500  0.4018
12016TIP3    H257464   3.233   5.426   2.908  0.0686  0.3274  0.1277
12017TIP3   OH257465   5.463   6.341  10.497  0.1556 -0.2082  0.2982
12017TIP3    H157466   5.379   6.296  10.486 -1.1881  2.4531 -0.8038
12017TIP3    H257467   5.439   6.432  10.513  2.7832  0.1212  2.7250
12018TIP3   OH257468   3.863   1.489   0.077 -0.7729  0.0752  0.4623
12018TIP3    H157469   3.872   1.436   0.156  0.0498  1.3043  1.2072
12018TIP3    H257470   3.938   1.464   0.023  0.5344  1.6639  1.5258
12019TIP3   OH257471   2.643   4.249  12.472 -0.0593 -0.2118 -0.4846
12019TIP3    H157472   2.714   4.214  12.525 -0.5589  0.7018  0.8137
12019TIP3    H257473   2.683   4.323  12.425  0.6508 -1.6508 -2.2186
12020TIP3   OH257474   0.986   2.029  11.822 -0.1755  0.3892 -0.3676
12020TIP3    H157475   0.999   1.981  11.740 -1.2830  0.6598 -0.6985
12020TIP3    H257476   1.000   1.963  11.890 -1.9466 -0.4867 -0.8257
12021TIP3   OH257477   6.622   4.702   6.127  0.0854 -0.0973 -0.2811
12021TIP3    H157478   6.581   4.743   6.203  2.1437  0.2293  0.6647
12021TIP3    H257479   6.548   4.674   6.073 -1.4437 -1.8803  2.6345
12022TIP3   OH257480   0.059   1.723  16.526  0.5714  0.1556 -0.2340
12022TIP3    H157481   0.126   1.757  16.467  0.0363  2.0558  0.2263
12022TIP3    H257482   0.072   1.771  16.608 -0.9635  0.1033  0.0579
12023TIP3   OH257483   0.293   2.367   0.958 -0.4344 -0.5137  0.2830
12023TIP3    H157484   0.368   2.371   0.898 -1.0084  1.3636 -0.3586
12023TIP3    H257485   0.265   2.458   0.965 -0.8924 -0.8359  2.7723
12024TIP3   OH257486   6.612   5.892   5.283  0.1624  0.0669  0.1032
12024TIP3    H157487   6.545   5.908   5.217 -0.3997 -0.5368  0.5197
12024TIP3    H257488   6.671   5.828   5.242 -1.1870 -1.6814  0.8393
12025TIP3   OH257489   5.147   1.878  12.551 -0.0490  0.4860 -0.4290
12025TIP3    H157490   5.178   1.805  12.605  0.5144 -0.2212 -1.6820
12025TIP3    H257491   5.212   1.884  12.480 -2.1677 -0.3088 -2.5055
12026TIP3   OH257492   5.206   4.111  13.197  0.2704  0.4652  0.3704
12026TIP3    H157493   5.231   4.102  13.105 -0.4877 -0.4555  0.2512
12026TIP3    H257494   5.226   4.202  13.218 -0.0784  0.8366 -0.8697
12027TIP3   OH257495   1.159   4.604   2.650 -0.2119  0.0321 -0.2760
12027TIP3    H157496   1.224   4.588   2.719 -1.0944 -1.4030  0.2531
12027TIP3    H257497   1.114   4.684   2.678  0.0999  0.0114  0.3035
12028TIP3   OH257498   0.513   2.986   2.448  0.0693  0.2154 -0.5756
12028TIP3    H157499   0.482   2.905   2.487 -0.1504 -0.1559 -1.5043
12028TIP3    H257500   0.563   3.029   2.518  0.2653 -0.7596 -0.1110
12029TIP3   OH257501   0.659   0.840  14.296 -0.0292  0.0483  0.2870
12029TIP3    H157502   0.633   0.907  14.233 -1.1946 -2.5709 -2.1432
12029TIP3    H257503   0.719   0.884  14.355 -0.2635  3.0470 -1.6322
12030TIP3   OH257504   2.648   0.848  11.479 -0.7477  0.0239  0.2849
12030TIP3    H157505   2.727   0.824  11.430 -1.0647  0.5725 -0.5014
12030TIP3    H257506   2.590   0.886  11.413 -1.2341  0.6354  1.0673
12031TIP3   OH257507   1.373   2.172   0.373 -0.0130  0.3567 -0.1332
12031TIP3    H157508   1.417   2.199   0.292 -0.1764 -0.7973 -0.6086
12031TIP3    H257509   1.280   2.170   0.350 -0.0039 -0.6285 -0.1166
12032TIP3   OH257510   1.569   2.397  10.626  0.1874 -0.0751 -0.6117
12032TIP3    H157511   1.599   2.325  10.571  0.3471  1.2668 -2.3349
12032TIP3    H257512   1.609   2.381  10.711  0.3216 -1.9447 -1.0035
12033TIP3   OH257513   6.178   2.548   0.106  0.1367 -0.2501 -0.3791
12033TIP3    H157514   6.261   2.511   0.075 -0.2069  0.2353 -1.9146
12033TIP3    H257515   6.191   2.643   0.100  0.5725 -0.0932  2.3614
12034TIP3   OH257516   6.238   3.584   5.308  0.3491 -0.1822  0.3543
12034TIP3    H157517   6.209   3.494   5.319  0.2824 -0.4145 -1.5154
12034TIP3    H257518   6.160   3.637   5.324  0.0709 -0.5338  0.1482
12035TIP3   OH257519   5.235   4.795  13.618  0.3468  0.7499  0.0101
12035TIP3    H157520   5.282   4.822  13.539 -0.7700 -0.9706 -1.3021
12035TIP3    H257521   5.214   4.876  13.662 -1.7795  2.0075 -3.1206
12036TIP3   OH257522   3.488   6.158   0.154  0.8063 -0.0750 -0.1235
12036TIP3    H157523   3.474   6.164   0.060 -2.0496 -0.4808  0.2083
12036TIP3    H257524   3.582   6.146   0.165  1.2028  0.2930 -2.8891
12037TIP3   OH257525   3.462   1.654   3.553 -0.4191 -0.2165  0.1517
12037TIP3    H157526   3.389   1.592   3.556 -1.7296  1.2798 -0.2515
12037TIP3    H257527   3.486   1.658   3.460 -1.2422  0.9089 -0.0174
12038TIP3   OH257528   1.122   0.692  13.981 -0.4004  0.0002  0.2701
12038TIP3    H157529   1.178   0.722  14.052 -0.1642 -1.9587  0.9584
12038TIP3    H257530   1.088   0.772  13.941  1.2350  1.1722  1.1575
12039TIP3   OH257531   5.392   0.731   4.024 -0.4587 -0.1059 -0.3079
12039TIP3    H157532   5.412   0.649   4.069  3.4687  1.3173  0.7594
12039TIP3    H257533   5.439   0.725   3.941  1.8191  1.9472  0.7658
12040TIP3   OH257534   5.109   6.654  11.247  0.1476  0.4053  0.1003
12040TIP3    H157535   5.028   6.700  11.268 -0.9350 -1.1146 -0.6870
12040TIP3    H257536   5.097   6.566  11.283  1.4042  0.1199 -0.1344
12041TIP3   OH257537   5.837   3.236  11.565 -0.6643  0.2549  0.1271
12041TIP3    H157538   5.744   3.235  11.586 -0.5914 -1.0985  0.4257
12041TIP3    H257539   5.878   3.184  11.634  0.3299  0.9698  0.0822
12042TIP3   OH257540   6.694   3.035  15.838 -0.3747 -0.1673 -0.1841
12042TIP3    H157541   6.682   3.123  15.874  0.0043  0.3623 -1.3253
12042TIP3    H257542   6.616   2.987  15.867 -0.4397  0.4551  0.6974
12043TIP3   OH257543   5.342   2.302  14.895 -0.1003  0.0056  0.5316
12043TIP3    H157544   5.427   2.264  14.920 -0.3865 -1.2375 -0.2960
12043TIP3    H257545   5.279   2.257  14.950 -0.6855 -2.4295 -1.9834
12044TIP3   OH257546   5.615   5.980  15.524 -0.2905  0.3122 -0.0228
12044TIP3    H157547   5.539   5.968  15.466 -0.0421  0.4078 -0.3713
12044TIP3    H257548   5.690   5.968  15.466 -0.0386  0.6160  0.2446
12045TIP3   OH257549   2.939   6.143   0.494 -0.2717 -0.7449 -0.1169
12045TIP3    H157550   2.897   6.194   0.424  1.3099  1.6759  0.6434
12045TIP3    H257551   3.026   6.181   0.502 -0.1944 -1.4260  2.7171
12046TIP3   OH257552   0.294   5.486  13.942  0.7335  0.0285  0.4493
12046TIP3    H157553   0.228   5.551  13.964 -0.6971 -1.1125 -0.4060
12046TIP3    H257554   0.336   5.519  13.862 -0.8434 -0.6814 -0.6968
12047TIP3   OH257555   2.850   3.847  16.764 -0.1578 -0.0021 -0.6389
12047TIP3    H157556   2.841   3.772  16.822  1.3723 -1.0439 -1.6856
12047TIP3    H257557   2.859   3.809  16.676  1.2005  1.3535 -1.1299
12048TIP3   OH257558   6.628   2.029   5.854 -0.4740  0.3506  0.2710
12048TIP3    H157559   6.718   2.015   5.883 -0.8921 -0.1300  1.3434
12048TIP3    H257560   6.616   2.124   5.855 -0.2309  0.3750  0.8928
12049TIP3   OH257561   5.440   1.334   3.053  0.0888  0.0091  0.3965
12049TIP3    H157562   5.451   1.429   3.047 -1.2404  0.3657  3.0034
12049TIP3    H257563   5.528   1.299   3.041  1.2764  1.8138  3.3181
12050TIP3   OH257564   0.427   2.944  14.784 -0.1663 -0.0632 -0.5172
12050TIP3    H157565   0.390   2.898  14.708  1.9776 -2.0053 -0.4447
12050TIP3    H257566   0.382   2.906  14.859 -0.4334  0.0098 -0.6384
12051TIP3   OH257567   3.548   2.155   4.255  0.2301 -1.0081 -0.2106
12051TIP3    H157568   3.537   2.222   4.187  1.7478 -0.6989 -0.1501
12051TIP3    H257569   3.577   2.203   4.332  0.6898 -1.6449  0.0178
12052TIP3   OH257570   4.721   1.300  12.523  0.3200  0.1033 -0.4842
12052TIP3    H157571   4.767   1.309  12.440  1.8230 -0.3005  0.2867
12052TIP3    H257572   4.732   1.384  12.566  2.2980 -0.7360  0.6748
12053TIP3   OH257573   2.696   4.423  16.699  0.6405  0.0157  0.2085
12053TIP3    H157574   2.666   4.503  16.743 -1.6259  0.1057 -1.4084
12053TIP3    H257575   2.740   4.455  16.620 -2.1045 -0.3415 -1.5250
12054TIP3   OH257576   5.993   5.359  12.908 -0.2245 -0.7171  0.4231
12054TIP3    H157577   6.051   5.422  12.866  0.6694 -2.2465 -0.6945
12054TIP3    H257578   5.915   5.356  12.853 -0.0000 -1.0526  0.1226
12055TIP3   OH257579   3.341   3.866  13.133  0.2037 -0.2736  0.1723
12055TIP3    H157580   3.256   3.909  13.144  1.2202  1.7840  0.1090
12055TIP3    H257581   3.320   3.785  13.087 -1.9730 -0.7938  1.9553
12056TIP3   OH257582   0.771   0.194   0.413  0.4987 -0.1249  0.0268
12056TIP3    H157583   0.753   0.198   0.319 -0.0736  0.7384  0.1645
12056TIP3    H257584   0.772   0.100   0.433 -2.1814 -0.2886 -0.3373
12057TIP3   OH257585   1.307   2.029   3.860  0.1442  0.5244  0.1088
12057TIP3    H157586   1.347   2.114   3.879 -0.3367  0.8099 -0.1222
12057TIP3    H257587   1.264   2.004   3.942 -2.1596  1.8842 -0.6114
12058TIP3   OH257588   1.214   4.527   2.382 -0.1004 -0.3356 -0.3350
12058TIP3    H157589   1.201   4.439   2.347 -0.0195 -0.1286 -0.8806
12058TIP3    H257590   1.187   4.521   2.474 -2.1894 -0.3786 -0.9449
12059TIP3   OH257591   3.586   4.128   0.134 -0.1345 -0.2897  0.0213
12059TIP3    H157592   3.531   4.050   0.136 -0.5876  0.0026 -0.8956
12059TIP3    H257593   3.525   4.201   0.142  0.2270 -0.0001  0.1520
12060TIP3   OH257594   2.422   6.442  16.514 -0.2232 -0.6626  0.1673
12060TIP3    H157595   2.447   6.372  16.574  0.9941 -0.0131  0.4218
12060TIP3    H257596   2.413   6.520  16.569 -0.8595 -0.4500 -0.2240
12061TIP3   OH257597   6.687   6.111   4.866 -0.2418  0.1519  0.5296
12061TIP3    H157598   6.728   6.197   4.856  2.2941 -1.0300  0.4752
12061TIP3    H257599   6.650   6.092   4.780  1.6872 -0.0470 -0.2733
12062TIP3   OH257600   0.618   2.560  12.702  0.8988 -0.2067  0.2862
12062TIP3    H157601   0.707   2.526  12.714  1.2377  0.0753 -1.3580
12062TIP3    H257602   0.609   2.573  12.608 -1.1490 -0.9309  0.3424
12063TIP3   OH257603   5.133   4.053  11.885 -0.1188  0.2258  0.2035
12063TIP3    H157604   5.126   4.068  11.790 -0.1146 -2.0840 -0.1958
12063TIP3    H257605   5.043   4.057  11.916 -0.1397  0.8145  0.0646
12064TIP3   OH257606   3.984   6.754   2.026  0.0791 -0.2981  0.0948
12064TIP3    H157607   3.992   6.732   2.118 -0.0352 -0.4761  0.0637
12064TIP3    H257608   3.892   6.735   2.005 -0.6577  2.4185  0.6457
12065TIP3   OH257609   4.580   0.544  11.731 -0.3176 -0.2567  0.4989
12065TIP3    H157610   4.637   0.471  11.705 -1.5570 -1.2458  0.4820
12065TIP3    H257611   4.557   0.587  11.649  0.3562  0.1141  0.5021
12066TIP3   OH257612   0.025   1.908   5.511 -0.1159  0.2204  0.2222
12066TIP3    H157613   0.085   1.970   5.470 -1.0615  0.4766 -0.8188
12066TIP3    H257614  -0.006   1.952   5.590  0.4774  0.3995  0.3533
12067TIP3   OH257615   1.035   5.105   3.164 -0.5974 -0.1007  0.1649
12067TIP3    H157616   0.962   5.053   3.196 -0.1595  1.0799  3.3243
12067TIP3    H257617   1.111   5.070   3.210  0.1579  1.3794  0.0674
12068TIP3   OH257618   2.166   4.437   3.618 -0.4645  0.3885 -0.0592
12068TIP3    H157619   2.214   4.368   3.664 -0.6485 -1.2549 -2.2827
12068TIP3    H257620   2.231   4.482   3.565 -1.0848 -0.8902 -1.9399
12069TIP3   OH257621   0.611   2.363   4.424 -0.2440 -0.4740  0.4302
12069TIP3    H157622   0.566   2.444   4.447  3.2161  1.1144  1.9502
12069TIP3    H257623   0.584   2.301   4.492 -1.7476 -0.1793  0.1163
12070TIP3   OH257624   6.156   3.746   3.961 -0.8072 -0.1435 -0.3607
12070TIP3    H157625   6.080   3.803   3.973 -1.2833 -1.1730  1.8149
12070TIP3    H257626   6.166   3.739   3.866 -1.8840  2.0174 -0.6620
12071TIP3   OH257627   0.447   3.604  11.983 -0.5294  0.5422 -0.2920
12071TIP3    H157628   0.377   3.653  11.940 -1.6237 -0.8616 -0.1719
12071TIP3    H257629   0.402   3.548  12.046  0.7305 -0.1702 -0.0027
12072TIP3   OH257630   4.787   5.357   1.252 -0.8738  0.4430 -0.1836
12072TIP3    H157631   4.728   5.324   1.184  0.4742 -0.5180 -0.9118
12072TIP3    H257632   4.793   5.450   1.235 -0.0045  0.0937 -1.8127
12073TIP3   OH257633   2.061   3.952   3.498  0.2720  0.3522 -0.1045
12073TIP3    H157634   2.040   3.979   3.588  0.1628 -2.0552  0.6082
12073TIP3    H257635   2.005   4.008   3.443 -1.0964  0.4833  1.4000
12074TIP3   OH257636   3.575   2.547  16.831 -0.1323 -0.4035  0.2667
12074TIP3    H157637   3.659   2.503  16.842  0.3497  0.4170  0.0036
12074TIP3    H257638   3.595   2.640  16.844 -0.5569  0.0365 -1.9476
12075TIP3   OH257639   3.287   0.601  13.658  0.1322 -0.2537  0.5441
12075TIP3    H157640   3.246   0.670  13.710  0.8971 -0.8253  1.9184
12075TIP3    H257641   3.234   0.523  13.675 -0.4341 -0.1324 -0.6188
12076TIP3   OH257642   3.270   5.632  15.351 -0.1310 -0.0564  0.2921
12076TIP3    H157643   3.279   5.537  15.353  0.7435 -0.0606 -1.8764
12076TIP3    H257644   3.297   5.656  15.263 -1.1034  2.1368  0.5603
12077TIP3   OH257645   5.742   6.337   1.688 -0.2703 -0.3250  0.2967
12077TIP3    H157646   5.686   6.412   1.709 -1.0450 -0.7403 -0.2505
12077TIP3    H257647   5.826   6.376   1.664 -0.4433  0.3250  0.7288
12078TIP3   OH257648   4.374   4.674  15.826  0.5344 -0.6075  0.0472
12078TIP3    H157649   4.444   4.711  15.880  2.7919 -2.3719 -1.5690
12078TIP3    H257650   4.343   4.748  15.773  1.7095  0.0346  0.2347
12079TIP3   OH257651   5.913   4.505  10.778  0.3086  0.6658  0.3157
12079TIP3    H157652   5.942   4.489  10.868  0.4668  0.9479  0.3180
12079TIP3    H257653   5.824   4.538  10.787  1.0602  2.7254  0.5157
12080TIP3   OH257654   0.382   6.450  12.039 -0.5765 -0.2720 -0.5470
12080TIP3    H157655   0.341   6.379  11.990 -0.4926 -0.2015 -0.7173
12080TIP3    H257656   0.407   6.514  11.973  1.5843 -1.1761 -0.6345
12081TIP3   OH257657   0.761   3.981   5.805  0.0810 -0.0048  0.9677
12081TIP3    H157658   0.813   3.923   5.862  0.8092 -0.1124  0.2103
12081TIP3    H257659   0.672   3.973   5.838  0.3736 -0.6292  1.6367
12082TIP3   OH257660   3.732   0.056  12.369  0.3089 -0.5702  0.0434
12082TIP3    H157661   3.741   0.151  12.368  0.3303 -0.5774 -2.2442
12082TIP3    H257662   3.736   0.033  12.462 -2.6668  1.9167  0.8850
12083TIP3   OH257663   2.919   6.129   3.020 -0.0325 -0.1690  0.4755
12083TIP3    H157664   2.848   6.085   3.066  0.2418 -0.4863  0.5956
12083TIP3    H257665   2.895   6.123   2.928 -0.4905  0.3062  0.5638
12084TIP3   OH257666   5.355   2.930  15.439 -0.2426 -0.2570  0.1165
12084TIP3    H157667   5.332   2.838  15.452 -1.1511 -0.0378  0.0895
12084TIP3    H257668   5.273   2.977  15.453  0.2169  0.5469  0.1109
12085TIP3   OH257669   1.599   1.297   5.707 -0.4899 -0.0975  0.3119
12085TIP3    H157670   1.667   1.270   5.768 -0.8015 -1.4770  0.0752
12085TIP3    H257671   1.554   1.370   5.751  0.9001  0.5947  0.6121
12086TIP3   OH257672   0.862   3.652  13.603  0.0117 -0.4507  0.1210
12086TIP3    H157673   0.836   3.562  13.618 -0.1494 -0.5584 -0.7914
12086TIP3    H257674   0.808   3.703  13.664 -2.0162 -0.7095 -1.4158
12087TIP3   OH257675   1.449   0.701   4.472 -0.0410  0.2040  0.5022
12087TIP3    H157676   1.484   0.645   4.541  2.7150  1.1173 -0.0779
12087TIP3    H257677   1.507   0.684   4.397 -2.7010 -0.4481 -1.4593
12088TIP3   OH257678   6.474   2.727   4.657 -0.0386 -0.2313  0.2447
12088TIP3    H157679   6.518   2.645   4.635  0.1865  0.1622 -0.8059
12088TIP3    H257680   6.448   2.764   4.572  0.0581  0.8835  0.6903
12089TIP3   OH257681   0.321   6.657  11.341 -0.4589 -0.3587  0.3517
12089TIP3    H157682   0.312   6.564  11.321 -0.0379 -0.5768  1.1324
12089TIP3    H257683   0.331   6.699  11.256  1.0208 -1.2268  0.0703
12090TIP3   OH257684   3.627   6.181  10.682  0.6200 -0.1113 -0.5913
12090TIP3    H157685   3.621   6.273  10.653 -1.9262 -0.4212 -1.1601
12090TIP3    H257686   3.634   6.187  10.777 -2.2864  0.6468 -0.3765
12091TIP3   OH257687   5.089   0.298  12.738  0.2296  0.0936 -0.4628
12091TIP3    H157688   5.088   0.372  12.678 -0.2008  1.5352  1.2872
12091TIP3    H257689   5.054   0.225  12.686  0.8258  1.0419 -2.2552
12092TIP3   OH257690   1.982   4.284   4.088  0.0264  0.1778 -0.2303
12092TIP3    H157691   2.068   4.277   4.046 -0.7030  1.3031 -1.9945
12092TIP3    H257692   1.999   4.335   4.167  0.7464  1.7891 -1.3896
12093TIP3   OH257693   3.736   3.563   6.004  0.0612  0.2448 -0.5259
12093TIP3    H157694   3.770   3.507   6.074  0.0594  1.0257  0.1014
12093TIP3    H257695   3.709   3.643   6.048 -4.1679 -0.9548 -0.7494
12094TIP3   OH257696   2.427   6.055  13.344 -0.0914 -0.1208 -0.4608
12094TIP3    H157697   2.399   5.964  13.349 -1.3191  0.3093  0.8504
12094TIP3    H257698   2.399   6.093  13.427  3.4351  0.6167  0.4900
12095TIP3   OH257699   0.212   0.808  11.638  0.4480 -0.2887  0.2337
12095TIP3    H157700   0.142   0.750  11.669  0.1115  0.7604  1.4742
12095TIP3    H257701   0.192   0.893  11.677  0.9177  0.6815 -1.5977
12096TIP3   OH257702   0.267   4.987   1.413  0.0817 -0.3888  0.0901
12096TIP3    H157703   0.195   4.940   1.455  0.2741 -0.0989  0.7496
12096TIP3    H257704   0.225   5.062   1.370 -0.2847 -1.3970 -1.3444
12097TIP3   OH257705   2.422   0.883   2.492 -0.3211  0.5139 -0.1034
12097TIP3    H157706   2.501   0.902   2.544 -0.9069  0.7134  0.7198
12097TIP3    H257707   2.402   0.792   2.513 -0.2859  0.4500 -0.3495
12098TIP3   OH257708   1.777   0.774  17.203  0.4303 -0.5592  0.5569
12098TIP3    H157709   1.800   0.865  17.184 -1.9482 -0.0996 -0.2055
12098TIP3    H257710   1.816   0.757  17.289  2.3982  0.6074 -0.0771
12099TIP3   OH257711   5.313   4.753   1.467  0.7454 -0.2349 -0.7342
12099TIP3    H157712   5.230   4.776   1.508  1.8048  1.5583  0.5258
12099TIP3    H257713   5.343   4.675   1.516  0.2826 -0.2775 -0.5181
12100TIP3   OH257714   3.272   5.486  12.633  0.2356  0.2058  0.1972
12100TIP3    H157715   3.210   5.539  12.684  0.0267  0.5817 -0.4501
12100TIP3    H257716   3.358   5.519  12.659  0.0828  1.4529 -0.8342
12101TIP3   OH257717   1.705   4.114  11.137 -0.0886  0.5313 -0.7239
12101TIP3    H157718   1.765   4.173  11.090  1.3012  0.1707  0.5508
12101TIP3    H257719   1.754   4.032  11.142 -0.6522  0.2751  0.4589
12102TIP3   OH257720   4.887   3.606  14.419 -0.1020  0.0171 -0.4041
12102TIP3    H157721   4.831   3.534  14.449 -0.3494  0.1049 -0.6510
12102TIP3    H257722   4.826   3.675  14.394  0.0664 -0.2551 -1.6276
12103TIP3   OH257723   0.914   0.265   5.803 -0.2714 -0.2926 -0.1134
12103TIP3    H157724   0.932   0.356   5.829 -0.7756  0.1676 -1.3462
12103TIP3    H257725   0.823   0.250   5.828 -1.0523  0.4533 -2.3741
12104TIP3   OH257726   1.899   2.701  16.396  0.3252 -0.3537 -0.4585
12104TIP3    H157727   1.863   2.613  16.403 -0.3929 -0.2318 -2.2478
12104TIP3    H257728   1.874   2.730  16.308  0.0598  1.8546  0.3205
12105TIP3   OH257729   5.500   5.622  14.023 -0.1606  0.1462  0.3769
12105TIP3    H157730   5.504   5.537  13.978 -1.3790 -0.0058  0.5442
12105TIP3    H257731   5.436   5.673  13.973  0.4668  0.9263  0.3574
12106TIP3   OH257732   4.690   4.209   2.404  0.4380 -0.2584 -0.0645
12106TIP3    H157733   4.712   4.143   2.469  1.3625 -0.6655 -0.7817
12106TIP3    H257734   4.659   4.284   2.456  0.4948 -0.8294  0.8054
12107TIP3   OH257735   0.742   6.147   1.374 -0.2544  0.1683  0.2114
12107TIP3    H157736   0.726   6.059   1.409  0.1355  0.0958  0.2068
12107TIP3    H257737   0.682   6.155   1.300  0.4078 -0.4629 -0.4028
12108TIP3   OH257738   0.111   0.156   2.897  0.3194 -0.0732  0.7093
12108TIP3    H157739   0.146   0.202   2.821  0.6998  1.6377  1.8834
12108TIP3    H257740   0.154   0.070   2.895 -0.6150 -0.5384 -1.6739
12109TIP3   OH257741   4.049   6.342  12.589  0.3194  0.0800  0.2670
12109TIP3    H157742   3.967   6.335  12.638  0.9422  1.3406  1.5094
12109TIP3    H257743   4.095   6.416  12.628  0.5313  1.5688 -2.6577
12110TIP3   OH257744   3.983   6.687  14.254 -0.3980  0.4127  0.4255
12110TIP3    H157745   4.071   6.723  14.242  0.7482 -2.2198  0.5783
12110TIP3    H257746   3.972   6.626  14.181 -1.2363 -0.8741  1.6090
12111TIP3   OH257747   3.448   6.123   2.246  0.5330  0.0727 -0.0891
12111TIP3    H157748   3.459   6.029   2.229  0.1412  0.0197 -0.0526
12111TIP3    H257749   3.512   6.143   2.315  0.2489 -0.2759  0.2770
12112TIP3   OH257750   1.300   3.412  15.583 -0.1421 -0.4207  0.0816
12112TIP3    H157751   1.246   3.385  15.508 -1.8613  0.5152  0.9537
12112TIP3    H257752   1.381   3.443  15.544 -0.5105 -1.1547 -1.3150
12113TIP3   OH257753   5.422   3.731  13.510  0.1889  0.5280 -0.1040
12113TIP3    H157754   5.475   3.740  13.589 -0.3576 -1.2825  0.4861
12113TIP3    H257755   5.482   3.754  13.439  2.0034 -2.1835  0.5054
12114TIP3   OH257756   1.685   4.126   2.496  0.2050 -0.1544 -0.5175
12114TIP3    H157757   1.611   4.153   2.551 -0.9825 -2.5847 -0.8396
12114TIP3    H257758   1.757   4.114   2.558  0.5046  2.7075 -0.2545
12115TIP3   OH257759   4.997   4.269  12.588  0.3805  0.4847  0.2209
12115TIP3    H157760   4.987   4.179  12.619  0.3971  0.6871  0.8315
12115TIP3    H257761   4.948   4.321  12.652 -0.8521  0.7762 -0.9424
12116TIP3   OH257762   2.329   1.198  16.638 -0.4912  0.4269  0.9979
12116TIP3    H157763   2.327   1.239  16.725 -0.3737  3.9778 -0.5991
12116TIP3    H257764   2.417   1.163  16.630  0.0591  1.6231  1.6545
12117TIP3   OH257765   0.394   1.241   3.914  0.3717  1.0395 -0.2879
12117TIP3    H157766   0.435   1.155   3.905 -1.3105  0.2602 -0.7787
12117TIP3    H257767   0.440   1.282   3.988  1.3234 -0.1904 -0.1786
12118TIP3   OH257768   2.346   2.667  16.963  0.3449 -0.0294  0.2810
12118TIP3    H157769   2.418   2.604  16.969 -1.1441 -1.5591  2.8147
12118TIP3    H257770   2.358   2.724  17.039  0.5619  1.5639 -0.9250
12119TIP3   OH257771   5.410   3.317  16.124  0.5517  0.1686  0.0259
12119TIP3    H157772   5.338   3.326  16.062  0.8365 -2.0813 -0.6802
12119TIP3    H257773   5.487   3.299  16.070  0.9721 -0.9568  0.9740
12120TIP3   OH257774   3.524   3.151  14.172  0.4280 -0.1401 -0.0345
12120TIP3    H157775   3.583   3.093  14.123  1.4164  2.6626 -2.3076
12120TIP3    H257776   3.573   3.232  14.183 -1.5397  0.8754  1.6003
12121TIP3   OH257777   4.095   2.295  12.756  0.1737 -0.1715  0.4245
12121TIP3    H157778   4.170   2.320  12.810  0.1210  0.2014  0.3246
12121TIP3    H257779   4.037   2.247  12.816 -0.4782  1.3183  1.0158
12122TIP3   OH257780   6.393   1.280  13.799 -0.3781 -0.3576  0.6614
12122TIP3    H157781   6.446   1.291  13.720  0.0737  0.2987  1.0512
12122TIP3    H257782   6.303   1.286  13.769 -0.2217 -1.0765  0.0517
12123TIP3   OH257783   3.480   3.285  14.516  0.1046  0.1949  0.2396
12123TIP3    H157784   3.491   3.309  14.608  0.9800  1.3964 -0.1723
12123TIP3    H257785   3.471   3.190  14.517 -1.5887  0.3476  1.7303
12124TIP3   OH257786   3.584   1.336  12.739  0.2068 -0.9195  0.4297
12124TIP3    H157787   3.572   1.337  12.644 -2.3163  0.9562  0.7020
12124TIP3    H257788   3.675   1.363  12.753 -0.0117  0.8137 -1.3903
12125TIP3   OH257789   1.912   0.172   5.183 -0.2663 -0.2475  0.3391
12125TIP3    H157790   1.849   0.193   5.252 -0.8927  0.5465 -0.4767
12125TIP3    H257791   1.976   0.243   5.186 -0.3009 -0.2057  0.0860
12126TIP3   OH257792   0.689   5.630  15.582 -0.4399  0.3068  0.3967
12126TIP3    H157793   0.770   5.670  15.549  0.0371 -1.3875 -0.5737
12126TIP3    H257794   0.688   5.543  15.542 -2.8011  0.3400  0.3481
12127TIP3   OH257795   2.269   2.743  15.027  0.0990 -0.4157  0.2464
12127TIP3    H157796   2.238   2.833  15.014  0.7666  0.1215  2.2027
12127TIP3    H257797   2.241   2.697  14.949 -0.9238  1.3265 -0.4497
12128TIP3   OH257798   3.432   5.302  11.597 -0.2788 -0.4226  0.1197
12128TIP3    H157799   3.422   5.221  11.548  0.9269 -2.2129  2.7091
12128TIP3    H257800   3.357   5.306  11.656  0.4484 -0.4690  1.0762
12129TIP3   OH257801   0.591   1.695  13.473 -0.5040  0.5117 -0.0360
12129TIP3    H157802   0.566   1.655  13.390 -0.4085  0.5180 -0.0674
12129TIP3    H257803   0.653   1.764  13.450 -1.7525  1.6294 -0.1183
12130TIP3   OH257804   4.187   5.828   3.929 -0.3471 -0.1769 -0.7316
12130TIP3    H157805   4.172   5.767   3.857  1.3163  0.2078 -1.4164
12130TIP3    H257806   4.239   5.777   3.992  0.1996  0.2189 -0.8615
12131TIP3   OH257807   6.659   5.349  14.813  0.4831  0.2736  0.3734
12131TIP3    H157808   6.632   5.378  14.900 -1.0545  0.6000 -0.1999
12131TIP3    H257809   6.746   5.388  14.801 -0.0934  1.8048  1.0047
12132TIP3   OH257810   4.056   1.563   0.377 -0.1840 -0.4235  0.1272
12132TIP3    H157811   4.075   1.494   0.313 -0.0056 -0.5583  0.3281
12132TIP3    H257812   4.022   1.516   0.453  2.0873 -0.4813  1.1284
12133TIP3   OH257813   3.880   3.349   1.379 -0.1997  0.3532  0.2696
12133TIP3    H157814   3.910   3.259   1.387 -0.6607  0.2021  0.3013
12133TIP3    H257815   3.912   3.377   1.293  0.2927  0.2912  0.4351
12134TIP3   OH257816   3.726   6.659  11.629  0.4217  0.3553  0.4092
12134TIP3    H157817   3.737   6.607  11.550  0.8939 -0.7372  1.1875
12134TIP3    H257818   3.726   6.595  11.700 -2.2508  1.0940  1.1326
12135TIP3   OH257819   0.382   5.404   4.290  0.2163  0.5676  0.5320
12135TIP3    H157820   0.324   5.475   4.317 -0.4593  0.4617 -0.5866
12135TIP3    H257821   0.388   5.413   4.195  0.5471 -0.5553  0.4382
12136TIP3   OH257822   3.509   4.254  12.126  0.6891  0.2933  0.3236
12136TIP3    H157823   3.542   4.339  12.156  0.4470 -0.1033  1.7397
12136TIP3    H257824   3.556   4.238  12.044  0.9366  1.6620  0.1813
12137TIP3   OH257825   3.012   0.972  12.199  0.4450  0.2071  0.4926
12137TIP3    H157826   3.012   1.014  12.113 -0.2114 -0.7099  0.0257
12137TIP3    H257827   3.071   0.898  12.190 -0.1531 -0.2927  0.6231
12138TIP3   OH257828   4.046   3.940  17.081  0.1503  0.7243 -0.2606
12138TIP3    H157829   4.014   3.850  17.075  0.8530  0.5418 -1.3506
12138TIP3    H257830   4.124   3.934  17.135 -0.3158  0.8308  0.4412
12139TIP3   OH257831   2.406   2.747   0.989 -0.0403 -0.2156  0.1110
12139TIP3    H157832   2.487   2.791   0.962 -0.5239  1.3329  1.1796
12139TIP3    H257833   2.415   2.737   1.084  0.0258 -2.3582 -0.0977
12140TIP3   OH257834   5.650   5.553   1.877 -0.3167 -0.2028 -0.2766
12140TIP3    H157835   5.684   5.626   1.929 -2.1526  0.5948 -0.1558
12140TIP3    H257836   5.707   5.549   1.801 -1.6073  2.9230 -1.4936
12141TIP3   OH257837   6.707   5.538  15.037 -1.0399 -0.2842  0.0974
12141TIP3    H157838   6.794   5.513  15.069 -0.0972  1.1841 -1.2382
12141TIP3    H257839   6.650   5.531  15.114  0.1374 -1.7850  0.8631
12142TIP3   OH257840   1.150   6.601  13.155 -0.5946  0.1992  0.3429
12142TIP3    H157841   1.243   6.590  13.176 -0.7223 -1.1582  0.2345
12142TIP3    H257842   1.132   6.692  13.178  0.4801  0.1551  1.4699
12143TIP3   OH257843   5.260   1.698  12.763 -0.3648 -0.0611  0.2483
12143TIP3    H157844   5.215   1.721  12.844  0.4513  1.4355  0.2950
12143TIP3    H257845   5.351   1.684  12.789 -0.3517 -0.8784 -0.2107
12144TIP3   OH257846   6.684   5.120   5.120  0.0486  0.1408 -0.0341
12144TIP3    H157847   6.614   5.088   5.177  0.5616 -1.3067 -0.1946
12144TIP3    H257848   6.641   5.180   5.060 -0.6310  1.0940  1.3976
12145TIP3   OH257849   6.066   3.174  11.738 -0.2689  0.1300  0.2189
12145TIP3    H157850   6.133   3.157  11.803 -0.5343 -1.2533  0.1640
12145TIP3    H257851   6.097   3.128  11.659  0.6803  2.8378 -1.0342
12146TIP3   OH257852   1.311   1.665  16.318 -0.2054 -0.0773  0.0268
12146TIP3    H157853   1.246   1.617  16.267 -0.2878 -0.3245  0.3600
12146TIP3    H257854   1.392   1.614  16.309  0.6431  1.6349 -2.5498
12147TIP3   OH257855   5.575   3.321  15.932  0.2194 -0.5592 -0.2713
12147TIP3    H157856   5.660   3.350  15.966  0.3764 -1.6708  0.2985
12147TIP3    H257857   5.567   3.367  15.848 -0.1483  2.1435  1.1664
12148TIP3   OH257858   6.418   6.443   4.098  0.8881 -0.0250 -0.2042
12148TIP3    H157859   6.441   6.471   4.010  1.8829 -0.8217 -0.1968
12148TIP3    H257860   6.470   6.499   4.156 -1.1967  1.8286 -0.0550
12149TIP3   OH257861   4.304   5.338  14.063  0.8771 -0.1965 -0.1124
12149TIP3    H157862   4.371   5.308  14.001  0.4265 -0.4691 -0.4661
12149TIP3    H257863   4.238   5.380  14.009  0.5080 -0.3916  0.1869
12150TIP3   OH257864   0.513   0.937   4.557 -0.0152  0.3864  0.1929
12150TIP3    H157865   0.504   0.849   4.595 -0.3283  0.7005  0.8716
12150TIP3    H257866   0.521   0.995   4.633 -3.1516  1.3108 -0.0959
12151TIP3   OH257867   1.121   4.067   5.840 -0.4220 -0.9668 -0.3706
12151TIP3    H157868   1.172   4.027   5.770  0.8911 -0.4788  0.2944
12151TIP3    H257869   1.167   4.043   5.920 -1.3064 -0.6160  0.2529
12152TIP3   OH257870   6.207   5.129  12.838  0.5374  0.0613  0.6338
12152TIP3    H157871   6.165   5.109  12.754  1.8403  0.2201 -0.0683
12152TIP3    H257872   6.138   5.168  12.890  0.5436  3.1551 -1.5500
12153TIP3   OH257873   3.967   2.556  13.716 -0.1312  0.3393 -0.0181
12153TIP3    H157874   4.035   2.582  13.654 -1.3134  0.4162 -1.3149
12153TIP3    H257875   3.971   2.460  13.718 -0.3354  0.3217 -0.4951
12154TIP3   OH257876   3.037   6.557  16.697 -0.2112 -0.1881  0.4416
12154TIP3    H157877   3.009   6.468  16.674  0.7726 -0.3661 -0.1183
12154TIP3    H257878   3.025   6.607  16.616 -2.1229  0.5344  1.1605
12155TIP3   OH257879   4.248   5.207   0.881 -0.2015 -0.1451 -0.4533
12155TIP3    H157880   4.247   5.120   0.921  1.5830  0.4034  0.8397
12155TIP3    H257881   4.258   5.190   0.787 -0.9993 -1.3572 -0.3295
12156TIP3   OH257882   4.579   5.218   0.925 -0.1869 -0.1830  0.1185
12156TIP3    H157883   4.664   5.249   0.895 -0.0314  0.3822  1.0978
12156TIP3    H257884   4.599   5.164   1.002 -0.6939 -0.2071  0.2390
12157TIP3   OH257885   3.454   4.332  15.877 -0.7167  0.1865  0.0379
12157TIP3    H157886   3.456   4.329  15.781  0.3152 -0.7683  0.0701
12157TIP3    H257887   3.427   4.421  15.898  2.1549  1.4101 -1.1452
12158TIP3   OH257888   5.779   5.110  16.899  0.1660 -0.2038  0.2941
12158TIP3    H157889   5.691   5.102  16.938  1.0448 -3.1245  1.7961
12158TIP3    H257890   5.822   5.177  16.952 -0.5956  0.0654  0.5898
12159TIP3   OH257891   3.610   0.476   5.173  0.5028 -0.1712 -0.8971
12159TIP3    H157892   3.626   0.541   5.105 -1.3506  0.3929 -0.8354
12159TIP3    H257893   3.525   0.438   5.150 -1.2309  1.5610  2.2630
12160TIP3   OH257894   5.323   2.152   1.982  0.5773  0.2337 -0.4095
12160TIP3    H157895   5.342   2.086   2.049 -1.1122  0.4150  0.2811
12160TIP3    H257896   5.227   2.152   1.975  0.4422  3.5829  0.5968
12161TIP3   OH257897   0.831   3.052   0.074  0.0858 -0.5545  0.0665
12161TIP3    H157898   0.793   2.974   0.033 -0.9876 -0.2750  0.5241
12161TIP3    H257899   0.879   3.018   0.150 -0.8689 -0.7086  0.6012
12162TIP3   OH257900   3.233   0.784   2.980 -0.2246 -0.5032 -0.4350
12162TIP3    H157901   3.251   0.871   3.014 -0.0338 -1.3578  1.7457
12162TIP3    H257902   3.310   0.762   2.928  1.5949 -0.9877  2.3674
12163TIP3   OH257903   4.812   5.094   4.702  0.2827  0.3241 -0.0022
12163TIP3    H157904   4.720   5.068   4.691 -0.6952  2.7698  1.8804
12163TIP3    H257905   4.848   5.030   4.764 -0.8971  0.8154  1.2275
12164TIP3   OH257906   5.901   1.834   1.966  0.0399 -0.3080  0.4662
12164TIP3    H157907   5.937   1.922   1.968  2.6017 -1.3211  0.2874
12164TIP3    H257908   5.931   1.794   2.048 -0.4080 -1.2745  0.1606
12165TIP3   OH257909   4.256   1.406  14.606  0.3594  0.7368 -0.2926
12165TIP3    H157910   4.232   1.495  14.578 -0.9131  0.1552 -1.0682
12165TIP3    H257911   4.328   1.382  14.547  1.4033  1.6391  0.5958
12166TIP3   OH257912   4.428   2.529  17.177 -0.0451 -0.7955 -0.1069
12166TIP3    H157913   4.381   2.517  17.260 -1.7238 -1.0855 -1.0884
12166TIP3    H257914   4.457   2.621  17.179 -4.5885  0.7855 -1.4547
12167TIP3   OH257915   6.000   5.196   5.300 -0.3915 -0.1746  0.3220
12167TIP3    H157916   5.968   5.261   5.363  0.4380  1.3283 -0.7784
12167TIP3    H257917   5.940   5.204   5.226  0.0481 -0.2717 -0.0424
12168TIP3   OH257918   3.430   5.436   5.837  0.3724  0.2321  0.1321
12168TIP3    H157919   3.512   5.438   5.788 -0.3054  2.9224 -1.0135
12168TIP3    H257920   3.455   5.447   5.928  1.4677 -1.9894  0.1209
12169TIP3   OH257921   5.822   0.872   1.190  0.1598 -0.2009  0.1121
12169TIP3    H157922   5.794   0.938   1.254  0.1404  1.4130 -1.5105
12169TIP3    H257923   5.795   0.788   1.228 -3.0428  0.9714  0.6038
12170TIP3   OH257924   6.555   1.390   2.629  0.1426  0.2561  0.4344
12170TIP3    H157925   6.518   1.325   2.688 -0.0286  0.0557  0.1102
12170TIP3    H257926   6.518   1.473   2.659  0.9396  0.3018  1.3066
12171TIP3   OH257927   3.003   4.771  14.133 -0.2018  0.0190 -0.0064
12171TIP3    H157928   3.030   4.709  14.200  0.4409  0.3391  0.0352
12171TIP3    H257929   3.047   4.853  14.157 -2.2370  0.9004  0.7802
12172TIP3   OH257930   3.378   5.144   3.929 -0.0412  0.2401  0.4396
12172TIP3    H157931   3.336   5.059   3.941 -0.1603  0.1174 -0.7316
12172TIP3    H257932   3.458   5.124   3.880 -0.3696  0.8653 -0.3653
12173TIP3   OH257933   4.398   6.332   5.810  0.5749 -0.1292  0.6100
12173TIP3    H157934   4.375   6.295   5.895 -0.1128  0.5480  0.7258
12173TIP3    H257935   4.332   6.297   5.750  0.5169  0.1143  0.5313
12174TIP3   OH257936   3.607   1.553  11.446  0.0500 -0.1154 -0.1250
12174TIP3    H157937   3.615   1.643  11.478 -0.4805 -0.5337  1.2333
12174TIP3    H257938   3.697   1.520  11.445  0.1382  0.1015  0.3656
12175TIP3   OH257939   1.435   6.346   1.677  0.1906 -0.2816 -0.1050
12175TIP3    H157940   1.413   6.347   1.771 -0.9677 -2.4100 -0.3268
12175TIP3    H257941   1.525   6.313   1.674  0.4685  0.4392  0.3031
12176TIP3   OH257942   3.264   2.466  16.286 -0.2810 -0.9045 -0.2656
12176TIP3    H157943   3.257   2.385  16.338  1.3128 -0.6051  0.4348
12176TIP3    H257944   3.212   2.530  16.336  1.1163 -0.6595  0.9063
12177TIP3   OH257945   0.770   1.845  13.345 -0.1151 -0.7488 -0.3480
12177TIP3    H157946   0.826   1.776  13.379 -0.1503 -0.6112 -0.0081
12177TIP3    H257947   0.794   1.852  13.252 -0.5655 -1.6489 -0.5317
12178TIP3   OH257948   3.097   6.081   1.345 -0.2792  0.0442  0.2530
12178TIP3    H157949   3.038   6.145   1.385 -2.6880 -2.0072  0.0750
12178TIP3    H257950   3.101   6.106   1.253 -1.2543 -0.0985  0.1725
12179TIP3   OH257951   5.176   5.960  10.560  0.0738 -0.0382  0.4103
12179TIP3    H157952   5.132   5.968  10.645 -0.0233 -0.0611  0.3618
12179TIP3    H257953   5.260   5.919  10.580 -0.1114 -0.4008  0.4428
12180TIP3   OH257954   1.279   3.272   1.060  0.4864 -0.1254  0.8518
12180TIP3    H157955   1.286   3.367   1.070  1.6243 -0.0874 -0.2063
12180TIP3    H257956   1.297   3.256   0.967 -0.1141 -1.3406  0.9365
12181TIP3   OH257957   1.107   3.151   1.243 -0.4224  0.0894  0.7246
12181TIP3    H157958   1.052   3.214   1.289  0.2451  0.6562  0.7489
12181TIP3    H257959   1.154   3.203   1.178 -1.5151 -0.7269 -0.7674
12182TIP3   OH257960   0.530   5.734  13.803  0.4139  0.0637 -0.5894
12182TIP3    H157961   0.591   5.684  13.749  0.1817 -0.7233 -0.1370
12182TIP3    H257962   0.579   5.750  13.884 -0.2204 -1.1603  0.0394
12183TIP3   OH257963   4.720   1.707   6.805  0.0402 -0.8971  0.6438
12183TIP3    H157964   4.749   1.631   6.754  0.9218  0.5602 -1.0480
12183TIP3    H257965   4.643   1.739   6.758  0.3717 -0.0265  0.7001
12184TIP3   OH257966   6.000   4.609  11.743 -0.7147 -0.2285  0.1247
12184TIP3    H157967   6.069   4.639  11.684  0.1911 -0.8867  0.8223
12184TIP3    H257968   5.939   4.682  11.748  0.9494  1.1379  1.0304
12185TIP3   OH257969   5.156   5.622   1.663  0.2761  0.0632  0.0861
12185TIP3    H157970   5.218   5.640   1.734 -0.6307  0.2468  0.8461
12185TIP3    H257971   5.077   5.591   1.708 -0.9662  1.9895 -0.7300
12186TIP3   OH257972   5.301   4.978  13.022 -0.1162 -0.3170  0.7308
12186TIP3    H157973   5.381   4.933  13.049  0.1640  0.7946  1.7790
12186TIP3    H257974   5.230   4.917  13.044  0.3606 -0.8738  0.7463
12187TIP3   OH257975   6.475   6.610  11.852 -0.2809 -0.0669 -0.0240
12187TIP3    H157976   6.500   6.569  11.769  0.6995 -0.7859  0.6285
12187TIP3    H257977   6.383   6.584  11.864  0.2217 -1.8104  0.2176
12188TIP3   OH257978   4.149   5.622   1.645 -0.5692 -0.5633 -0.5835
12188TIP3    H157979   4.192   5.704   1.671  0.2403 -1.1709  0.0212
12188TIP3    H257980   4.076   5.613   1.706 -0.9084 -0.0847 -0.9141
12189TIP3   OH257981   0.963   3.770  16.170 -0.3249  0.4239  0.2424
12189TIP3    H157982   0.948   3.741  16.080 -1.7142  1.5569  0.1019
12189TIP3    H257983   0.879   3.759  16.213 -0.4252  2.5741  0.6467
12190TIP3   OH257984   3.764   3.371   3.855  0.0948 -0.1169  0.0222
12190TIP3    H157985   3.719   3.412   3.782  1.1100 -0.0991 -0.6020
12190TIP3    H257986   3.740   3.278   3.849  0.5668 -0.1954 -0.6176
12191TIP3   OH257987   5.128   1.569  15.684  0.1761  0.3890 -0.2156
12191TIP3    H157988   5.058   1.510  15.713  1.1029 -0.9462 -0.6272
12191TIP3    H257989   5.105   1.654  15.721 -1.3270 -0.1734  0.1790
12192TIP3   OH257990   5.161   5.027   5.784  0.2834 -0.1192  0.1868
12192TIP3    H157991   5.090   4.963   5.791 -0.9536  1.2024 -0.1330
12192TIP3    H257992   5.179   5.054   5.874  0.7407 -0.8312  0.3144
12193TIP3   OH257993   4.570   6.616   5.126 -0.4998 -0.3642 -0.5123
12193TIP3    H157994   4.541   6.611   5.035 -1.3357  0.6799 -0.3063
12193TIP3    H257995   4.571   6.709   5.147  2.0057 -0.4290 -0.1715
12194TIP3   OH257996   1.348   0.538  13.911  0.4042  0.5226  0.3385
12194TIP3    H157997   1.273   0.597  13.911 -0.7812 -0.9525 -0.3471
12194TIP3    H257998   1.413   0.582  13.855 -0.9635  0.5718 -1.2707
12195TIP3   OH257999   4.347   2.749  11.880 -0.2027  0.3109 -0.1448
12195TIP3    H158000   4.287   2.818  11.906  0.1903  0.1892  1.1163
12195TIP3    H258001   4.428   2.794  11.855  0.4447  0.2488  1.7884
12196TIP3   OH258002   6.332   6.356   2.757 -0.2838  0.5021  0.4388
12196TIP3    H158003   6.318   6.283   2.817 -0.2484 -0.5656 -0.8186
12196TIP3    H258004   6.281   6.332   2.679  2.5422  0.1221 -1.3438
12197TIP3   OH258005   1.651   4.169   2.032 -0.7892 -0.2533  0.1764
12197TIP3    H158006   1.602   4.251   2.042  0.7288  0.7661 -0.4366
12197TIP3    H258007   1.646   4.150   1.938 -2.7566 -1.9272  0.5894
12198TIP3   OH258008   2.296   2.669  11.094 -0.5429  0.0191  0.7757
12198TIP3    H158009   2.219   2.639  11.046  0.0686 -0.6437  0.1919
12198TIP3    H258010   2.355   2.702  11.027  0.2634 -0.7877  1.0731
12199TIP3   OH258011   3.708   5.381   1.207 -0.1449  0.0701 -0.5378
12199TIP3    H158012   3.708   5.426   1.292  0.9884  0.2166 -0.6050
12199TIP3    H258013   3.620   5.393   1.173 -1.1482 -1.4202  1.3833
12200TIP3   OH258014   5.230   4.301  12.234  0.0469 -0.6397  0.0850
12200TIP3    H158015   5.279   4.272  12.157 -0.8426  1.2216 -1.2149
12200TIP3    H258016   5.297   4.334  12.294  0.6877 -1.5163 -0.1305
12201TIP3   OH258017   0.772   1.566   2.964 -0.8647 -0.0740 -0.1450
12201TIP3    H158018   0.723   1.645   2.943 -3.7323 -2.1285 -1.6480
12201TIP3    H258019   0.714   1.494   2.937  1.5239 -2.6911  1.3786
12202TIP3   OH258020   5.748   4.870  16.247  0.2672 -0.1420  0.0055
12202TIP3    H158021   5.843   4.853  16.244 -0.0760 -2.1243 -0.5215
12202TIP3    H258022   5.718   4.851  16.159 -0.9374 -1.5007  0.6939
12203TIP3   OH258023   4.841   5.595   3.243 -0.1899 -0.3591 -0.6112
12203TIP3    H158024   4.747   5.576   3.251 -0.3565  1.0245  1.1408
12203TIP3    H258025   4.882   5.546   3.314  0.3635 -0.5788 -1.0766
12204TIP3   OH258026   4.159   4.712  16.429  1.3334  0.3503 -0.0664
12204TIP3    H158027   4.218   4.640  16.455 -1.3628 -3.3184 -3.4836
12204TIP3    H258028   4.192   4.739  16.344  0.0672  0.5721 -0.4851
12205TIP3   OH258029   0.407   0.597  11.819 -0.0476  0.4285 -0.0299
12205TIP3    H158030   0.423   0.685  11.787  0.9681  0.0433 -0.6055
12205TIP3    H258031   0.334   0.606  11.879  2.0667  2.1796  2.3637
12206TIP3   OH258032   0.586   4.200   2.555 -0.0370  0.4814  0.0267
12206TIP3    H158033   0.576   4.264   2.484  0.7638 -0.0512 -0.5708
12206TIP3    H258034   0.497   4.188   2.587  0.1356  4.1070  2.1481
12207TIP3   OH258035   5.098   5.608  15.360 -0.2374 -0.1769  0.2693
12207TIP3    H158036   5.133   5.599  15.271  1.4703  1.0326  0.7946
12207TIP3    H258037   5.075   5.519  15.386 -0.4230 -0.5801 -1.2603
12208TIP3   OH258038   5.384   5.579  13.106  0.4236 -0.2906  0.1889
12208TIP3    H158039   5.442   5.530  13.048  0.6771  0.2340 -0.0055
12208TIP3    H258040   5.437   5.654  13.134  0.2082 -0.3917  0.8732
12209TIP3   OH258041   3.849   0.390  16.551 -0.4226  0.1680 -0.3994
12209TIP3    H158042   3.755   0.405  16.559 -0.6819 -1.7393  0.5289
12209TIP3    H258043   3.889   0.465  16.595 -1.5432  0.2790  0.4565
12210TIP3   OH258044   4.575   3.401  11.089  0.6142  0.0057 -0.1291
12210TIP3    H158045   4.566   3.322  11.035 -2.4688  0.3491 -0.1807
12210TIP3    H258046   4.601   3.470  11.027 -0.3763 -0.1619 -0.7432
12211TIP3   OH258047   3.722   0.527   6.481  0.1977 -0.2965  0.5641
12211TIP3    H158048   3.751   0.484   6.400 -1.4527 -0.8209  0.2397
12211TIP3    H258049   3.637   0.487   6.500 -0.5570  1.5786  1.2123
12212TIP3   OH258050   6.590   0.607   3.490 -0.3120 -0.1836 -0.1871
12212TIP3    H158051   6.669   0.586   3.541  0.3585  1.9521 -0.2847
12212TIP3    H258052   6.527   0.638   3.555 -0.0965  0.7724 -0.4261
12213TIP3   OH258053   6.700   3.118   5.921  0.2206 -0.0127 -0.8687
12213TIP3    H158054   6.686   3.210   5.901  0.0376  0.3001  0.6888
12213TIP3    H258055   6.774   3.117   5.982 -0.1898 -0.8415 -0.3715
12214TIP3   OH258056   2.651   0.830   3.400 -0.0777  0.1785  0.6627
12214TIP3    H158057   2.608   0.910   3.371 -0.4160  0.5725  2.2153
12214TIP3    H258058   2.602   0.760   3.357 -1.2004  0.7019  1.0860
12215TIP3   OH258059   0.102   4.457  14.633  0.0892 -0.1566  0.6214
12215TIP3    H158060   0.010   4.466  14.609  1.0741  2.5517 -2.4534
12215TIP3    H258061   0.132   4.547  14.647  2.7118 -0.8526 -0.2608
12216TIP3   OH258062   0.949   0.345  13.976 -0.5738  0.5140  0.0606
12216TIP3    H158063   0.904   0.399  13.911  2.1136  2.4517 -0.2711
12216TIP3    H258064   0.971   0.405  14.047  1.2689 -0.4363  0.3150
12217TIP3   OH258065   5.033   5.045  15.612 -0.0148  0.2097  0.1575
12217TIP3    H158066   5.115   5.067  15.657 -0.7427  0.3360  1.4556
12217TIP3    H258067   5.014   4.955  15.638 -0.4685  0.3027  0.1596
12218TIP3   OH258068   5.090   3.555   0.108  0.0367  0.1296  0.5925
12218TIP3    H158069   5.125   3.474   0.146 -0.6056 -0.5044 -0.1533
12218TIP3    H258070   5.162   3.617   0.115  0.8116 -0.7298  0.4573
12219TIP3   OH258071   2.588   4.762  12.590 -0.2372  0.1223  0.5391
12219TIP3    H158072   2.562   4.672  12.572 -1.1504 -0.0121  2.4186
12219TIP3    H258073   2.675   4.771  12.550 -0.8921 -1.0212 -1.2226
12220TIP3   OH258074   2.869   1.830  16.715 -0.5248  0.5510 -0.4403
12220TIP3    H158075   2.910   1.818  16.800 -1.4038  0.4606 -0.0261
12220TIP3    H258076   2.817   1.910  16.723 -1.8008 -0.2609 -0.4116
12221TIP3   OH258077   2.912   3.474   3.544  0.1299 -0.0843  0.0235
12221TIP3    H158078   2.977   3.406   3.562  0.4150  0.2494  0.2834
12221TIP3    H258079   2.882   3.502   3.631  0.6979  0.7634 -0.0415
12222TIP3   OH258080   5.953   0.634  15.069 -0.0073  0.2711  0.0099
12222TIP3    H158081   5.876   0.679  15.104  1.1406  1.4859  1.0390
12222TIP3    H258082   6.027   0.678  15.111  1.2395 -1.0025 -0.8281
12223TIP3   OH258083   1.529   6.321   4.112 -0.2568 -0.2081 -0.4627
12223TIP3    H158084   1.534   6.226   4.100 -0.5220 -0.4169  0.9612
12223TIP3    H258085   1.451   6.347   4.063 -0.6634 -0.8504 -0.1734
12224TIP3   OH258086   1.429   6.330  13.383 -0.4782 -0.0253  0.1114
12224TIP3    H158087   1.334   6.320  13.375 -0.2210 -0.9332 -2.1868
12224TIP3    H258088   1.441   6.417  13.423 -2.2740 -0.1216  0.8902
12225TIP3   OH258089   0.484   0.627  16.406 -0.2292 -0.0010  0.6028
12225TIP3    H158090   0.509   0.665  16.490 -1.7784  0.9197  0.6613
12225TIP3    H258091   0.545   0.666  16.343  0.4913 -0.1757  1.1823
12226TIP3   OH258092   4.092   1.557   1.767  0.0846  0.4571  0.7747
12226TIP3    H158093   4.072   1.476   1.813  2.1148 -0.3729  0.2448
12226TIP3    H258094   4.186   1.551   1.748 -0.5871  0.9434 -3.0844
12227TIP3   OH258095   5.504   5.890  13.045 -0.2977 -0.0302 -0.7518
12227TIP3    H158096   5.485   5.942  12.967  0.3596 -1.0728 -1.6100
12227TIP3    H258097   5.469   5.804  13.026  0.6419 -0.5354 -0.2484
12228TIP3   OH258098   6.533   0.430  11.261  0.5634 -0.0762  0.4338
12228TIP3    H158099   6.527   0.383  11.178  0.3019 -0.9205  0.9296
12228TIP3    H258100   6.556   0.519  11.236  2.5731 -0.8114 -0.4323
12229TIP3   OH258101   0.937   5.105  12.062  0.4068 -0.5843  0.2201
12229TIP3    H158102   1.006   5.135  12.003 -1.0862  0.3955 -1.0509
12229TIP3    H258103   0.939   5.009  12.054  1.0123 -0.5170 -0.4995
12230TIP3   OH258104   2.445   1.392   1.379 -0.0900  0.1676  0.0794
12230TIP3    H158105   2.529   1.438   1.373  0.4189 -0.7382  0.1597
12230TIP3    H258106   2.400   1.433   1.453  0.6182  0.1390  0.5335
12231TIP3   OH258107   0.151   3.573  12.498  0.0391 -0.3667  0.3966
12231TIP3    H158108   0.184   3.639  12.558  0.4956 -2.5407  2.6188
12231TIP3    H258109   0.185   3.599  12.412  1.1680  1.6097  1.4197
12232TIP3   OH258110   6.335   3.552   0.443  0.6195  0.3758 -0.2008
12232TIP3    H158111   6.314   3.505   0.363 -0.3182  1.1838 -0.4511
12232TIP3    H258112   6.296   3.639   0.430  2.0152  1.0933  0.3911
12233TIP3   OH258113   5.374   3.374   3.538 -0.1691  0.0845 -0.1783
12233TIP3    H158114   5.289   3.397   3.500 -0.5834 -0.5540  0.3490
12233TIP3    H258115   5.431   3.362   3.462 -1.1427 -1.7831 -0.6595
12234TIP3   OH258116   4.220   5.280  16.094  0.4441 -0.0172  0.3223
12234TIP3    H158117   4.173   5.363  16.084  0.1350 -0.3215 -0.8032
12234TIP3    H258118   4.250   5.280  16.185 -1.2055  0.4624  0.8780
12235TIP3   OH258119   2.499   3.944  15.525  0.3889 -0.0068  0.2610
12235TIP3    H158120   2.424   3.985  15.567  0.2241 -1.8110  1.7924
12235TIP3    H258121   2.461   3.890  15.455  0.1590 -1.4638  1.4770
12236TIP3   OH258122   4.089   1.904  15.232 -0.4711 -0.5270  0.3377
12236TIP3    H158123   4.111   1.919  15.140  0.1738 -1.3566  0.3598
12236TIP3    H258124   4.020   1.968  15.250 -0.6429 -0.3988 -0.7369
12237TIP3   OH258125   6.048   6.666   1.265  0.0297 -0.2037 -0.1429
12237TIP3    H158126   6.099   6.652   1.344 -0.7183 -1.6335  0.1213
12237TIP3    H258127   6.103   6.721   1.209  1.4071 -0.8559  0.5486
12238TIP3   OH258128   1.816   5.720   0.302 -0.1448  0.8453  0.2347
12238TIP3    H158129   1.796   5.658   0.232  0.4470 -0.1020  0.9116
12238TIP3    H258130   1.813   5.669   0.383 -0.3958  1.8434  0.8753
12239TIP3   OH258131   1.898   5.694  12.521 -0.1064 -0.1784  0.2554
12239TIP3    H158132   1.943   5.609  12.518  1.4933  0.6222  0.7352
12239TIP3    H258133   1.864   5.700  12.610  1.1882  0.3550  0.7372
12240TIP3   OH258134   4.723   1.554  13.299 -0.1540 -0.2555 -0.0676
12240TIP3    H158135   4.639   1.584  13.265 -0.4006 -0.7033  0.1514
12240TIP3    H258136   4.764   1.634  13.334 -0.1132  0.1139 -0.9424
12241TIP3   OH258137   4.979   6.782  17.047  0.0086 -0.0266 -0.5095
12241TIP3    H158138   5.044   6.728  17.001 -0.4726 -1.3800  0.3546
12241TIP3    H258139   4.919   6.810  16.977  0.3971 -0.4374 -1.0215
12242TIP3   OH258140   0.603   0.123   5.437  0.1212  0.5320 -0.7005
12242TIP3    H158141   0.534   0.159   5.381 -1.5212  0.0219  0.9216
12242TIP3    H258142   0.597   0.175   5.517  1.7912  0.6272 -0.6344
12243TIP3   OH258143   6.784   2.803  14.021  0.7909  0.1822  0.3011
12243TIP3    H158144   6.718   2.838  13.961  0.1763  0.0747  0.9099
12243TIP3    H258145   6.748   2.819  14.108  2.4611  1.8934  0.7113
12244TIP3   OH258146   6.757   6.034  14.395 -0.6387 -0.1098  0.0680
12244TIP3    H158147   6.703   5.963  14.430  0.1435 -1.0783 -0.6727
12244TIP3    H258148   6.770   6.092  14.470 -1.6315 -0.5199  0.5775
12245TIP3   OH258149   0.312   4.682  11.150  0.5184 -0.0968 -0.0319
12245TIP3    H158150   0.248   4.639  11.205 -0.6408  0.2675 -1.0662
12245TIP3    H258151   0.298   4.645  11.063  2.5035 -0.8751 -0.0610
12246TIP3   OH258152   3.860   0.752  10.326  0.2446  0.0977  0.0599
12246TIP3    H158153   3.951   0.766  10.351  0.4227 -0.5394 -0.2405
12246TIP3    H258154   3.838   0.666  10.360 -0.6836  0.8346  1.3803
12247TIP3   OH258155   6.307   3.102   0.270 -0.5163  0.1232  0.0012
12247TIP3    H158156   6.276   3.037   0.333  0.7339  0.3295  0.8401
12247TIP3    H258157   6.304   3.056   0.186 -0.3525 -0.7717  0.4789
12248TIP3   OH258158   5.834   6.026   1.720 -0.2531  0.4002  0.1451
12248TIP3    H158159   5.819   6.069   1.636 -0.4363  1.5677  0.7695
12248TIP3    H258160   5.915   6.064   1.753  0.4976 -0.9658 -0.0645
12249TIP3   OH258161   5.547   0.900   2.503  0.2717  0.4973  0.6887
12249TIP3    H158162   5.504   0.964   2.447  1.6499 -0.4110 -1.4830
12249TIP3    H258163   5.635   0.935   2.516 -0.3545  1.2350  3.2338
12250TIP3   OH258164   1.197   5.989   6.090 -0.4783  0.1933  0.6221
12250TIP3    H158165   1.167   6.074   6.056  1.7557 -0.6909 -4.0238
12250TIP3    H258166   1.127   5.928   6.068 -0.3584  0.1649  0.3089
12251TIP3   OH258167   1.142   1.777  12.780  0.1930 -0.0350 -0.5510
12251TIP3    H158168   1.110   1.687  12.773  0.4380 -0.2289  0.7440
12251TIP3    H258169   1.134   1.798  12.873  0.3122  1.2219 -0.8200
12252TIP3   OH258170   5.580   1.513  13.239 -0.2005  0.1773  0.3872
12252TIP3    H158171   5.633   1.464  13.301  2.2473  1.1988 -0.8324
12252TIP3    H258172   5.578   1.459  13.160 -0.7082  0.2774  0.3293
12253TIP3   OH258173   5.022   2.611  14.109  0.5314 -0.7087  0.1586
12253TIP3    H158174   4.994   2.532  14.061 -0.8384 -0.8062  1.0887
12253TIP3    H258175   5.071   2.577  14.184  2.8044 -0.5514 -1.2028
12254TIP3   OH258176   5.104   3.681  11.208 -0.2546  1.0943 -0.2827
12254TIP3    H158177   5.156   3.756  11.180  1.0796  0.8254  1.3444
12254TIP3    H258178   5.163   3.606  11.198 -0.5308  0.6889  0.9542
12255TIP3   OH258179   2.553   4.086  15.271  0.5127 -0.1855  0.0839
12255TIP3    H158180   2.493   4.152  15.235  0.2203 -0.0531  0.8148
12255TIP3    H258181   2.555   4.104  15.365  0.5854 -1.1027  0.2588
12256TIP3   OH258182   1.061   3.790   6.586 -0.3027 -0.3423 -0.7526
12256TIP3    H158183   1.139   3.757   6.631 -0.4582  2.0498  1.4202
12256TIP3    H258184   1.092   3.815   6.499  1.0665 -0.6217 -0.3586
12257TIP3   OH258185   4.507   4.894   6.491 -0.2143 -0.4668 -0.4857
12257TIP3    H158186   4.588   4.895   6.440  0.3409 -0.3903  0.3876
12257TIP3    H258187   4.515   4.969   6.550 -0.1765 -1.4411  0.7663
12258TIP3   OH258188   1.786   1.010  13.870 -0.1662 -0.6069  0.0782
12258TIP3    H158189   1.855   0.944  13.865 -0.6429 -1.1810  1.0284
12258TIP3    H258190   1.736   0.987  13.948 -0.5310  0.6916  0.2363
12259TIP3   OH258191   4.051   2.971   3.430  0.0646  0.2360 -0.7571
12259TIP3    H158192   4.106   2.991   3.506 -0.0034  1.0798 -0.9246
12259TIP3    H258193   4.100   2.906   3.381  0.5371  0.3774 -0.4713
12260TIP3   OH258194   4.094   0.378  14.565  0.2508  0.0860 -0.7778
12260TIP3    H158195   4.015   0.326  14.554  0.3239 -0.1199 -0.3168
12260TIP3    H258196   4.110   0.379  14.659 -0.6719  2.2908 -0.6064
12261TIP3   OH258197   4.143   4.500   3.430  0.2696 -0.0102 -0.4444
12261TIP3    H158198   4.210   4.450   3.477 -0.4407 -2.3967 -1.8875
12261TIP3    H258199   4.122   4.573   3.489  0.8928 -1.7478  1.9968
12262TIP3   OH258200   1.957   1.190  15.373  0.0610  0.4932 -0.1648
12262TIP3    H158201   1.910   1.117  15.412  1.9520 -0.5719  0.1482
12262TIP3    H258202   1.889   1.257  15.359 -1.1862 -0.2325  2.1439
12263TIP3   OH258203   0.260   3.715   2.669 -0.5976 -0.0851 -0.0435
12263TIP3    H158204   0.167   3.739   2.680 -0.1111  2.0233 -0.1902
12263TIP3    H258205   0.262   3.621   2.682 -2.7391 -0.1307  0.2261
12264TIP3   OH258206   0.847   4.859  13.719 -0.0676 -0.1013  0.1329
12264TIP3    H158207   0.877   4.805  13.647 -2.1941 -1.0851 -0.0396
12264TIP3    H258208   0.829   4.944  13.680  1.0834  0.0720 -0.0298
12265TIP3   OH258209   4.016   5.752  13.537 -0.1644 -0.0609  0.4549
12265TIP3    H158210   4.030   5.698  13.459  1.8585  2.1694 -0.7695
12265TIP3    H258211   4.076   5.717  13.602  1.4007  0.8828 -0.4493
12266TIP3   OH258212   1.322   5.680  16.522  0.1434 -0.1017  0.3567
12266TIP3    H158213   1.308   5.728  16.440  0.0078 -0.7648 -0.0229
12266TIP3    H258214   1.355   5.745  16.584 -0.4899  0.5713 -0.0078
12267TIP3   OH258215   2.845   5.037  14.748  0.1076  0.2262  0.1030
12267TIP3    H158216   2.871   5.025  14.840  1.2740 -1.5655 -0.4256
12267TIP3    H258217   2.840   4.948  14.713  1.0038  0.9391 -1.9269
12268TIP3   OH258218   3.607   3.725   4.139  0.6177  0.6271  0.0333
12268TIP3    H158219   3.619   3.631   4.153 -0.4880  0.1715 -1.8849
12268TIP3    H258220   3.676   3.766   4.191  1.5375 -1.2671  0.3494
12269TIP3   OH258221   0.093   0.692  15.620  0.3589  0.0635 -0.7914
12269TIP3    H158222   0.116   0.660  15.707  0.3995  0.9193 -0.4827
12269TIP3    H258223   0.161   0.757  15.600 -0.1203  0.4732 -1.1096
12270TIP3   OH258224   3.622   4.283   4.311 -0.0054  0.6945  0.5030
12270TIP3    H158225   3.628   4.189   4.296 -0.2705  0.6076  0.9492
12270TIP3    H258226   3.599   4.292   4.403 -2.4836  1.1351 -0.1426
12271TIP3   OH258227   6.765   5.548  12.159 -0.2185  0.0441  0.0066
12271TIP3    H158228   6.720   5.504  12.231  1.0546  0.2224  0.9185
12271TIP3    H258229   6.734   5.503  12.080 -1.6416 -0.1368  0.6562
12272TIP3   OH258230   3.353   2.386  16.774 -0.1856  0.4343  0.1808
12272TIP3    H158231   3.437   2.427  16.797  0.3218 -0.4759 -0.0469
12272TIP3    H258232   3.303   2.456  16.732  0.3666  1.0484  0.5384
12273TIP3   OH258233   5.828   0.071  16.678  0.0450 -0.1447 -0.3443
12273TIP3    H158234   5.761   0.031  16.623 -0.2603  1.4657 -1.1974
12273TIP3    H258235   5.908   0.065  16.626  0.5708 -2.0214  0.6547
12274TIP3   OH258236   5.635   1.816  17.162  0.1134 -0.3128 -0.5595
12274TIP3    H158237   5.686   1.897  17.162  1.6047 -1.1862 -3.1236
12274TIP3    H258238   5.557   1.837  17.109 -0.6753  0.1017  0.7403
12275TIP3   OH258239   1.969   0.648  11.893 -0.3576 -0.1042 -0.0072
12275TIP3    H158240   2.001   0.691  11.972 -1.3227  0.0062  0.3306
12275TIP3    H258241   1.939   0.720  11.837  0.2667 -0.1855 -0.4464
12276TIP3   OH258242   1.474   0.107  15.432 -0.5101 -0.3314 -0.5127
12276TIP3    H158243   1.527   0.097  15.511  0.2503 -1.7115 -1.1720
12276TIP3    H258244   1.484   0.023  15.387  0.4122  1.0307 -2.8958
12277TIP3   OH258245   0.526   6.274  12.219  0.0033  0.0564  0.4175
12277TIP3    H158246   0.596   6.318  12.267 -0.0971 -1.9631  2.4701
12277TIP3    H258247   0.494   6.340  12.157  1.0211  2.2934  2.2276
12278TIP3   OH258248   1.013   1.349   5.079  0.9870  0.3110 -0.0507
12278TIP3    H158249   1.047   1.340   4.990 -0.1419  0.7444 -0.5413
12278TIP3    H258250   1.021   1.261   5.117 -0.2605 -0.3217 -1.2245
12279TIP3   OH258251   6.204   4.648   1.225 -0.6421 -0.1201 -0.2440
12279TIP3    H158252   6.188   4.604   1.141  2.6284 -0.8049 -0.5866
12279TIP3    H258253   6.206   4.577   1.289  0.8363 -0.0814 -0.2243
12280TIP3   OH258254   4.977   3.581  12.491  0.2852  0.0117  0.8373
12280TIP3    H158255   4.896   3.532  12.496  0.0395  0.3788  0.5031
12280TIP3    H258256   4.963   3.657  12.548  0.5533 -0.1503  1.1220
12281TIP3   OH258257   0.982   0.829  15.536 -0.1594 -0.3409  0.0735
12281TIP3    H158258   0.902   0.776  15.525 -0.2001 -0.1379 -0.6193
12281TIP3    H258259   0.963   0.886  15.611  0.4139 -2.2860  1.7454
12282TIP3   OH258260   6.259   4.417  13.307 -0.5795 -1.0938  0.3118
12282TIP3    H158261   6.317   4.468  13.251 -1.4833 -1.2246 -0.7747
12282TIP3    H258262   6.187   4.391  13.249  0.6139 -4.8973  0.4400
12283TIP3   OH258263   5.038   5.185  14.901 -0.3641 -0.3949  0.0438
12283TIP3    H158264   5.059   5.166  14.810 -0.9450 -0.8552  0.0028
12283TIP3    H258265   5.075   5.111  14.950 -1.1461 -0.7864  0.0533
12284TIP3   OH258266   6.331   4.688  13.136 -0.4116 -0.4369  0.2189
12284TIP3    H158267   6.238   4.669  13.146 -0.6507  0.3440 -0.4924
12284TIP3    H258268   6.342   4.775  13.176  0.0402 -0.5869  0.4275
12285TIP3   OH258269   0.758   1.850   3.313 -0.0740 -0.0130 -0.3908
12285TIP3    H158270   0.664   1.863   3.300 -0.0944 -0.2331 -0.4492
12285TIP3    H258271   0.765   1.810   3.400  0.0524  1.3206  0.2389
12286TIP3   OH258272   0.031   1.265   2.040 -0.4539 -0.2968 -0.2477
12286TIP3    H158273   0.072   1.221   1.966 -0.3158 -0.4766 -0.0655
12286TIP3    H258274   0.100   1.273   2.105 -1.0645 -1.8592  0.6102
12287TIP3   OH258275   3.630   3.813   0.761 -0.4304 -0.2682 -0.4161
12287TIP3    H158276   3.661   3.762   0.835 -0.4633  0.5527  0.1704
12287TIP3    H258277   3.543   3.777   0.741 -1.3656  0.9316  1.3383
12288TIP3   OH258278   3.811   4.400   6.516  0.3179 -0.1257  0.7437
12288TIP3    H158279   3.882   4.434   6.462 -0.0690 -1.9337 -0.9749
12288TIP3    H258280   3.850   4.328   6.566 -0.7574 -2.7519 -2.0070
12289TIP3   OH258281   1.084   3.959   2.695 -0.2762 -0.3932 -0.2227
12289TIP3    H158282   1.065   4.019   2.767 -0.9471  0.3030 -0.9756
12289TIP3    H258283   1.163   3.913   2.722  0.0106  0.5452  0.5378
12290TIP3   OH258284   0.499   3.552  15.333 -0.0075 -0.1906 -0.2455
12290TIP3    H158285   0.586   3.590  15.342  0.5650 -0.7077 -3.0602
12290TIP3    H258286   0.440   3.628  15.325  0.4530  0.1557 -0.3674
12291TIP3   OH258287   5.775   6.145   4.571 -0.1116  0.1466  0.7996
12291TIP3    H158288   5.817   6.227   4.598 -2.0814  1.1947  0.7784
12291TIP3    H258289   5.739   6.164   4.484  0.0329 -0.9787  0.4836
12292TIP3   OH258290   4.989   2.293  12.217  0.2226  1.0703  0.3232
12292TIP3    H158291   4.941   2.375  12.226  1.0832  1.4910  1.2282
12292TIP3    H258292   5.009   2.267  12.307 -0.2963 -0.2963  0.0596
12293TIP3   OH258293   0.811   6.642  12.462  0.8466  0.5717 -0.8834
12293TIP3    H158294   0.769   6.690  12.533  0.4509  2.0526 -2.1111
12293TIP3    H258295   0.889   6.603  12.503 -0.2584  0.0011  0.7615
12294TIP3   OH258296   6.610   5.895   0.083 -0.2182  0.5941  0.7595
12294TIP3    H158297   6.612   5.877   0.177  0.8446  2.0527  1.0232
12294TIP3    H258298   6.606   5.809   0.042  0.8910 -0.1020  2.0980
12295TIP3   OH258299   5.719   6.252   5.002 -0.1532  0.1302  0.7089
12295TIP3    H158300   5.674   6.278   4.922 -1.0868 -2.9243  0.1499
12295TIP3    H258301   5.739   6.334   5.047  1.0061  1.9663 -2.9410
12296TIP3   OH258302   1.919   0.554  14.108  0.4491  0.0837  0.6895
12296TIP3    H158303   1.963   0.566  14.023 -1.1462 -1.2434 -0.3629
12296TIP3    H258304   1.828   0.578  14.091 -0.1250 -1.2810  1.7208
12297TIP3   OH258305   5.404   0.562  13.941 -0.3185 -0.0272 -0.3525
12297TIP3    H158306   5.377   0.510  14.017  0.9790  0.2647  0.3117
12297TIP3    H258307   5.391   0.653  13.968 -2.0920  0.0439 -1.3359
12298TIP3   OH258308   0.802   5.592  10.814 -0.2569 -0.3061 -0.7646
12298TIP3    H158309   0.795   5.555  10.902  1.5963 -0.7581 -0.7875
12298TIP3    H258310   0.871   5.658  10.821 -0.8264  0.3881 -1.6406
12299TIP3   OH258311   4.267   5.504   1.077  0.5155 -0.0258  0.6038
12299TIP3    H158312   4.224   5.588   1.069 -0.0358 -0.4285 -0.8996
12299TIP3    H258313   4.210   5.452   1.133 -1.2257 -0.6909 -1.6956
12300TIP3   OH258314   4.041   2.296   3.318  0.2546 -0.5969 -0.0708
12300TIP3    H158315   4.106   2.235   3.354  0.6689 -0.4844 -0.6227
12300TIP3    H258316   3.974   2.301   3.386  0.9660 -0.4806  0.6419
12301TIP3   OH258317   3.552   5.740  12.913  0.1634 -0.1574 -0.5823
12301TIP3    H158318   3.614   5.740  12.987 -1.2650  2.5729  0.7083
12301TIP3    H258319   3.595   5.793  12.846  0.6172 -1.0046 -0.9685
12302TIP3   OH258320   6.230   4.879   1.039 -0.3866  0.1253  0.0645
12302TIP3    H158321   6.282   4.956   1.065  2.4745 -1.5660 -0.4115
12302TIP3    H258322   6.164   4.871   1.107 -0.6079  2.8752  0.2452
12303TIP3   OH258323   1.271   0.066  12.009  0.0388 -0.3891  0.1898
12303TIP3    H158324   1.209   0.002  12.044 -0.0133 -0.2255  0.3955
12303TIP3    H258325   1.251   0.069  11.916 -1.7333  1.2794  0.5955
12304TIP3   OH258326   6.313   6.667  15.631  0.5447 -0.2165  0.2882
12304TIP3    H158327   6.227   6.628  15.614  0.3840  0.2358  0.0702
12304TIP3    H258328   6.374   6.613  15.581  0.2803  0.0201 -0.2901
12305TIP3   OH258329   0.558   0.287   1.279 -0.5222  0.2610  0.3918
12305TIP3    H158330   0.490   0.354   1.282 -0.9910 -0.2312  0.8950
12305TIP3    H258331   0.640   0.335   1.282 -0.8436  0.8994 -0.9513
12306TIP3   OH258332   3.687   0.566   2.694 -0.0082 -0.3279  0.5918
12306TIP3    H158333   3.649   0.653   2.679 -1.0226 -0.6547  1.2225
12306TIP3    H258334   3.615   0.515   2.730  1.0333 -0.9768  1.7632
12307TIP3   OH258335   1.818   0.186  13.727  0.4679 -0.1246  1.4189
12307TIP3    H158336   1.725   0.166  13.739  0.6798 -0.8132  1.9326
12307TIP3    H258337   1.857   0.167  13.813  1.3536 -1.3790  0.7483
12308TIP3   OH258338   5.479   0.068  16.942 -0.5762 -0.2694  0.7914
12308TIP3    H158339   5.425   0.086  16.866 -0.9028  1.5696  1.4279
12308TIP3    H258340   5.507  -0.023  16.931 -2.3402 -0.6885 -0.4366
12309TIP3   OH258341   6.522   1.849   0.804 -0.6405 -0.1759  0.5125
12309TIP3    H158342   6.610   1.815   0.819 -0.1175  0.5946 -0.7216
12309TIP3    H258343   6.488   1.866   0.892  0.7968  0.3713  0.9885
12310TIP3   OH258344   6.659   1.388   4.779  0.1899  0.1064  0.0624
12310TIP3    H158345   6.633   1.375   4.688 -0.9912 -0.9848  0.5468
12310TIP3    H258346   6.595   1.339   4.830  2.6193 -1.8897  1.3304
12311TIP3   OH258347   3.104   5.763   4.681  1.0273 -0.5766  0.3332
12311TIP3    H158348   3.138   5.791   4.766 -1.1482 -1.4729  1.5384
12311TIP3    H258349   3.010   5.782   4.685  0.5232 -2.5969 -1.0220
12312TIP3   OH258350   1.731   0.706  13.723  0.4561 -0.4343 -0.3917
12312TIP3    H158351   1.780   0.710  13.805  1.1149 -1.2121 -0.7394
12312TIP3    H258352   1.799   0.702  13.655 -0.0388  2.0748 -1.0969
12313TIP3   OH258353   6.019   4.649   2.106  0.0421  0.4601 -0.1801
12313TIP3    H158354   6.090   4.666   2.044  0.6008 -1.4468 -0.1184
12313TIP3    H258355   5.978   4.734   2.120  1.4439  1.3493 -1.2888
12314TIP3   OH258356   1.547   6.511  16.884 -0.3556  0.6015 -0.0275
12314TIP3    H158357   1.592   6.594  16.897  2.4774 -0.5164 -2.0553
12314TIP3    H258358   1.614   6.445  16.901 -2.1000 -1.2335 -0.0552
12315TIP3   OH258359   4.123   0.438  13.002  0.2908  0.2478  0.5177
12315TIP3    H158360   4.178   0.487  12.941 -0.8602 -0.4539 -1.1490
12315TIP3    H258361   4.060   0.501  13.034 -1.5506 -0.2031 -2.0637
12316TIP3   OH258362   6.388   3.899  12.257 -0.8887 -0.2489 -0.0454
12316TIP3    H158363   6.351   3.956  12.325 -0.8162 -1.3622  0.9479
12316TIP3    H258364   6.454   3.954  12.214 -0.5703  0.3113  1.1267
12317TIP3   OH258365   4.735   1.863   1.555 -0.0897 -0.4399 -0.1091
12317TIP3    H158366   4.768   1.903   1.636  0.5666  0.0986 -0.6386
12317TIP3    H258367   4.738   1.769   1.572 -0.0484 -0.3277  0.5263
12318TIP3   OH258368   1.426   2.994   3.290 -0.6733 -0.4156 -0.1904
12318TIP3    H158369   1.427   3.075   3.341  4.3394 -1.4707  1.6533
12318TIP3    H258370   1.460   3.020   3.204 -0.2995 -0.3258 -0.0169
12319TIP3   OH258371   0.140   0.442  13.188  0.1914 -0.7124 -0.2031
12319TIP3    H158372   0.081   0.517  13.195 -2.0815 -2.4522 -0.3348
12319TIP3    H258373   0.194   0.461  13.112  0.3508  1.2666  0.3801
12320TIP3   OH258374   3.612   5.077  13.164 -0.3756 -0.7093  0.1535
12320TIP3    H158375   3.619   5.157  13.112  1.4963  0.5428  2.2639
12320TIP3    H258376   3.520   5.075  13.192 -0.4481  0.6914  0.0609
12321TIP3   OH258377   2.019   4.663   1.351 -0.4715 -0.6230 -0.3468
12321TIP3    H158378   1.951   4.725   1.326 -0.9447 -1.5220 -1.3578
12321TIP3    H258379   2.014   4.659   1.446 -1.3612 -0.1388 -0.3642
12322TIP3   OH258380   4.177   2.198  11.932 -0.3282 -0.0655 -0.8349
12322TIP3    H158381   4.215   2.269  11.880 -1.5366  0.7313 -0.6580
12322TIP3    H258382   4.234   2.190  12.008 -1.7574  2.6547  0.5711
12323TIP3   OH258383   4.426   5.777  14.800  0.3179  0.0476  0.0376
12323TIP3    H158384   4.440   5.859  14.754  0.8310 -0.8709 -1.4791
12323TIP3    H258385   4.350   5.738  14.755  1.6027 -1.4387 -0.8765
12324TIP3   OH258386   5.674   4.833   0.707 -0.6973  0.0831 -0.0689
12324TIP3    H158387   5.623   4.895   0.758 -0.4309  0.0380  0.2548
12324TIP3    H258388   5.721   4.781   0.772 -0.0987  0.2459 -0.3667
12325TIP3   OH258389   1.502   3.695  13.895 -0.1836 -0.3576 -0.0151
12325TIP3    H158390   1.534   3.675  13.983 -0.3823  0.3218  0.2132
12325TIP3    H258391   1.451   3.776  13.905 -1.2902 -0.9779 -0.5135
12326TIP3   OH258392   1.579   6.497   1.942 -0.6463 -0.0623 -0.0115
12326TIP3    H158393   1.511   6.522   2.005 -0.3204  0.1567  0.2526
12326TIP3    H258394   1.602   6.407   1.966  0.5210  0.5313  1.1054
12327TIP3   OH258395   5.090   0.524   2.325 -0.0767  0.0632  0.3123
12327TIP3    H158396   4.999   0.494   2.324 -0.0162 -0.1350  0.7888
12327TIP3    H258397   5.114   0.526   2.418  0.1398  0.9209  0.2447
12328TIP3   OH258398   5.773   1.126  12.214  0.7070 -0.4583 -0.2292
12328TIP3    H158399   5.774   1.215  12.178  1.0986 -0.8895 -1.2836
12328TIP3    H258400   5.855   1.088  12.185  0.6450 -1.0958  0.4289
12329TIP3   OH258401   0.902   4.111  14.374 -0.1572 -0.0008  0.0119
12329TIP3    H158402   0.824   4.074  14.333  0.0556 -0.0420 -0.3489
12329TIP3    H258403   0.871   4.194  14.411 -0.1158  0.4979 -1.0695
12330TIP3   OH258404   3.075   3.205   0.814  0.4443  0.4199 -0.4301
12330TIP3    H158405   2.996   3.158   0.842  0.8409  0.4501  0.7727
12330TIP3    H258406   3.045   3.296   0.805  0.6488  0.6897  1.4075
12331TIP3   OH258407   4.213   5.003   3.181 -0.6000 -0.5132  0.2087
12331TIP3    H158408   4.240   4.983   3.271  0.9422 -0.7885 -0.3055
12331TIP3    H258409   4.241   5.094   3.168 -0.7683 -0.4930 -0.0138
12332TIP3   OH258410   2.803   2.217  16.908 -0.1631 -0.6380 -0.0907
12332TIP3    H158411   2.806   2.310  16.930 -2.0262 -1.0714  2.2678
12332TIP3    H258412   2.819   2.214  16.814 -2.4712  2.2779 -0.6515
12333TIP3   OH258413   3.535   3.654  13.231  0.3375 -0.0920 -0.2918
12333TIP3    H158414   3.492   3.576  13.266  1.1312 -0.6051 -0.4447
12333TIP3    H258415   3.628   3.639  13.245  0.4988  0.8449 -0.2944
12334TIP3   OH258416   0.119   1.788  10.926  0.0833 -0.7198  0.1874
12334TIP3    H158417   0.085   1.865  10.972  0.2516 -0.9196  0.6471
12334TIP3    H258418   0.173   1.743  10.991 -1.2120 -2.0357  0.3649
12335TIP3   OH258419   0.525   6.011   1.986  0.3113  0.1346  0.5829
12335TIP3    H158420   0.616   6.005   2.017  0.7460 -0.9383 -0.8308
12335TIP3    H258421   0.533   6.045   1.897 -0.5086 -2.0065 -0.3291
12336TIP3   OH258422   5.134   3.178  13.663 -0.4903 -0.0106 -0.6759
12336TIP3    H158423   5.221   3.167  13.701 -0.3769 -0.2958 -1.0158
12336TIP3    H258424   5.115   3.272  13.673 -1.3247 -0.4286  1.9262
12337TIP3   OH258425   3.578   5.343  15.095  0.3822  0.1457 -1.0211
12337TIP3    H158426   3.641   5.284  15.054 -0.5313 -1.4352 -0.1926
12337TIP3    H258427   3.500   5.340  15.039  0.0424 -0.0509 -0.5404
12338TIP3   OH258428   2.123   2.821   2.520  0.3637 -0.1017 -0.0643
12338TIP3    H158429   2.095   2.817   2.611 -2.6640 -0.0829 -0.9470
12338TIP3    H258430   2.043   2.806   2.469  1.5256  2.1660 -2.7373
12339TIP3   OH258431   5.811   4.306   2.981 -0.3970 -0.2412  0.6894
12339TIP3    H158432   5.868   4.369   2.937 -1.2229  0.6367  0.8843
12339TIP3    H258433   5.773   4.254   2.910 -1.2663  0.7882  0.3940
12340TIP3   OH258434   2.774   2.031  13.782  0.3978 -0.1580 -0.3306
12340TIP3    H158435   2.692   2.076  13.761  0.8202  0.6181 -0.3221
12340TIP3    H258436   2.765   1.945  13.741  0.9992  1.1148 -3.2537
12341TIP3   OH258437   4.969   5.316  11.696  0.2435 -0.1445  0.2393
12341TIP3    H158438   4.918   5.346  11.771 -1.3762  0.5992 -1.1006
12341TIP3    H258439   4.923   5.238  11.666  0.3525  0.0787 -0.5160
12342TIP3   OH258440   4.316   5.093  16.563  0.6012  0.0858 -0.7771
12342TIP3    H158441   4.363   5.010  16.571  0.0804 -0.0196  1.5502
12342TIP3    H258442   4.379   5.153  16.524  1.9632 -0.6457  0.2387
12343TIP3   OH258443   4.828   1.712   1.858 -0.9225 -0.3259  0.2256
12343TIP3    H158444   4.831   1.669   1.773  0.8477  0.0285  0.0966
12343TIP3    H258445   4.831   1.641   1.921  2.2712 -0.4198  0.0153
12344TIP3   OH258446   1.366   4.008   4.204 -0.0032  0.0309 -0.3020
12344TIP3    H158447   1.349   4.097   4.172 -0.7795  0.1355  0.3933
12344TIP3    H258448   1.311   3.999   4.281 -2.9739 -2.4313 -2.5458
12345TIP3   OH258449   0.581   2.392   3.229  0.2045 -0.3461 -0.3795
12345TIP3    H158450   0.542   2.463   3.281 -1.5965 -0.8097 -1.0416
12345TIP3    H258451   0.614   2.436   3.150 -0.9060 -0.2325 -0.7882
12346TIP3   OH258452   0.155   5.297   4.441  0.2056  0.4148  0.6016
12346TIP3    H158453   0.245   5.315   4.414 -0.3031 -0.4674 -1.8959
12346TIP3    H258454   0.106   5.292   4.358 -2.2684  1.5314  1.9273
12347TIP3   OH258455   2.019   0.291  10.621 -0.6425 -0.4694 -0.0562
12347TIP3    H158456   1.996   0.215  10.567 -0.4633  0.3372 -1.2814
12347TIP3    H258457   2.112   0.279  10.641 -0.9772 -1.3491  1.0383
12348TIP3   OH258458   6.050   4.031   5.126 -0.2280 -0.1888 -0.4575
12348TIP3    H158459   6.111   4.067   5.191  0.9264 -1.1289 -1.0118
12348TIP3    H258460   5.971   4.083   5.137  0.5478  0.8151  0.5209
12349TIP3   OH258461   3.547   0.438   3.519 -0.2295 -0.1858 -0.1323
12349TIP3    H158462   3.605   0.512   3.536 -0.8065  0.3187 -0.3488
12349TIP3    H258463   3.606   0.369   3.487  0.5269 -0.3427  1.5453
12350TIP3   OH258464   0.639   3.330   3.065 -0.0446 -0.0705 -0.0700
12350TIP3    H158465   0.710   3.332   3.130 -1.4020 -0.1348  1.4472
12350TIP3    H258466   0.648   3.245   3.022  1.1261  0.1460 -0.2565
12351TIP3   OH258467   2.191   4.955  16.964  0.5860 -0.2728 -0.1067
12351TIP3    H158468   2.205   4.879  17.021 -0.8146 -0.0953  0.5048
12351TIP3    H258469   2.097   4.971  16.969  0.1987 -1.1093 -3.5724
12352TIP3   OH258470   6.507   4.384   0.893  0.1181 -0.0695 -0.0197
12352TIP3    H158471   6.496   4.479   0.892  0.9056  0.0661  2.0885
12352TIP3    H258472   6.556   4.364   0.813  1.9784  1.5565  0.6974
12353TIP3   OH258473   5.383   3.972   0.691 -0.1332  0.5188  0.0022
12353TIP3    H158474   5.401   3.897   0.635  0.0038  1.9477 -1.9092
12353TIP3    H258475   5.469   4.011   0.708 -0.3789  1.2988 -0.5238
12354TIP3   OH258476   3.112   0.092   2.894  0.3033  0.3413 -0.1632
12354TIP3    H158477   3.164   0.063   2.819 -0.7279 -0.5306 -0.5441
12354TIP3    H258478   3.118   0.020   2.957  0.3075  0.6293  0.1703
12355TIP3   OH258479   4.981   4.118   5.495  0.4503  0.4888  0.1975
12355TIP3    H158480   4.937   4.154   5.418 -0.4097  0.2549  0.5797
12355TIP3    H258481   4.911   4.079   5.546  1.2147 -0.6076  0.4134
12356TIP3   OH258482   2.281   6.313  13.295  0.3608 -0.0893  0.2262
12356TIP3    H158483   2.210   6.270  13.344  0.4452  0.2978  0.6928
12356TIP3    H258484   2.253   6.404  13.288  0.8743  0.0932  0.5266
12357TIP3   OH258485   4.046   1.988  14.006 -0.2002 -0.0342  0.1328
12357TIP3    H158486   4.125   2.008  13.955 -0.2913 -0.6512 -0.2548
12357TIP3    H258487   3.980   1.968  13.940 -0.4220 -0.4547  0.4843
12358TIP3   OH258488   4.483   0.296   4.221  0.6654  0.1212  0.4498
12358TIP3    H158489   4.543   0.257   4.157  0.9639 -0.1762  0.9042
12358TIP3    H258490   4.415   0.338   4.168  0.3324 -1.0231 -0.0662
12359TIP3   OH258491   5.991   6.042   2.183  0.1786 -0.1970  0.0572
12359TIP3    H158492   5.972   6.115   2.124  1.0074  1.7952  2.1784
12359TIP3    H258493   6.021   5.972   2.125 -0.0543  1.3374 -1.9838
12360TIP3   OH258494   1.148   3.435   0.420 -0.3117 -0.1004  0.3359
12360TIP3    H158495   1.115   3.485   0.495 -1.3097 -0.3144  0.0466
12360TIP3    H258496   1.122   3.345   0.437  1.0923 -0.4598  0.6334
12361TIP3   OH258497   2.239   2.696  12.282 -0.2693 -0.4737 -0.8105
12361TIP3    H158498   2.282   2.612  12.299 -0.8375 -0.6692 -0.2785
12361TIP3    H258499   2.304   2.761  12.306 -0.9974 -0.7460  2.2216
12362TIP3   OH258500   4.627   6.119  13.052 -0.4833  0.8052 -0.0348
12362TIP3    H158501   4.584   6.127  12.966  0.3282 -1.2712 -0.6504
12362TIP3    H258502   4.556   6.098  13.112 -0.4610 -2.0343 -0.9556
12363TIP3   OH258503   3.864   4.234   4.892  0.4106 -0.3943 -0.0796
12363TIP3    H158504   3.857   4.283   4.974  2.5731 -0.0558 -0.0656
12363TIP3    H258505   3.890   4.299   4.827 -1.0329 -0.7156 -1.0027
12364TIP3   OH258506   2.407   0.499   4.063  0.2983  0.1029 -0.3656
12364TIP3    H158507   2.451   0.529   3.983  0.6336  1.5388  0.3386
12364TIP3    H258508   2.475   0.451   4.111  0.6431  0.8825 -0.0606
12365TIP3   OH258509   0.054   2.407   2.988 -0.1448  0.4062 -0.2746
12365TIP3    H158510   0.094   2.494   2.981  1.5184 -0.3722 -0.8800
12365TIP3    H258511   0.091   2.359   2.914 -0.0071 -1.2110  0.8286
12366TIP3   OH258512   4.483   6.672  14.067 -0.0460  0.4994 -0.1930
12366TIP3    H158513   4.444   6.609  14.128 -0.2167 -1.2556 -2.0477
12366TIP3    H258514   4.568   6.633  14.044  0.7727  1.9876  0.2280
12367TIP3   OH258515   4.326   2.955   4.779  0.1309  0.1926 -0.1336
12367TIP3    H158516   4.381   3.025   4.744 -0.2831  0.4039 -0.3640
12367TIP3    H258517   4.259   3.001   4.830 -0.1420 -0.0377 -0.2857
12368TIP3   OH258518   1.959   4.388  13.779 -0.4216  0.0214  0.1552
12368TIP3    H158519   2.004   4.410  13.698  0.1749  0.8183  0.6989
12368TIP3    H258520   2.029   4.360  13.838 -0.5194  2.0382  1.2714
12369TIP3   OH258521   6.782   5.062  13.629 -0.0813  0.0081  0.1458
12369TIP3    H158522   6.851   5.127  13.643 -0.8633  0.5572  1.5962
12369TIP3    H258523   6.717   5.081  13.697 -0.7041 -1.7810  0.0883
12370TIP3   OH258524   1.263   0.315   3.756  0.1567  0.1410 -0.0630
12370TIP3    H158525   1.358   0.312   3.746  0.2185  0.1613  0.4749
12370TIP3    H258526   1.245   0.259   3.832 -0.5947 -2.6940 -2.2348
12371TIP3   OH258527   2.374   1.542   5.746 -0.4282 -0.0914  0.2168
12371TIP3    H158528   2.284   1.534   5.780  1.2589  0.1510  5.0990
12371TIP3    H258529   2.395   1.634   5.756  0.0780  0.0488 -1.8999
12372TIP3   OH258530   5.604   6.067   1.876  0.5836 -0.0520 -0.1315
12372TIP3    H158531   5.680   6.031   1.830  1.1191 -0.3558  0.9719
12372TIP3    H258532   5.550   6.104   1.807  1.1751 -0.8746 -1.0525
12373TIP3   OH258533   0.788   3.084   3.073  0.1022 -0.5053 -0.1094
12373TIP3    H158534   0.766   3.036   2.993  0.0392 -0.6181 -0.0239
12373TIP3    H258535   0.879   3.060   3.091  0.0034 -0.7642  0.0540
12374TIP3   OH258536   2.260   4.409  12.473 -0.8461 -0.4644  0.2863
12374TIP3    H158537   2.173   4.442  12.495 -1.2018 -1.2632  0.1129
12374TIP3    H258538   2.248   4.314  12.468 -0.2048 -0.4826 -0.8555
12375TIP3   OH258539   5.631   1.804   3.765 -0.3387  0.0373 -0.5571
12375TIP3    H158540   5.674   1.853   3.696  1.2511 -0.3319  0.1626
12375TIP3    H258541   5.701   1.755   3.808 -1.5623 -1.1247  0.1771
12376TIP3   OH258542   1.860   4.141  17.144 -0.6073 -0.4630 -0.5895
12376TIP3    H158543   1.952   4.141  17.117 -0.6853 -0.4544 -0.8539
12376TIP3    H258544   1.864   4.131  17.239 -0.3462 -0.8313 -0.6339
12377TIP3   OH258545   4.585   6.480  12.728 -0.6931 -0.3215 -0.1208
12377TIP3    H158546   4.582   6.399  12.677 -0.7190 -0.6721  0.4278
12377TIP3    H258547   4.679   6.499  12.738 -0.6831 -0.3798 -0.1003
12378TIP3   OH258548   2.661   2.578   4.129  0.1263  0.0963  0.1226
12378TIP3    H158549   2.730   2.577   4.062  0.4850 -0.8066  0.4908
12378TIP3    H258550   2.707   2.600   4.210 -0.1707  0.3690  0.2156
12379TIP3   OH258551   1.995   6.261   2.682  0.6042  0.0945 -0.4268
12379TIP3    H158552   2.037   6.198   2.624  1.0412  0.0971 -0.1188
12379TIP3    H258553   1.902   6.253   2.663  0.6582 -0.6385 -0.3899
12380TIP3   OH258554   1.941   4.544  14.788  0.1602  0.5526 -0.4887
12380TIP3    H158555   1.863   4.492  14.807  1.2341 -1.9365 -2.5340
12380TIP3    H258556   1.914   4.603  14.717  0.2098 -0.5771 -1.4660
12381TIP3   OH258557   5.033   1.192   5.565  0.1067 -0.0108 -0.0961
12381TIP3    H158558   5.036   1.106   5.608 -0.8367 -0.2799 -0.5578
12381TIP3    H258559   4.942   1.220   5.573 -0.6764 -1.1608 -4.0289
12382TIP3   OH258560   5.373   1.662  14.833  0.0548  0.2380 -0.1815
12382TIP3    H158561   5.411   1.716  14.902  2.8216 -1.5906 -0.1882
12382TIP3    H258562   5.441   1.597  14.814 -1.7257 -0.9365 -2.7427
12383TIP3   OH258563   4.703   5.766   3.488  0.2280 -0.2712 -0.1233
12383TIP3    H158564   4.624   5.782   3.436  0.4840 -1.2433 -0.7952
12383TIP3    H258565   4.708   5.671   3.497 -1.3884 -0.0982  4.0520
12384TIP3   OH258566   1.544   3.886   6.456 -0.1958  0.2788  0.1967
12384TIP3    H158567   1.495   3.804   6.457 -1.1419  0.8415  0.1512
12384TIP3    H258568   1.479   3.954   6.473  0.6587  0.9869  0.6705
12385TIP3   OH258569   4.636   2.680  12.907  0.7164 -0.1809 -0.2367
12385TIP3    H158570   4.731   2.680  12.895  0.8855  1.3528  0.9048
12385TIP3    H258571   4.624   2.717  12.995 -1.0012  1.1198 -0.9975
12386TIP3   OH258572   3.656   2.539   0.052 -0.0175  0.1759  0.8166
12386TIP3    H158573   3.637   2.633   0.051  0.2351  0.2259 -1.8453
12386TIP3    H258574   3.705   2.525   0.133 -0.5007  2.2449  1.4822
12387TIP3   OH258575   4.890   2.351  16.052 -0.0713 -0.0048 -0.4814
12387TIP3    H158576   4.830   2.350  16.126  0.4129  1.8133 -0.0314
12387TIP3    H258577   4.954   2.420  16.074  0.3531  0.2360 -2.3606
12388TIP3   OH258578   4.364   1.791  13.584 -0.0208 -0.3242 -0.4312
12388TIP3    H158579   4.416   1.715  13.559  0.0580 -0.2264 -0.5648
12388TIP3    H258580   4.371   1.795  13.679 -1.1630 -1.3103 -0.2894
12389TIP3   OH258581   5.203   6.342  11.766  0.2061 -0.1196 -0.0157
12389TIP3    H158582   5.267   6.351  11.837  1.4256 -2.1533 -0.8107
12389TIP3    H258583   5.206   6.249  11.743 -2.0990  0.0110 -0.9586
12390TIP3   OH258584   5.850   4.155   0.585  0.2738  0.1222 -0.0466
12390TIP3    H158585   5.786   4.104   0.636  0.1937  0.7870  0.5297
12390TIP3    H258586   5.865   4.233   0.637 -1.1220  1.6445 -1.8549
12391TIP3   OH258587   5.719   3.951   4.564  0.1749 -0.1175 -0.4312
12391TIP3    H158588   5.788   3.885   4.575  0.7973  0.7219  0.8476
12391TIP3    H258589   5.638   3.902   4.571  0.5773 -0.4384  3.2852
12392TIP3   OH258590   0.147   5.224  11.969 -0.2239 -0.3130  0.8679
12392TIP3    H158591   0.117   5.137  11.945 -1.4123  0.6509 -1.2858
12392TIP3    H258592   0.234   5.232  11.929  0.2434 -0.8004  1.7723
12393TIP3   OH258593   3.647   4.675  14.332  0.1961 -0.2066 -1.1358
12393TIP3    H158594   3.633   4.728  14.410  0.7811 -0.7216 -0.6861
12393TIP3    H258595   3.742   4.667  14.324  0.1224 -0.7853 -1.4815
12394TIP3   OH258596   2.070   5.325  14.188  0.6274  0.4438  0.0219
12394TIP3    H158597   2.102   5.401  14.139 -1.0465  1.4318  0.3986
12394TIP3    H258598   2.117   5.251  14.151  1.7951  1.5860 -0.8260
12395TIP3   OH258599   6.342   0.714   0.035  0.3769 -0.1582  0.4339
12395TIP3    H158600   6.375   0.803   0.047 -0.5159 -0.0356  2.3406
12395TIP3    H258601   6.255   0.725  -0.002 -0.6323 -0.0921  2.7187
12396TIP3   OH258602   6.451   3.737   6.004  0.1380 -0.0660 -0.5585
12396TIP3    H158603   6.391   3.808   5.981 -0.1389 -0.4119 -0.9285
12396TIP3    H258604   6.441   3.726   6.098 -2.4393 -1.9426 -0.9795
12397TIP3   OH258605   3.688   1.060   4.512 -0.3034  0.0626 -0.6260
12397TIP3    H158606   3.781   1.047   4.534 -0.3001 -0.9409 -1.1770
12397TIP3    H258607   3.687   1.138   4.457 -0.0202  1.2045  0.9683
12398TIP3   OH258608   0.233   5.381  11.427  0.3131 -0.2687 -0.7196
12398TIP3    H158609   0.234   5.303  11.482  0.7966 -0.1060 -0.4974
12398TIP3    H258610   0.302   5.366  11.363 -1.2871 -1.1606 -2.2757
12399TIP3   OH258611   1.474   4.428  15.921 -0.0735  0.1350  0.6293
12399TIP3    H158612   1.517   4.357  15.969 -0.3525 -0.3886  0.0898
12399TIP3    H258613   1.542   4.461  15.862  0.2324  0.6981  1.2842
12400TIP3   OH258614   2.913   2.837   5.535 -0.8164 -0.7437 -0.3522
12400TIP3    H158615   2.982   2.877   5.587 -0.2702 -0.9748 -0.8856
12400TIP3    H258616   2.852   2.908   5.515 -2.2951 -1.1332  2.5951
12401TIP3   OH258617   4.814   5.714  15.265 -0.0553 -0.6267 -0.3944
12401TIP3    H158618   4.804   5.653  15.192  0.3203 -0.6735 -0.4057
12401TIP3    H258619   4.859   5.664  15.333 -0.1240 -0.4902 -0.2468
12402TIP3   OH258620   4.921   0.847   4.884  0.1985 -0.3799  0.1474
12402TIP3    H158621   4.847   0.903   4.859  0.9431  0.2918 -0.5714
12402TIP3    H258622   4.952   0.809   4.802  0.4852 -0.8736  0.4836
12403TIP3   OH258623   4.787   4.680  12.552 -0.5253  0.5717 -0.1265
12403TIP3    H158624   4.849   4.751  12.533  0.4574 -0.2257  0.0398
12403TIP3    H258625   4.748   4.658  12.467 -0.5611  1.0607 -0.2369
12404TIP3   OH258626   3.176   6.101  12.575  0.0077 -0.0852  0.0707
12404TIP3    H158627   3.156   6.063  12.489  0.0770 -1.4845  0.6612
12404TIP3    H258628   3.272   6.093  12.583  0.3915  2.8471 -1.0070
12405TIP3   OH258629   3.076   6.748  12.995 -0.0371  0.7396 -0.3720
12405TIP3    H158630   3.079   6.792  13.080 -0.1045  2.2615 -1.1406
12405TIP3    H258631   3.152   6.782  12.948  0.9640 -1.3667 -0.3341
12406TIP3   OH258632   1.828   6.721  11.416  0.2508 -0.8031  0.0680
12406TIP3    H158633   1.835   6.684  11.504 -1.3239  0.3563  0.7055
12406TIP3    H258634   1.824   6.645  11.358 -1.0327 -1.6199  1.2005
12407TIP3   OH258635   6.376   2.228  15.808 -0.2091 -0.1706 -0.8164
12407TIP3    H158636   6.466   2.258  15.795 -0.2628  0.5507  0.4429
12407TIP3    H258637   6.322   2.304  15.787 -0.3522  0.6305  2.1768
12408TIP3   OH258638   5.597   6.557   6.469  0.4245  0.6559 -0.2317
12408TIP3    H158639   5.503   6.549   6.450  0.5666 -0.2549 -0.5834
12408TIP3    H258640   5.603   6.630   6.531 -0.6759 -0.3016  1.0222
12409TIP3   OH258641   0.387   1.378  13.485  0.3057 -0.0991 -0.4674
12409TIP3    H158642   0.316   1.437  13.508  1.0782  0.1755  1.2234
12409TIP3    H258643   0.459   1.402  13.543  1.2087 -1.5390 -0.9610
12410TIP3   OH258644   0.775   6.372  14.961  0.3730 -0.4547 -0.5292
12410TIP3    H158645   0.746   6.456  14.996 -1.4557 -0.7730 -1.2364
12410TIP3    H258646   0.864   6.387  14.932 -0.1757  1.4308 -1.2907
12411TIP3   OH258647   6.403   1.327  13.006 -0.2723 -1.0178  0.2717
12411TIP3    H158648   6.392   1.255  12.943 -0.2844 -1.1315  0.4043
12411TIP3    H258649   6.463   1.388  12.962 -1.8297 -0.1270 -0.6632
12412TIP3   OH258650   3.174   4.513  12.571 -0.1527 -0.1416  0.0798
12412TIP3    H158651   3.233   4.566  12.625 -1.0113  0.0238  0.8628
12412TIP3    H258652   3.138   4.575  12.507 -0.6000  0.0735  0.5360
12413TIP3   OH258653   0.655   1.204  11.152 -0.1858 -0.2951 -0.1781
12413TIP3    H158654   0.687   1.290  11.123  0.6003 -1.2104 -2.1479
12413TIP3    H258655   0.612   1.221  11.235  0.6469  1.8903 -0.1560
12414TIP3   OH258656   3.195   5.909   4.465  0.3212 -0.0885  0.4546
12414TIP3    H158657   3.120   5.967   4.477  0.5420  0.2817  0.0575
12414TIP3    H258658   3.205   5.865   4.549  1.0375  1.4951  1.2143
12415TIP3   OH258659   0.880   4.062  13.534  0.4964  0.0085 -0.0825
12415TIP3    H158660   0.848   4.143  13.494 -0.1318 -0.6014 -0.8343
12415TIP3    H258661   0.846   4.064  13.623 -1.1143 -0.3334 -0.6804
12416TIP3   OH258662   3.210   4.933   3.993  0.4035  0.3238 -0.2978
12416TIP3    H158663   3.131   4.967   4.036 -0.0011  0.1213 -0.8745
12416TIP3    H258664   3.184   4.846   3.962  1.2478 -0.2716  0.6431
12417TIP3   OH258665   5.808   1.763   1.698  0.4490 -0.0353 -0.2159
12417TIP3    H158666   5.860   1.796   1.772  3.0646  2.4966 -3.0356
12417TIP3    H258667   5.867   1.702   1.653 -0.9452 -1.1634 -0.5623
12418TIP3   OH258668   1.090   5.774   1.074  0.1034 -0.0204  0.6225
12418TIP3    H158669   1.021   5.764   1.141  0.2383  0.7426  0.8869
12418TIP3    H258670   1.169   5.792   1.125  0.0668  1.3056  0.2423
12419TIP3   OH258671   6.650   4.353  11.546  0.1913 -0.8315  0.2353
12419TIP3    H158672   6.699   4.421  11.592  0.9023 -2.1636  1.5089
12419TIP3    H258673   6.701   4.273  11.561 -0.6276 -1.6466 -1.2271
12420TIP3   OH258674   0.043   0.520   3.664 -0.0333  0.8192  0.3172
12420TIP3    H158675   0.136   0.520   3.685 -0.1308  1.2082  0.7587
12420TIP3    H258676   0.005   0.585   3.723 -0.4958  1.0590 -0.2411
12421TIP3   OH258677   4.397   6.241  17.016 -0.0524  0.1869  0.3102
12421TIP3    H158678   4.423   6.200  16.933  1.7291  0.6676  0.6209
12421TIP3    H258679   4.463   6.213  17.079 -0.7190  0.8030  1.2969
12422TIP3   OH258680   1.027   3.468   6.594  0.0538 -0.5721 -0.0350
12422TIP3    H158681   1.099   3.530   6.607 -0.8715  0.3849  0.6136
12422TIP3    H258682   1.066   3.382   6.611  1.6987 -0.3445 -2.2701
12423TIP3   OH258683   2.908   0.959  14.435  0.2068 -0.1082  0.5938
12423TIP3    H158684   2.931   0.949  14.342 -2.2147 -0.6787  0.0352
12423TIP3    H258685   2.907   1.054  14.449  2.2035 -0.0501  0.4844
12424TIP3   OH258686   1.700   1.943  17.160  0.2190  0.1136 -0.1513
12424TIP3    H158687   1.672   2.019  17.210  0.2808 -0.7812  1.2575
12424TIP3    H258688   1.785   1.967  17.124  1.6836 -0.3891  2.8333
12425TIP3   OH258689   1.101   1.245  15.245  0.5112 -0.4333 -0.5711
12425TIP3    H158690   1.114   1.159  15.284  1.1664 -0.8737 -1.7511
12425TIP3    H258691   1.073   1.227  15.155 -3.6295  0.5266  0.3951
12426TIP3   OH258692   5.510   3.600  17.053 -0.0239  0.6477 -0.0057
12426TIP3    H158693   5.523   3.640  17.139  1.5065  1.1867 -0.4775
12426TIP3    H258694   5.500   3.674  16.993  0.9310  0.2998 -0.6030
12427TIP3   OH258695   5.341   6.711   3.292 -0.3133 -0.6418  0.9603
12427TIP3    H158696   5.336   6.785   3.352  1.9735  0.9682 -0.7003
12427TIP3    H258697   5.281   6.733   3.221 -0.1058 -0.6761  0.7734
12428TIP3   OH258698   5.402   0.998  13.932  0.5704 -0.1360 -0.2607
12428TIP3    H158699   5.470   0.968  13.993  0.7839 -0.7369 -0.7812
12428TIP3    H258700   5.346   0.921  13.920  0.7621 -0.1360 -1.1316
12429TIP3   OH258701   2.397   4.904   5.313 -0.0175 -0.2245  0.1577
12429TIP3    H158702   2.424   4.958   5.387 -1.3714  0.4769  0.1496
12429TIP3    H258703   2.301   4.905   5.315 -0.0715 -0.6856 -1.2454
12430TIP3   OH258704   5.190   0.734  16.746 -0.3787 -0.3071 -0.3282
12430TIP3    H158705   5.257   0.789  16.706  0.5807 -1.2831 -0.0629
12430TIP3    H258706   5.235   0.653  16.768 -1.0860 -0.1114  1.9634
12431TIP3   OH258707   3.283   0.039  16.537 -0.7094 -0.1888  0.4207
12431TIP3    H158708   3.294   0.052  16.631 -1.0329  3.1269  0.0596
12431TIP3    H258709   3.348  -0.027  16.514  1.3451  1.0219  2.5094
12432TIP3   OH258710   2.370   1.345   4.513 -0.2865 -0.4400 -0.0274
12432TIP3    H158711   2.346   1.366   4.604 -0.2027 -0.8082  0.0807
12432TIP3    H258712   2.454   1.301   4.520 -0.4389 -0.7716 -0.2552
12433TIP3   OH258713   3.373   0.300  11.623 -0.3535 -0.1279 -0.0462
12433TIP3    H158714   3.304   0.240  11.593  1.8262 -2.7733  0.0402
12433TIP3    H258715   3.371   0.293  11.719 -0.5189  0.4701 -0.0013
12434TIP3   OH258716   3.001   5.310   5.281 -0.0049 -0.5753 -0.4107
12434TIP3    H158717   2.977   5.244   5.345  0.5218 -0.5911 -0.2287
12434TIP3    H258718   3.035   5.261   5.206  0.2071 -0.5177 -0.3521
12435TIP3   OH258719   4.983   1.780  12.176 -0.3292 -0.4760  0.6650
12435TIP3    H158720   5.023   1.737  12.100  0.5374 -0.4344  1.0872
12435TIP3    H258721   4.988   1.715  12.246 -3.3911 -1.4175  0.0449
12436TIP3   OH258722   5.781   1.199  15.542  0.0114 -0.9795 -0.1959
12436TIP3    H158723   5.743   1.259  15.479  0.9091 -0.2269 -0.0432
12436TIP3    H258724   5.761   1.239  15.627  2.4308  0.2643 -0.1557
12437TIP3   OH258725   1.578   6.537  14.372 -0.0485 -1.0324  0.1671
12437TIP3    H158726   1.505   6.584  14.333 -0.8032 -1.4910  1.0095
12437TIP3    H258727   1.620   6.493  14.299 -0.6916 -0.8661 -0.3051
12438TIP3   OH258728   4.178   3.464  17.141  0.4020 -0.0802 -0.3228
12438TIP3    H158729   4.167   3.381  17.188  1.4739 -0.2851 -0.4243
12438TIP3    H258730   4.266   3.494  17.165 -0.9166  2.3180  1.7567
12439TIP3   OH258731   3.020   3.901   4.155  0.5161 -0.2910 -0.2429
12439TIP3    H158732   2.986   3.812   4.160 -0.3433  0.0594  0.4645
12439TIP3    H258733   3.078   3.901   4.079 -1.5143 -0.7862 -1.8535
12440TIP3   OH258734   0.899   1.818  17.224  0.5057 -0.2100  0.7371
12440TIP3    H158735   0.990   1.849  17.223  0.5267 -0.2273 -2.5330
12440TIP3    H258736   0.903   1.730  17.186 -1.1621  0.7958 -1.9303
12441TIP3   OH258737   2.774   1.846  15.585  0.3155  0.0426 -0.2671
12441TIP3    H158738   2.784   1.751  15.585 -0.6262 -0.1057 -2.4876
12441TIP3    H258739   2.794   1.872  15.495 -1.7648  1.6450 -0.3078
12442TIP3   OH258740   4.990   1.232  13.005  0.3391 -0.0266  0.2816
12442TIP3    H158741   4.959   1.287  13.077 -2.1837 -0.9723 -0.0446
12442TIP3    H258742   4.954   1.145  13.024  1.2777 -0.7451 -1.1115
12443TIP3   OH258743   3.760   0.807   5.800  0.0506 -0.3282  0.6701
12443TIP3    H158744   3.723   0.878   5.748 -1.0328 -0.6984  0.9032
12443TIP3    H258745   3.837   0.778   5.752 -1.3390 -1.1444 -1.1028
12444TIP3   OH258746   0.214   5.122   3.753 -0.6120  0.0090 -0.2906
12444TIP3    H158747   0.152   5.050   3.746 -0.7028 -0.0678  1.1130
12444TIP3    H258748   0.278   5.093   3.818  0.7897  0.1745 -1.5861
12445TIP3   OH258749   4.785   5.513   3.560  0.3351  0.8433 -0.4348
12445TIP3    H158750   4.842   5.439   3.541 -2.1131 -1.0319 -0.8006
12445TIP3    H258751   4.778   5.514   3.656 -2.6044 -1.8645 -0.5282
12446TIP3   OH258752   4.971   3.887  15.858  0.0298 -0.0794  0.6020
12446TIP3    H158753   4.992   3.805  15.813 -0.3929  0.5745 -0.8010
12446TIP3    H258754   5.036   3.892  15.928  0.0857 -1.5943  0.6875
12447TIP3   OH258755   0.565   2.799  16.531 -0.1346  0.0009  0.0524
12447TIP3    H158756   0.613   2.869  16.575  0.6056 -0.3126 -0.2472
12447TIP3    H258757   0.474   2.813  16.556 -0.0096  1.1422 -0.1024
12448TIP3   OH258758   4.249   2.723  13.315 -0.0936  0.2416 -0.2020
12448TIP3    H158759   4.264   2.768  13.232  0.6696  1.5388  0.6220
12448TIP3    H258760   4.334   2.687  13.339 -0.5996 -1.2827 -0.6273
12449TIP3   OH258761   5.357   1.640   6.257 -0.4314 -0.1894  0.8329
12449TIP3    H158762   5.271   1.617   6.222 -0.9258  0.2287  1.7432
12449TIP3    H258763   5.343   1.726   6.298  0.7597  0.5411 -0.2609
12450TIP3   OH258764   1.087   4.908   1.535  0.2478  0.8499  0.0609
12450TIP3    H158765   1.030   4.951   1.598 -1.1466  0.4145 -0.8853
12450TIP3    H258766   1.155   4.973   1.516  0.0804  1.3678  1.1900
12451TIP3   OH258767   1.861   6.042   5.388 -0.1054 -0.8023  0.5120
12451TIP3    H158768   1.929   6.007   5.445 -0.0738 -0.5190  0.6506
12451TIP3    H258769   1.800   5.970   5.377  1.3953 -1.7998 -1.5047
12452TIP3   OH258770   0.941   4.865  15.081  0.0391 -0.1959  0.3406
12452TIP3    H158771   1.023   4.906  15.055 -0.7721  1.0431 -0.3034
12452TIP3    H258772   0.892   4.934  15.127 -1.6732 -0.1706 -1.4471
12453TIP3   OH258773   1.703   6.222  12.742  0.1701 -0.5677  0.2322
12453TIP3    H158774   1.618   6.195  12.778  0.0833 -0.5545  0.0393
12453TIP3    H258775   1.738   6.142  12.703  0.5161 -0.7133  0.8374
12454TIP3   OH258776   5.255   4.565  13.462  0.7385  0.2031 -0.6336
12454TIP3    H158777   5.192   4.513  13.512  0.2623 -0.5849 -2.0186
12454TIP3    H258778   5.271   4.643  13.515 -1.3141  0.3524 -0.2261
12455TIP3   OH258779   2.726   1.033  13.814  0.1421  0.0860  0.1311
12455TIP3    H158780   2.646   1.083  13.802  0.5575  0.9436  0.9322
12455TIP3    H258781   2.796   1.098  13.809  0.9512 -0.8876 -2.5248
12456TIP3   OH258782   1.742   4.073   5.965  0.1623 -0.0810  0.0290
12456TIP3    H158783   1.698   4.028   6.037 -1.8935  0.6033 -0.7558
12456TIP3    H258784   1.708   4.163   5.968 -0.2017 -0.1173 -1.9648
12457TIP3   OH258785   2.386   4.692  13.306 -0.9556 -0.5430 -0.1691
12457TIP3    H158786   2.455   4.628  13.322 -1.3253 -1.2090 -1.2147
12457TIP3    H258787   2.376   4.737  13.390 -0.4786 -1.6479  0.4971
12458TIP3   OH258788   1.522   5.751   4.409  0.4586  0.5103  0.2509
12458TIP3    H158789   1.593   5.699   4.371 -0.2201  0.6816 -1.2846
12458TIP3    H258790   1.452   5.687   4.425  0.7006  0.4584  1.1234
12459TIP3   OH258791   6.766   2.538  12.421  0.0687 -0.1865  0.0718
12459TIP3    H158792   6.841   2.544  12.361  0.3203 -0.8667  0.3224
12459TIP3    H258793   6.798   2.487  12.495 -0.4960 -0.0514  0.4086
12460TIP3   OH258794   2.392   0.322  13.660 -0.0033  0.0617 -0.0372
12460TIP3    H158795   2.468   0.266  13.644 -0.1842  0.1220 -1.1785
12460TIP3    H258796   2.383   0.373  13.579  0.4877  2.1405  1.1536
12461TIP3   OH258797   6.381   3.274  15.680 -0.4840 -0.5674  0.1471
12461TIP3    H158798   6.321   3.247  15.750  0.0357  0.2042  0.8944
12461TIP3    H258799   6.443   3.333  15.723  0.7726 -1.3042 -0.6379
12462TIP3   OH258800   6.012   0.136   4.399  0.2670  0.2648  0.1917
12462TIP3    H158801   5.982   0.147   4.489  0.8205 -0.5947  0.4906
12462TIP3    H258802   6.060   0.216   4.379 -0.2157  0.6373  0.5103
12463TIP3   OH258803   1.591   1.535  12.201  0.4809 -0.3512 -0.4574
12463TIP3    H158804   1.568   1.472  12.133 -0.6868  0.2603 -0.6460
12463TIP3    H258805   1.549   1.616  12.174  0.2060 -0.0348  0.8658
12464TIP3   OH258806   0.771   0.241  12.507 -0.0146  0.3147  0.2851
12464TIP3    H158807   0.784   0.324  12.553  0.1286  0.4351  0.0285
12464TIP3    H258808   0.729   0.265  12.425  2.6234  0.4506 -1.0685
12465TIP3   OH258809   2.100   4.192  12.367  0.5173  0.2011 -0.9577
12465TIP3    H158810   2.028   4.247  12.398  1.0957 -0.0061  0.8472
12465TIP3    H258811   2.058   4.115  12.330 -0.2095  0.4604 -0.6731
12466TIP3   OH258812   4.796   5.931  13.703  0.4154  0.1589  0.1945
12466TIP3    H158813   4.750   5.918  13.621  3.2670  0.1313 -1.4655
12466TIP3    H258814   4.815   6.025  13.706  3.5543 -0.3792 -1.0387
12467TIP3   OH258815   0.689   4.114   1.462 -0.1127  0.1272  0.7436
12467TIP3    H158816   0.716   4.023   1.473  1.4501  0.5233  0.3512
12467TIP3    H258817   0.597   4.109   1.438 -0.1434 -1.3310  1.0944
12468TIP3   OH258818   5.920   6.575  13.770  0.0234  0.0929 -0.3181
12468TIP3    H158819   5.951   6.576  13.860 -0.1963 -2.3520 -0.1858
12468TIP3    H258820   5.876   6.660  13.758  2.2340  1.4801  1.0670
12469TIP3   OH258821   0.247   5.095  14.879  0.4262  0.0697 -0.5269
12469TIP3    H158822   0.339   5.118  14.868  0.9050 -0.4594  2.0953
12469TIP3    H258823   0.213   5.158  14.943 -0.7888 -0.3256 -0.7571
12470TIP3   OH258824   0.862   5.315   5.004  0.0161 -0.4357  0.2268
12470TIP3    H158825   0.913   5.387   5.040  0.0500 -0.1480 -0.3950
12470TIP3    H258826   0.871   5.323   4.909 -0.4178 -0.9383  0.1352
12471TIP3   OH258827   1.573   0.043   5.480 -0.2684 -0.1929 -0.4119
12471TIP3    H158828   1.611  -0.005   5.407  0.1602 -0.7562  0.1695
12471TIP3    H258829   1.645   0.053   5.543 -1.0129 -1.1155  0.6217
12472TIP3   OH258830   6.422   0.384   0.478 -0.2021 -0.3738 -0.7555
12472TIP3    H158831   6.446   0.340   0.560 -2.0121 -0.6840 -0.3701
12472TIP3    H258832   6.484   0.456   0.471  1.2956 -1.5691 -0.1764
12473TIP3   OH258833   4.299   5.565  16.043  0.3953  0.5610  0.3500
12473TIP3    H158834   4.329   5.555  16.134 -0.8200  1.9464  0.9204
12473TIP3    H258835   4.374   5.537  15.990  1.3855  0.4596  1.7729
12474TIP3   OH258836   3.140   4.777   0.735  0.1288  0.4539  0.2667
12474TIP3    H158837   3.097   4.782   0.820  2.5414 -1.0139  1.6337
12474TIP3    H258838   3.172   4.865   0.718 -1.3273  1.0017  0.3487
12475TIP3   OH258839   2.992   0.366   2.547 -0.3723  0.9108  0.4636
12475TIP3    H158840   3.047   0.396   2.620 -1.3876  4.1765 -0.0195
12475TIP3    H258841   3.055   0.343   2.478  0.5083  1.9911  0.8737
12476TIP3   OH258842   2.112   0.631   0.976 -0.6466  0.2426  0.0993
12476TIP3    H158843   2.026   0.673   0.977 -0.5685  0.3785  2.0772
12476TIP3    H258844   2.127   0.605   1.067  0.6977 -1.2390 -0.5306
12477TIP3   OH258845   0.336   5.720  12.058  0.3712 -0.2810 -0.4603
12477TIP3    H158846   0.372   5.805  12.035  0.5257 -0.6286 -1.5376
12477TIP3    H258847   0.305   5.730  12.148  2.1384  0.3390  0.0962
12478TIP3   OH258848   3.696   1.816   4.751  0.4739 -0.9153 -0.4288
12478TIP3    H158849   3.727   1.729   4.725 -0.2278 -1.5869  0.9342
12478TIP3    H258850   3.603   1.804   4.770  0.0363  0.4443 -1.5749
12479TIP3   OH258851   1.885   6.119  12.042  0.2719  0.4203  0.4512
12479TIP3    H158852   1.866   6.174  12.118  1.7195  0.9734  0.4191
12479TIP3    H258853   1.923   6.039  12.079  1.0174  0.7076  0.3068
12480TIP3   OH258854   4.090   0.884   2.250 -0.6869 -0.0458 -0.3836
12480TIP3    H158855   4.076   0.791   2.231  1.3720 -0.4910  0.1431
12480TIP3    H258856   4.077   0.891   2.345  1.1172 -0.1879 -0.1180
12481TIP3   OH258857   2.132   1.588  12.138 -0.1619  0.2514  0.4937
12481TIP3    H158858   2.063   1.537  12.096  1.4362 -1.0132 -0.6683
12481TIP3    H258859   2.209   1.531  12.136  0.5671  1.0724  3.0939
12482TIP3   OH258860   2.191   3.001  14.902 -0.2198  0.0465 -0.0355
12482TIP3    H158861   2.173   3.023  14.811 -0.0178  1.8301  0.3264
12482TIP3    H258862   2.116   2.949  14.930 -0.8782  0.5286 -0.8726
12483TIP3   OH258863   2.842   6.034  10.495 -0.5104  0.1089  0.6523
12483TIP3    H158864   2.818   5.988  10.414  0.8450  0.4153  0.0704
12483TIP3    H258865   2.937   6.035  10.495 -0.5164  1.3326  1.5797
12484TIP3   OH258866   3.333   2.068  15.903 -0.1483  0.4280  0.3782
12484TIP3    H158867   3.324   2.062  15.998 -0.8366 -0.2456  0.2756
12484TIP3    H258868   3.409   2.125  15.889 -0.3314  0.9104  1.3233
12485TIP3   OH258869   6.571   0.770   6.021  0.2006 -0.6756  0.4167
12485TIP3    H158870   6.500   0.768   6.085 -0.9976  3.3281 -0.6553
12485TIP3    H258871   6.650   0.752   6.073 -1.0060  0.1791  2.6294
12486TIP3   OH258872   6.447   3.487   3.023  0.3646  0.1154  0.0053
12486TIP3    H158873   6.473   3.398   3.048 -0.4121 -0.0498  0.2497
12486TIP3    H258874   6.427   3.481   2.929 -0.0876 -0.0595  0.1146
12487TIP3   OH258875   1.057   6.674   3.208 -0.2480  0.0163  0.0689
12487TIP3    H158876   1.084   6.592   3.249 -0.6612 -0.2086 -0.1065
12487TIP3    H258877   0.961   6.670   3.208 -0.2749  0.6281  0.3294
12488TIP3   OH258878   0.066   5.337  12.589  0.2340  0.5911  0.8105
12488TIP3    H158879   0.031   5.367  12.505  0.1691  2.4989  1.4867
12488TIP3    H258880   0.018   5.257  12.609  1.5023 -0.8823 -1.8157
12489TIP3   OH258881   2.445   2.086   1.696  0.5419 -0.2583 -0.5922
12489TIP3    H158882   2.456   2.003   1.741  1.4887 -0.6913 -1.6159
12489TIP3    H258883   2.397   2.141   1.758  0.0047 -1.5294  0.1190
12490TIP3   OH258884   4.461   2.530  15.685  0.0178 -0.0219 -0.5424
12490TIP3    H158885   4.423   2.448  15.654 -0.4982 -0.2338  0.5948
12490TIP3    H258886   4.514   2.562  15.612  0.4154 -1.4955 -0.9154
12491TIP3   OH258887   6.451   5.908   5.071  0.3686  0.0952  0.0931
12491TIP3    H158888   6.475   5.884   4.982 -1.6919 -0.3530 -0.3707
12491TIP3    H258889   6.372   5.962   5.061  0.2423  0.2175  1.6205
12492TIP3   OH258890   2.340   5.968   3.251 -0.1641 -0.3154  0.6674
12492TIP3    H158891   2.310   6.017   3.174 -2.0661 -0.5249  1.2641
12492TIP3    H258892   2.318   5.877   3.232 -1.0545 -0.3159  1.6341
12493TIP3   OH258893   2.313   0.582  12.438 -0.0001  0.2765  0.1888
12493TIP3    H158894   2.360   0.535  12.507 -0.7429  0.8894  1.1327
12493TIP3    H258895   2.251   0.518  12.403  1.4306 -0.4844 -0.9498
12494TIP3   OH258896   5.076   4.205   3.659 -0.8056  0.5544 -0.1387
12494TIP3    H158897   5.138   4.227   3.728 -1.9874  0.9158  0.8311
12494TIP3    H258898   5.115   4.130   3.614 -0.3568 -0.1269  1.3649
12495TIP3   OH258899   1.217   6.219   2.691  0.2178 -0.3584 -0.1218
12495TIP3    H158900   1.179   6.303   2.669  1.0114 -0.3386 -1.4645
12495TIP3    H258901   1.224   6.220   2.787 -1.1584  0.4754 -0.0163
12496TIP3   OH258902   2.532   3.589  12.703  0.2256 -0.5465 -0.7734
12496TIP3    H158903   2.616   3.622  12.670  1.5761 -0.7988  2.2534
12496TIP3    H258904   2.527   3.621  12.793 -1.8064 -2.5939 -0.1013
12497TIP3   OH258905   1.034   4.286   5.183  1.0876 -0.1290 -0.0224
12497TIP3    H158906   1.006   4.219   5.121 -0.4605 -0.2090  0.7414
12497TIP3    H258907   1.070   4.237   5.257  1.6509 -0.0593 -0.2423
12498TIP3   OH258908   1.691   2.024  14.740  0.1440 -0.3227  1.0992
12498TIP3    H158909   1.691   2.104  14.688 -0.5053 -0.2919  1.1429
12498TIP3    H258910   1.696   1.954  14.676  2.3660 -0.2160  1.1283
12499TIP3   OH258911   6.275   2.562   3.409  0.1141  0.4387 -0.2632
12499TIP3    H158912   6.240   2.544   3.322  0.4600  0.4193 -0.3973
12499TIP3    H258913   6.204   2.609   3.453 -1.5392 -2.7539  0.7085
12500TIP3   OH258914   3.926   2.020   4.528 -0.1662 -0.5374 -0.2031
12500TIP3    H158915   3.876   1.949   4.488  0.7132 -1.7160  0.7523
12500TIP3    H258916   3.876   2.044   4.606  0.3565 -1.2139  0.3493
12501TIP3   OH258917   0.655   0.488   2.318 -0.0936  0.2827 -1.2919
12501TIP3    H158918   0.607   0.452   2.393  2.3732  1.1180  0.7714
12501TIP3    H258919   0.588   0.506   2.253 -2.2736 -0.8558  0.5570
12502TIP3   OH258920   1.269   5.271   3.120 -0.0201 -0.1528  0.2494
12502TIP3    H158921   1.183   5.230   3.131 -1.6185  2.6974 -0.8935
12502TIP3    H258922   1.294   5.250   3.030 -1.4121  2.2750 -0.7545
12503TIP3   OH258923   5.337   0.052   5.265  0.0127 -0.0750 -0.2354
12503TIP3    H158924   5.282   0.125   5.295 -1.3988 -2.1228  2.3734
12503TIP3    H258925   5.407   0.048   5.330  0.8381 -0.2036 -1.1336
12504TIP3   OH258926   1.438   2.525  16.238  0.1195  0.2200  0.0522
12504TIP3    H158927   1.353   2.481  16.248  0.7782 -0.8966  0.8896
12504TIP3    H258928   1.502   2.457  16.257  1.1675  1.5146  1.2578
12505TIP3   OH258929   5.326   2.392   1.710  0.3972 -0.3193  0.2760
12505TIP3    H158930   5.248   2.347   1.677 -0.8694  1.7741  0.2662
12505TIP3    H258931   5.292   2.450   1.779  1.3493  3.1189 -1.9811
12506TIP3   OH258932   1.072   6.151  15.194 -0.4531  0.3447 -0.8678
12506TIP3    H158933   0.997   6.097  15.171  0.1694 -0.9029 -0.0602
12506TIP3    H258934   1.050   6.185  15.281  0.1247 -0.4399 -0.4068
12507TIP3   OH258935   5.438   0.862  15.464 -0.0171  0.6350 -0.3437
12507TIP3    H158936   5.379   0.877  15.390  2.0753 -0.2534 -2.3020
12507TIP3    H258937   5.522   0.899  15.434  0.7716  0.5691  1.7400
12508TIP3   OH258938   5.248   6.785   0.799  0.7481  0.1609 -0.2528
12508TIP3    H158939   5.248   6.694   0.828  1.2236  0.1927 -0.1519
12508TIP3    H258940   5.163   6.796   0.756 -0.4659  0.4276  2.1226
12509TIP3   OH258941   1.145   5.732  16.030  0.4814 -0.4046  0.2151
12509TIP3    H158942   1.230   5.775  16.017  1.2379 -1.7794  0.5333
12509TIP3    H258943   1.128   5.740  16.123  0.1177  0.1247  0.1042
12510TIP3   OH258944   5.180   2.188  15.082  0.1172 -0.5202 -0.3391
12510TIP3    H158945   5.139   2.106  15.107  0.5856 -0.9655 -0.9909
12510TIP3    H258946   5.248   2.202  15.148 -0.1674 -0.4988 -0.0521
12511TIP3   OH258947   3.995   1.035   4.540 -0.0901 -0.5944 -0.3395
12511TIP3    H158948   4.013   0.990   4.622 -1.1888  0.0281  0.2637
12511TIP3    H258949   4.079   1.038   4.495  0.6685 -0.3444  1.0604
12512TIP3   OH258950   3.699   2.952   5.469  0.3563  0.2582 -0.0672
12512TIP3    H158951   3.636   2.886   5.496  2.5797 -1.2374  1.5660
12512TIP3    H258952   3.722   2.998   5.550  2.0782  0.1271 -0.4639
12513TIP3   OH258953   1.720   4.043   2.981 -0.1469 -0.8047  0.0346
12513TIP3    H158954   1.660   4.100   2.934 -1.8781 -1.9836  0.7580
12513TIP3    H258955   1.706   4.064   3.074 -0.9522 -2.5252  0.3194
12514TIP3   OH258956   2.573   2.078  15.551  0.0537 -0.4364 -0.5068
12514TIP3    H158957   2.610   2.101  15.637 -0.2068 -1.7041 -0.0530
12514TIP3    H258958   2.648   2.047  15.501  0.2876  0.7250 -0.9050
12515TIP3   OH258959   1.890   3.625  11.117  0.1642  0.2187  0.0496
12515TIP3    H158960   1.981   3.609  11.090  0.3618  0.0620  0.7936
12515TIP3    H258961   1.852   3.538  11.124 -0.3973  0.3319 -1.4303
12516TIP3   OH258962   1.536   2.665  10.547 -0.2478 -0.3153  0.4254
12516TIP3    H158963   1.561   2.578  10.578  1.3317 -0.3113 -0.7770
12516TIP3    H258964   1.551   2.723  10.621  3.4736 -0.3007 -0.2759
12517TIP3   OH258965   0.412   3.770   1.986  0.5815 -0.0711  0.5365
12517TIP3    H158966   0.370   3.824   2.054  0.3083 -0.5319  0.7451
12517TIP3    H258967   0.360   3.786   1.908  1.3907  1.0884  0.2230
12518TIP3   OH258968   2.535   0.572   1.936 -0.0929 -0.7307 -0.1624
12518TIP3    H158969   2.587   0.532   2.006 -0.4172  1.1518  1.1931
12518TIP3    H258970   2.458   0.607   1.981  0.8002  2.5440 -1.0908
12519TIP3   OH258971   0.654   2.714  15.594  0.1437 -0.2044  0.1705
12519TIP3    H158972   0.695   2.645  15.542 -1.3536 -0.4330 -0.7487
12519TIP3    H258973   0.606   2.766  15.529  2.5117  2.6509  0.6157
12520TIP3   OH258974   4.601   4.202  15.883 -0.1253 -0.5359  0.2132
12520TIP3    H158975   4.561   4.163  15.806  0.7980 -0.2596 -0.4127
12520TIP3    H258976   4.556   4.285  15.895 -0.3059 -0.6035  0.0002
12521TIP3   OH258977   5.037   2.493   5.290  0.4161  0.1975 -0.2025
12521TIP3    H158978   4.972   2.443   5.240 -0.3338  0.3249  0.6385
12521TIP3    H258979   5.122   2.462   5.258 -0.0422 -1.2279 -0.0522
12522TIP3   OH258980   6.354   4.239  12.784 -0.1001 -0.0423 -0.5018
12522TIP3    H158981   6.440   4.262  12.749 -0.7265  1.9342 -0.7639
12522TIP3    H258982   6.365   4.240  12.879  1.0214 -3.2054 -0.5224
12523TIP3   OH258983   1.134   2.384   4.243  0.8746  0.4202 -0.6629
12523TIP3    H158984   1.142   2.371   4.148 -2.1314  1.9797 -1.1683
12523TIP3    H258985   1.101   2.473   4.253  2.1671  0.6673  1.9407
12524TIP3   OH258986   6.649   0.225   5.573  0.5760  0.5613 -0.0810
12524TIP3    H158987   6.636   0.296   5.510  0.9493  1.2135  0.5698
12524TIP3    H258988   6.726   0.251   5.623  0.5665 -0.1865  0.3388
12525TIP3   OH258989   1.999   5.570   5.395  0.1204  0.2358  0.1724
12525TIP3    H158990   1.969   5.635   5.332  0.0994  0.1363  0.0805
12525TIP3    H258991   1.965   5.487   5.362  2.5300 -0.2433 -1.2859
12526TIP3   OH258992   0.714   2.053  13.817 -0.3732  0.5640 -0.1700
12526TIP3    H158993   0.766   2.000  13.757 -0.9650  0.4733 -0.6104
12526TIP3    H258994   0.639   2.082  13.765 -0.9273  0.4330  0.5328
12527TIP3   OH258995   1.175   1.476  14.606  0.1420  0.1586  0.1790
12527TIP3    H158996   1.150   1.439  14.690  0.6245  0.6671  0.5500
12527TIP3    H258997   1.252   1.530  14.625  1.0174 -0.7068 -0.7946
12528TIP3   OH258998   5.654   1.293  16.833 -0.3126  0.8679 -0.4242
12528TIP3    H158999   5.649   1.255  16.920 -0.7365 -0.1335 -0.8776
12528TIP3    H259000   5.671   1.386  16.848 -1.0561  0.8195  0.7372
12529TIP3   OH259001   1.198   1.612   4.071 -0.9271 -0.3872  0.1103
12529TIP3    H159002   1.107   1.624   4.044 -1.1115  1.5631  1.4794
12529TIP3    H259003   1.249   1.655   4.002 -1.1295  0.1165  0.2761
12530TIP3   OH259004   4.988   0.078  12.902 -0.0443 -0.1391  0.3692
12530TIP3    H159005   5.019   0.157  12.857  0.5719 -1.1975 -1.0934
12530TIP3    H259006   5.058   0.057  12.964  0.7889 -0.7388 -0.7470
12531TIP3   OH259007   1.486   1.391   4.019  0.1389 -0.1631  0.2273
12531TIP3    H159008   1.514   1.376   3.929 -0.5070 -0.7620  0.1225
12531TIP3    H259009   1.396   1.358   4.023 -0.2326  0.9062  0.8023
12532TIP3   OH259010   6.002   2.601   1.186  0.5365  0.0339  0.0593
12532TIP3    H159011   5.909   2.622   1.195  1.0654  2.3552  0.4562
12532TIP3    H259012   6.041   2.681   1.150  2.4475 -0.7685  0.2879
12533TIP3   OH259013   0.998   3.873  11.031 -0.2981  0.5761 -0.0308
12533TIP3    H159014   0.966   3.886  10.942 -0.0849  0.2030 -0.1618
12533TIP3    H259015   0.960   3.789  11.059  2.5635 -1.1190 -1.0948
12534TIP3   OH259016   4.136   0.561  13.629  0.2185  0.8614 -0.6116
12534TIP3    H159017   4.196   0.553  13.703  2.1219  0.4844 -2.1343
12534TIP3    H259018   4.088   0.641  13.645  0.2205  0.4858  1.3040
12535TIP3   OH259019   4.393   4.396  15.898  0.0786 -0.2516 -0.1571
12535TIP3    H159020   4.396   4.489  15.921 -0.5867 -0.0449 -0.9171
12535TIP3    H259021   4.377   4.395  15.804 -1.5945 -1.1563  0.1253
12536TIP3   OH259022   5.324   1.346  16.523 -0.7280  0.2982  0.0440
12536TIP3    H159023   5.276   1.349  16.440 -1.7748  0.9349  0.6674
12536TIP3    H259024   5.358   1.434  16.534 -1.9872  0.6627  1.1016
12537TIP3   OH259025   6.295   3.657   4.852 -0.5397  0.5118  0.2328
12537TIP3    H159026   6.344   3.729   4.811  0.4889  0.1815  0.8720
12537TIP3    H259027   6.248   3.698   4.925 -0.2911  0.6142  0.3356
12538TIP3   OH259028   5.352   5.239   5.422  0.3321 -0.3737  0.4922
12538TIP3    H159029   5.410   5.262   5.495 -0.5514  0.9211  0.7902
12538TIP3    H259030   5.282   5.188   5.462 -0.9411  1.5845  0.8036
12539TIP3   OH259031   6.714   0.827   1.095 -0.5117  0.1016 -0.2681
12539TIP3    H159032   6.649   0.789   1.154 -2.5964  2.0978 -1.1959
12539TIP3    H259033   6.765   0.887   1.150  1.2649 -2.2377  0.6853
12540TIP3   OH259034   6.220   0.174   5.453  0.4532 -0.1941 -0.1061
12540TIP3    H159035   6.271   0.206   5.379  1.3611 -1.5847 -0.1045
12540TIP3    H259036   6.236   0.079   5.454  1.4180 -0.0245  2.5892
12541TIP3   OH259037   0.181   6.332  17.108 -0.9023  0.1538 -0.5494
12541TIP3    H159038   0.228   6.375  17.180 -0.5024  0.3358 -0.9181
12541TIP3    H259039   0.115   6.278  17.152 -1.7891  1.5745 -0.1000
12542TIP3   OH259040   4.644   6.147   6.559 -0.0405 -0.2515 -0.1000
12542TIP3    H159041   4.634   6.242   6.568 -0.0080 -0.0432 -1.9273
12542TIP3    H259042   4.735   6.130   6.584  0.7911  0.6178 -2.3062
12543TIP3   OH259043   5.549   6.532  12.568 -0.5681 -0.5419  0.2506
12543TIP3    H159044   5.491   6.530  12.644  0.4592  0.1813  1.0834
12543TIP3    H259045   5.633   6.501  12.602 -0.0598 -0.0632 -0.5482
12544TIP3   OH259046   1.756   2.363   4.939  0.2024  0.7793 -0.2535
12544TIP3    H159047   1.812   2.420   4.887 -0.1663  0.8837 -0.5323
12544TIP3    H259048   1.694   2.422   4.982 -1.0692  0.4714 -1.6275
12545TIP3   OH259049   4.576   3.826  16.479 -0.2679 -0.3191  0.3160
12545TIP3    H159050   4.490   3.865  16.462 -0.2691 -0.7825 -0.7836
12545TIP3    H259051   4.607   3.870  16.558 -1.3165  0.1875  0.4510
12546TIP3   OH259052   2.704   4.510  14.056 -0.2704 -0.4534  0.2523
12546TIP3    H159053   2.751   4.592  14.043 -0.1606 -0.6474 -0.6137
12546TIP3    H259054   2.702   4.469  13.970 -3.9030  0.5148 -0.1999
12547TIP3   OH259055   2.129   2.516   4.300 -0.3593  0.3529  0.7054
12547TIP3    H159056   2.215   2.537   4.335  0.6384  0.2982 -1.6091
12547TIP3    H259057   2.073   2.588   4.328  0.8766  1.3469  0.6661
12548TIP3   OH259058   1.309   2.033  16.710  0.5946  0.2451 -0.3702
12548TIP3    H159059   1.241   2.073  16.765 -0.4290 -0.8681 -0.8005
12548TIP3    H259060   1.331   2.100  16.645 -1.6152 -0.1156 -1.5298
12549TIP3   OH259061   6.523   1.057  16.347 -0.2952 -0.2903  0.5386
12549TIP3    H159062   6.499   1.019  16.263  0.3617  1.9418 -0.6912
12549TIP3    H259063   6.605   1.104  16.330 -1.1465  1.7835  1.9521
12550TIP3   OH259064   1.335   0.941  13.767 -0.0792 -0.0125 -0.1392
12550TIP3    H159065   1.261   0.957  13.709  0.8828 -1.3857 -1.8010
12550TIP3    H259066   1.409   0.984  13.723  0.5042 -0.3580  0.5002
12551TIP3   OH259067   5.939   1.526   1.579 -0.0996  0.4913 -0.3105
12551TIP3    H159068   5.941   1.436   1.609  1.8240  1.1882  1.7640
12551TIP3    H259069   6.015   1.535   1.521 -0.4425  0.7202 -0.7326
12552TIP3   OH259070   2.217   1.189   2.543 -0.1321  0.1047  0.1326
12552TIP3    H159071   2.138   1.210   2.493  0.7251 -1.6855 -2.0479
12552TIP3    H259072   2.188   1.127   2.610 -0.2991 -1.9846 -1.8200
12553TIP3   OH259073   5.889   4.734   5.737 -0.3728  0.7786 -0.3171
12553TIP3    H159074   5.869   4.691   5.820 -3.8634  0.3681 -1.2805
12553TIP3    H259075   5.917   4.822   5.761  2.2735 -0.4967  1.4394
12554TIP3   OH259076   4.191   4.982   4.148 -1.0713 -0.3692 -0.1675
12554TIP3    H159077   4.189   4.984   4.052  2.8806  1.0066 -0.3141
12554TIP3    H259078   4.224   4.895   4.170 -1.4477 -0.4895 -0.0830
12555TIP3   OH259079   4.180   1.804   4.011 -0.6110  0.4750 -0.1757
12555TIP3    H159080   4.260   1.753   4.024 -0.1645  0.8849 -1.2323
12555TIP3    H259081   4.112   1.738   3.996 -0.3641  0.1382  0.1661
12556TIP3   OH259082   4.110   2.191   3.617  0.2299 -0.0292  0.2049
12556TIP3    H159083   4.163   2.249   3.672  0.0121  0.2460  0.1256
12556TIP3    H259084   4.146   2.103   3.633  0.2771  0.0710  0.6574
12557TIP3   OH259085   2.969   6.275   5.686 -0.3909  0.2622 -0.7897
12557TIP3    H159086   2.967   6.259   5.592  0.6022 -0.0851 -0.7528
12557TIP3    H259087   2.893   6.228   5.720  0.3263 -1.2003 -1.1692
12558TIP3   OH259088   4.527   2.037   1.955  0.0036 -0.0638  0.7635
12558TIP3    H159089   4.568   2.013   1.871  0.6293 -0.5477  1.1978
12558TIP3    H259090   4.434   2.018   1.943 -0.4237  2.8137 -0.8821
12559TIP3   OH259091   0.352   2.199  10.829  0.7247 -0.1033 -0.4276
12559TIP3    H159092   0.354   2.108  10.801  0.7844 -0.5864  1.1438
12559TIP3    H259093   0.441   2.216  10.861  0.6133  0.4096 -0.3819
12560TIP3   OH259094   2.806   4.883   1.457  0.3114  0.2724 -0.2638
12560TIP3    H159095   2.825   4.972   1.427 -1.5991  0.2644 -1.5625
12560TIP3    H259096   2.764   4.841   1.381  0.9290 -1.6452  0.4295
12561TIP3   OH259097   5.575   6.087  13.459 -0.5582 -0.3965 -0.0179
12561TIP3    H159098   5.569   6.018  13.524  0.1150 -0.0588  0.4118
12561TIP3    H259099   5.512   6.153  13.487 -1.2363 -0.8600 -0.4557
12562TIP3   OH259100   2.299   2.135   4.055  0.0542 -0.4346  0.5631
12562TIP3    H159101   2.210   2.141   4.089 -0.3245 -0.2148 -0.4682
12562TIP3    H259102   2.331   2.050   4.086 -1.4556 -1.7148 -1.3348
12563TIP3   OH259103   6.784   2.682  11.529  0.6817 -0.2353 -0.0180
12563TIP3    H159104   6.701   2.700  11.572  0.9665  1.3931 -0.1140
12563TIP3    H259105   6.846   2.669  11.601  0.7397  0.5118  0.0779
12564TIP3   OH259106   0.422   3.130   5.395 -0.4129 -0.0326 -0.6217
12564TIP3    H159107   0.389   3.042   5.409  1.5961 -0.4443  1.7638
12564TIP3    H259108   0.449   3.131   5.303 -1.0206 -1.6981 -0.8336
12565TIP3   OH259109   5.933   5.709   3.900 -0.2100 -0.5865  0.0547
12565TIP3    H159110   5.851   5.705   3.949 -0.1351 -0.0280  0.2291
12565TIP3    H259111   5.907   5.733   3.811 -0.2919 -1.0220 -0.0389
12566TIP3   OH259112   5.379   0.887   5.682 -0.3625  0.3505  0.6661
12566TIP3    H159113   5.287   0.863   5.673 -0.0897 -0.6083  0.4376
12566TIP3    H259114   5.388   0.914   5.774 -0.4342 -1.4580  1.2197
12567TIP3   OH259115   6.078   4.973   5.430 -0.3371  0.4426  0.0203
12567TIP3    H159116   6.094   5.051   5.377  0.4534  0.4100  0.2092
12567TIP3    H259117   5.982   4.966   5.433 -0.4217  1.5810  0.2670
12568TIP3   OH259118   4.827   0.974   2.204  0.1208 -0.3641  0.3115
12568TIP3    H159119   4.894   1.040   2.221  0.4663 -0.4470 -0.6821
12568TIP3    H259120   4.870   0.910   2.148 -0.6164 -0.7076  0.1254
12569TIP3   OH259121   1.890   3.948   5.056 -0.1159  0.2824  1.0558
12569TIP3    H159122   1.902   3.854   5.041  1.2355  0.8104 -1.4272
12569TIP3    H259123   1.812   3.953   5.112  1.8713 -2.4697  4.2885
12570TIP3   OH259124   3.079   1.901   4.636  0.1351  0.0144 -0.0475
12570TIP3    H159125   3.110   1.988   4.660 -0.3799  0.6362 -1.5447
12570TIP3    H259126   3.123   1.881   4.553  1.5063 -1.8640  1.1002
12571TIP3   OH259127   5.339   1.837  12.358 -0.1931 -0.4887  0.1251
12571TIP3    H159128   5.316   1.871  12.272  0.0543  0.8568  0.5736
12571TIP3    H259129   5.364   1.746  12.343 -0.7078 -0.4248 -1.1307
12572TIP3   OH259130   1.281   4.288  11.540  0.6691 -0.0382  0.4162
12572TIP3    H159131   1.271   4.341  11.619 -0.8827 -0.4266  0.4881
12572TIP3    H259132   1.227   4.333  11.474  0.4277 -0.7829  0.1065
12573TIP3   OH259133   6.329   0.778  13.024 -0.0857 -0.3061  0.3867
12573TIP3    H159134   6.382   0.850  12.991 -0.6110 -0.4496 -0.7764
12573TIP3    H259135   6.266   0.819  13.083 -0.8810  0.2827 -0.8700
12574TIP3   OH259136   0.046   4.030  16.710 -0.2380 -0.2029  0.0164
12574TIP3    H159137   0.039   4.117  16.750 -0.3381 -0.2090  0.0133
12574TIP3    H259138   0.043   4.047  16.616 -1.0085 -0.2744  0.0247
12575TIP3   OH259139   0.461   3.330  12.157 -0.0398 -0.0128 -0.4864
12575TIP3    H159140   0.413   3.283  12.089  0.3445 -0.4300 -0.4775
12575TIP3    H259141   0.553   3.315  12.136  0.1218 -2.0367  1.3746
12576TIP3   OH259142   5.079   2.051   3.863 -0.5494 -0.3344 -0.2806
12576TIP3    H159143   5.090   2.028   3.771 -0.2822  1.6368 -0.7758
12576TIP3    H259144   5.143   2.121   3.877 -0.2050 -1.0008  1.5565
12577TIP3   OH259145   4.720   1.322  14.296 -0.3496  0.3854 -0.3242
12577TIP3    H159146   4.766   1.376  14.232 -0.4158  1.4822  0.5267
12577TIP3    H259147   4.712   1.236  14.255  0.7351  0.7246 -1.2572
12578TIP3   OH259148   1.527   0.062  14.410  0.1283  0.0401 -0.2217
12578TIP3    H159149   1.512  -0.001  14.339  0.8246 -0.4782  0.0782
12578TIP3    H259150   1.465   0.036  14.479 -0.9546  0.9021 -0.8513
12579TIP3   OH259151   6.083   3.963   2.474  1.0541 -0.0531 -0.1536
12579TIP3    H159152   6.047   4.041   2.431  0.9551  0.0599  0.1377
12579TIP3    H259153   6.025   3.947   2.548  1.6233  0.1523  0.3347
12580TIP3   OH259154   4.492   2.939   6.348  0.2182 -0.1044  0.1673
12580TIP3    H159155   4.471   2.894   6.429 -1.5729  0.3544 -0.0288
12580TIP3    H259156   4.426   3.008   6.340  1.0427  0.5638 -1.1116
12581TIP3   OH259157   2.145   0.001   1.384  0.0836 -0.6546  0.3867
12581TIP3    H159158   2.170   0.094   1.393  1.9104 -1.2398  1.7041
12581TIP3    H259159   2.179  -0.024   1.298  1.8036 -0.7315  1.0597
12582TIP3   OH259160   0.247   1.900   3.443 -0.0591 -0.3336  0.1813
12582TIP3    H159161   0.154   1.919   3.435  0.2833  0.9535 -1.0822
12582TIP3    H259162   0.270   1.859   3.360  0.9309  1.3929 -0.4412
12583TIP3   OH259163   0.695   3.991  12.163  0.1430  0.0875 -0.6760
12583TIP3    H159164   0.680   3.989  12.258 -0.0299  1.0657 -0.6719
12583TIP3    H259165   0.692   3.899  12.136 -1.2698 -0.0928  0.0401
12584TIP3   OH259166   0.502   0.992   3.926 -0.3767  0.1674 -0.2500
12584TIP3    H159167   0.588   1.014   3.962 -0.6352  0.3563  0.2664
12584TIP3    H259168   0.491   0.899   3.945 -0.3290  0.1683 -0.2172
12585TIP3   OH259169   5.002   1.441  13.812 -0.8108 -0.5385  0.2216
12585TIP3    H159170   5.097   1.444  13.803 -0.7966 -2.0688 -0.2401
12585TIP3    H259171   4.982   1.349  13.826 -2.4825 -0.7901 -3.1664
12586TIP3   OH259172   4.145   5.373  14.676  0.2450  0.2768 -0.0740
12586TIP3    H159173   4.218   5.314  14.697  0.3134  0.3086 -0.2203
12586TIP3    H259174   4.078   5.317  14.639  0.6689  0.4211 -1.0727
12587TIP3   OH259175   0.106   2.677  11.774 -0.4893  0.5325  0.1919
12587TIP3    H159176   0.091   2.693  11.867 -0.5548  2.5537 -0.1436
12587TIP3    H259177   0.193   2.639  11.769 -1.3114 -1.5752  1.2462
12588TIP3   OH259178   6.621   5.394  14.449 -0.1050  0.4475  0.4137
12588TIP3    H159179   6.625   5.331  14.521  0.5865 -0.7415 -0.6397
12588TIP3    H259180   6.532   5.386  14.415  0.0781 -0.2270  0.0713
12589TIP3   OH259181   0.554   1.056  12.540 -0.6687  0.3443 -0.3265
12589TIP3    H159182   0.569   1.051  12.446 -0.8918 -1.1029 -0.2866
12589TIP3    H259183   0.474   1.005  12.555 -0.6491  0.5828  0.6499
12590TIP3   OH259184   2.511   5.743   2.453  0.2735  0.5632  0.4226
12590TIP3    H159185   2.440   5.766   2.512 -0.3244  0.8803 -0.4121
12590TIP3    H259186   2.475   5.756   2.365  0.0923 -2.9837 -0.1011
12591TIP3   OH259187   0.107   0.701   1.384  0.2170  0.3187  0.1535
12591TIP3    H159188   0.075   0.653   1.461  1.6713  0.0761  0.6284
12591TIP3    H259189   0.134   0.632   1.323 -1.3324  0.5050 -0.7684
12592TIP3   OH259190   0.974   6.492  14.223 -0.4705 -0.0027  0.5222
12592TIP3    H159191   0.945   6.433  14.153  0.1062  0.0989  0.1918
12592TIP3    H259192   1.005   6.434  14.292  0.2307 -0.0910  0.1400
12593TIP3   OH259193   0.833   2.904  12.218 -0.1906  0.5991 -0.3242
12593TIP3    H159194   0.844   2.960  12.294 -1.1651  0.2706  0.0627
12593TIP3    H259195   0.761   2.943  12.168  0.8494  1.1626 -1.3972
12594TIP3   OH259196   3.722   1.885  16.310  0.2166 -0.7096  0.0658
12594TIP3    H159197   3.790   1.917  16.369  0.3232  4.1621 -2.4643
12594TIP3    H259198   3.763   1.884  16.223 -1.5982 -2.2198 -0.8353
12595TIP3   OH259199   2.163   4.930   5.441 -0.3760  0.0314 -0.1545
12595TIP3    H159200   2.073   4.897   5.436 -0.4147  0.0386  0.4371
12595TIP3    H259201   2.162   4.990   5.516 -0.2738  1.2627 -1.1152
12596TIP3   OH259202   3.622   6.001  11.092 -0.1724 -0.2423  0.2906
12596TIP3    H159203   3.670   5.957  11.162 -2.2939  0.3026  2.1254
12596TIP3    H259204   3.689   6.024  11.027  1.8615 -0.4679  2.2773
12597TIP3   OH259205   4.008   0.852   0.728 -0.4740  0.3656  0.7384
12597TIP3    H159206   4.067   0.821   0.797 -1.6453  1.3295  2.2046
12597TIP3    H259207   4.065   0.897   0.666  0.6478 -0.8440  0.8639
12598TIP3   OH259208   3.539   4.888  12.598 -0.0891 -0.5180  0.2298
12598TIP3    H159209   3.496   4.911  12.681 -0.3179  0.8641 -0.2485
12598TIP3    H259210   3.532   4.968  12.546  2.4638 -0.4762 -0.1133
12599TIP3   OH259211   1.632   5.642  13.831 -0.2094 -0.4802 -0.0518
12599TIP3    H159212   1.647   5.686  13.747  0.3681  0.1190  0.3570
12599TIP3    H259213   1.718   5.644  13.874 -0.6679 -0.1402  0.8483
12600TIP3   OH259214   1.974   2.708   1.885  0.4434 -0.0781  0.0395
12600TIP3    H159215   1.920   2.728   1.961 -2.6617  0.3446 -2.1328
12600TIP3    H259216   1.957   2.616   1.867  0.2259  0.1231 -0.8116
12601TIP3   OH259217   1.382   0.993  16.796 -0.5508  0.1081 -0.5730
12601TIP3    H159218   1.459   0.939  16.778 -1.6883 -1.2767 -1.3742
12601TIP3    H259219   1.308   0.943  16.761 -1.7282  1.8418 -0.6555
12602TIP3   OH259220   5.883   1.345   0.239  0.3534  0.5593  0.6343
12602TIP3    H159221   5.918   1.365   0.325  1.5212  0.1865  0.2467
12602TIP3    H259222   5.922   1.261   0.215  0.6869  1.0500 -0.6133
12603TIP3   OH259223   5.521   1.562  11.012 -0.4332 -0.6588 -0.3678
12603TIP3    H159224   5.581   1.489  10.998  0.7488  0.0015  1.1170
12603TIP3    H259225   5.571   1.624  11.065 -2.1150  0.3290  0.0856
12604TIP3   OH259226   1.819   4.674  12.301  0.4746 -0.2229  0.5945
12604TIP3    H159227   1.763   4.746  12.332  2.8547  1.2948  1.4795
12604TIP3    H259228   1.814   4.680  12.205 -1.9160 -0.9600  0.6490
12605TIP3   OH259229   0.838   5.930   1.647 -0.1061  0.2528  0.1646
12605TIP3    H159230   0.910   5.931   1.584  0.5664  1.6834  0.9380
12605TIP3    H259231   0.876   5.963   1.728 -1.9230  2.2078  0.2642
12606TIP3   OH259232   3.544   5.934   4.305  0.2000 -0.0895  0.1668
12606TIP3    H159233   3.610   5.983   4.256 -0.5552  0.5068 -0.2668
12606TIP3    H259234   3.466   5.938   4.250 -0.0394 -1.2616  0.4205
12607TIP3   OH259235   2.723   6.364  10.522  0.3196 -0.3918 -0.0008
12607TIP3    H159236   2.790   6.295  10.518  0.8649  0.0950  0.5735
12607TIP3    H259237   2.747   6.415  10.599  1.3519  1.8843 -1.7824
12608TIP3   OH259238   3.140   1.319   4.268  0.4314  0.6379 -0.2983
12608TIP3    H159239   3.174   1.230   4.258  1.7571  1.2167 -1.0216
12608TIP3    H259240   3.047   1.307   4.291  1.1269 -0.9632  1.8224
12609TIP3   OH259241   1.522   0.758   0.128 -0.1116  0.1053 -0.8147
12609TIP3    H159242   1.560   0.755   0.040 -0.4674 -1.3111 -0.9297
12609TIP3    H259243   1.546   0.675   0.168  0.9663  1.1904  0.8385
12610TIP3   OH259244   6.547   1.418   1.163  0.3689 -0.3974 -0.1956
12610TIP3    H159245   6.485   1.352   1.194 -0.5766  0.5643 -0.0125
12610TIP3    H259246   6.512   1.501   1.195  2.6340  0.0197  1.3454
12611TIP3   OH259247   4.090   6.069  13.787 -0.0472  0.7585 -0.0586
12611TIP3    H159248   4.154   6.019  13.737 -0.8102  1.0038 -1.2936
12611TIP3    H259249   4.081   6.021  13.869  1.5576  0.6002  0.0424
12612TIP3   OH259250   2.800   3.932  12.216  0.3640  0.2169  0.1752
12612TIP3    H159251   2.840   4.017  12.195  0.0851  0.3332  0.1068
12612TIP3    H259252   2.743   3.951  12.291 -1.3106  0.5338 -1.1525
12613TIP3   OH259253   3.304   3.306  11.002  0.0904  0.7925  0.6403
12613TIP3    H159254   3.345   3.351  10.928  0.7911 -0.6547  0.1229
12613TIP3    H259255   3.358   3.228  11.016 -0.8858  0.2865  1.7275
12614TIP3   OH259256   1.384   5.159  10.603 -0.6102  0.0321 -0.1708
12614TIP3    H159257   1.457   5.209  10.638  0.3884  0.0863 -2.2193
12614TIP3    H259258   1.349   5.111  10.678  1.3678  0.1908  0.8903
12615TIP3   OH259259   1.027   0.844   4.644  0.7031 -0.2166  0.1823
12615TIP3    H159260   0.964   0.818   4.711 -0.5868 -2.8394 -1.9337
12615TIP3    H259261   1.111   0.810   4.676  0.3380 -0.2999  1.0755
12616TIP3   OH259262   5.583   2.278   3.176 -0.3579 -0.3902 -0.6786
12616TIP3    H159263   5.598   2.371   3.195 -0.3615 -0.4081 -0.5868
12616TIP3    H259264   5.594   2.271   3.082 -0.8001 -0.2087 -0.7471
12617TIP3   OH259265   5.872   4.352   0.770  0.1878  0.3228 -0.1270
12617TIP3    H159266   5.854   4.358   0.864 -1.6181 -0.0280 -0.4177
12617TIP3    H259267   5.885   4.442   0.742 -0.5345  0.5496  0.2478
12618TIP3   OH259268   3.939   4.075  12.774  0.8380  0.4444  0.5436
12618TIP3    H159269   3.955   4.109  12.863  1.7381 -0.4397  0.7360
12618TIP3    H259270   3.904   3.988  12.788  1.3521  0.1527  0.0210
12619TIP3   OH259271   3.247   0.541  15.254  0.2178  0.1820 -0.0181
12619TIP3    H159272   3.338   0.561  15.231  0.7819 -0.8848  1.2129
12619TIP3    H259273   3.245   0.544  15.350 -0.6006 -1.6421  0.0369
12620TIP3   OH259274   0.262   2.232   1.658  0.1360  0.1924  0.6177
12620TIP3    H159275   0.295   2.316   1.626 -1.3913  0.9256  0.9297
12620TIP3    H259276   0.177   2.221   1.615  0.0091 -0.8704  1.1018
12621TIP3   OH259277   5.075   4.085  13.441 -0.7195  0.1424  0.3821
12621TIP3    H159278   5.133   4.044  13.506 -1.5245 -0.4634  0.7197
12621TIP3    H259279   5.118   4.068  13.357 -1.1721 -1.6466  0.4905
12622TIP3   OH259280   2.964   6.386   4.588  0.1480  0.2290  0.2547
12622TIP3    H159281   2.897   6.330   4.550  1.0002 -1.4260  1.1822
12622TIP3    H259282   3.045   6.361   4.543  0.3505  1.4901 -0.1166
12623TIP3   OH259283   3.392   1.753  13.168  0.2075  0.4558 -0.5301
12623TIP3    H159284   3.450   1.828  13.174 -0.4893  1.0423 -0.9996
12623TIP3    H259285   3.343   1.766  13.087 -0.1105 -0.3678 -0.4805
12624TIP3   OH259286   4.659   0.601   5.618 -0.2187 -0.6472 -0.2598
12624TIP3    H159287   4.691   0.604   5.528 -1.2189 -1.6381 -0.6627
12624TIP3    H259288   4.684   0.685   5.655 -1.4311  0.5356 -2.0375
12625TIP3   OH259289   6.241   1.440  12.599 -0.1662  0.2625  0.0632
12625TIP3    H159290   6.328   1.399  12.602  0.1128  0.8930  1.1095
12625TIP3    H259291   6.238   1.494  12.678 -0.8727  1.5573 -0.8333
12626TIP3   OH259292   2.390   1.276  13.201  0.0581 -0.4959 -0.2519
12626TIP3    H159293   2.476   1.305  13.172  0.3858 -1.7673 -0.6168
12626TIP3    H259294   2.387   1.183  13.177 -0.0274 -1.3868  2.8947
12627TIP3   OH259295   6.070   3.815   0.197 -0.1788  0.3698  0.1392
12627TIP3    H159296   6.132   3.797   0.268  0.3054  0.1653 -0.3252
12627TIP3    H259297   6.043   3.728   0.167 -1.3300  0.4695  0.8888
12628TIP3   OH259298   2.052   1.117   1.360  0.1655 -0.2597 -0.3223
12628TIP3    H159299   2.084   1.176   1.428 -1.5753  0.3802 -0.0408
12628TIP3    H259300   2.026   1.038   1.406  0.7576 -0.5410 -0.4722
12629TIP3   OH259301   2.244   3.168  12.591  0.0261  0.2121  0.2831
12629TIP3    H159302   2.215   3.219  12.514 -0.1720  0.2603  0.3897
12629TIP3    H259303   2.294   3.231  12.643  1.7630 -0.2872 -0.7170
12630TIP3   OH259304   2.486   5.724  12.822 -0.4132  0.8467  0.5068
12630TIP3    H159305   2.417   5.731  12.755 -1.4993 -0.3437  1.4672
12630TIP3    H259306   2.475   5.802  12.876 -0.0662  1.3953 -0.2127
12631TIP3   OH259307   5.223   4.232   0.154 -0.0947 -0.3340 -0.5331
12631TIP3    H159308   5.274   4.155   0.177  3.3276  2.1051  0.4609
12631TIP3    H259309   5.241   4.295   0.223 -0.2416  2.4815 -2.9582
12632TIP3   OH259310   1.115   1.165  10.678  0.0133  0.5614  0.5604
12632TIP3    H159311   1.193   1.152  10.624 -0.7543 -0.6953 -0.2770
12632TIP3    H259312   1.062   1.087  10.661 -1.8738  1.8737  0.3540
12633TIP3   OH259313   2.960   2.714  11.495 -0.2376  0.0090 -0.2450
12633TIP3    H159314   3.005   2.630  11.494 -0.0937  0.0566  1.3447
12633TIP3    H259315   3.017   2.773  11.447 -0.3857 -0.8249 -1.4540
12634TIP3   OH259316   5.621   1.254   4.166  0.6022  0.0811  0.2390
12634TIP3    H159317   5.652   1.247   4.076 -0.0614  1.7075 -0.1413
12634TIP3    H259318   5.653   1.175   4.209  0.3884 -1.0171 -1.5695
12635TIP3   OH259319   1.501   2.811  12.201 -0.5863  0.2169 -1.0933
12635TIP3    H159320   1.511   2.734  12.257  0.9565  0.7345 -0.6439
12635TIP3    H259321   1.426   2.857  12.239 -0.6907 -0.3725 -0.5619
12636TIP3   OH259322   1.650   5.692  11.690 -0.0853  0.1983  0.1610
12636TIP3    H159323   1.692   5.634  11.753 -1.1670  0.4005  1.0653
12636TIP3    H259324   1.590   5.746  11.741 -0.3012  0.9984 -0.9016
12637TIP3   OH259325   4.428   1.557   3.591 -0.7815  0.2624 -0.3786
12637TIP3    H159326   4.453   1.482   3.645 -1.0714  0.3124 -0.1796
12637TIP3    H259327   4.471   1.632   3.632  0.3032  0.0720 -1.1252
12638TIP3   OH259328   3.814   5.034   4.790  0.6481  0.0959  0.1086
12638TIP3    H159329   3.896   5.082   4.800 -0.5841  2.0340  1.0069
12638TIP3    H259330   3.800   4.991   4.875 -0.6064  1.9350  0.8580
12639TIP3   OH259331   1.825   5.237   4.116  0.0325 -0.0589 -0.1323
12639TIP3    H159332   1.920   5.239   4.102  0.0972 -0.5004  0.2121
12639TIP3    H259333   1.792   5.185   4.042  0.0073  0.4760 -0.5016
12640TIP3   OH259334   6.531   1.165   1.746 -0.3933 -0.4481  0.7284
12640TIP3    H159335   6.517   1.207   1.662 -2.2433 -0.6380  0.9037
12640TIP3    H259336   6.475   1.213   1.807 -2.1429 -2.7411  1.0370
12641TIP3   OH259337   3.208   2.249  13.659  0.1952  0.5947  0.3690
12641TIP3    H159338   3.126   2.206  13.683  0.8548 -1.1308 -0.3790
12641TIP3    H259339   3.183   2.313  13.593 -0.7808  1.2554  1.3625
12642TIP3   OH259340   0.021   6.188  14.591  0.1733  0.0582  0.4192
12642TIP3    H159341   0.104   6.179  14.638 -0.0236  0.3248  0.8193
12642TIP3    H259342  -0.008   6.277  14.611  0.5635  0.5227 -0.9905
12643TIP3   OH259343   0.709   2.888  12.798 -0.3515 -0.2380  0.3389
12643TIP3    H159344   0.785   2.883  12.741  0.0738 -1.8443  1.0241
12643TIP3    H259345   0.658   2.810  12.778  0.0485 -1.0783  2.4666
12644TIP3   OH259346   0.606   6.412   2.133 -0.0270  0.3318  0.0184
12644TIP3    H159347   0.662   6.486   2.112  1.1539 -0.7554 -0.6738
12644TIP3    H259348   0.624   6.394   2.225 -0.0445  0.6571  0.0872
12645TIP3   OH259349   2.684   1.535   0.675  0.4166 -0.3368 -0.1744
12645TIP3    H159350   2.659   1.527   0.767 -0.6639  1.1675 -0.3138
12645TIP3    H259351   2.745   1.462   0.660  0.5535 -0.6363  1.6994
12646TIP3   OH259352   1.022   0.443   1.460  0.7886 -0.4005 -0.1506
12646TIP3    H159353   1.117   0.447   1.470  0.6664 -1.2437  1.4731
12646TIP3    H259354   0.999   0.353   1.479 -0.6133  0.4016  2.0961
12647TIP3   OH259355   0.860   6.064  12.480  0.0191  0.3094  0.2751
12647TIP3    H159356   0.776   6.103  12.506  0.2234  0.7444  0.2896
12647TIP3    H259357   0.925   6.127  12.510  0.3582 -0.1010  0.3952
12648TIP3   OH259358   1.660   1.295   0.024  0.0987 -0.2898  0.1098
12648TIP3    H159359   1.669   1.238   0.101  1.4454 -1.4245 -0.8436
12648TIP3    H259360   1.633   1.380   0.060  2.2667 -0.3409  2.0175
12649TIP3   OH259361   1.846   0.455  11.731 -0.8466 -0.4511  0.0407
12649TIP3    H159362   1.902   0.505  11.790  0.9791  0.4407 -2.3666
12649TIP3    H259363   1.762   0.500  11.734 -0.4159  0.3151  0.9964
12650TIP3   OH259364   2.742   1.992  15.343 -0.1559  0.4611 -0.0671
12650TIP3    H159365   2.765   2.071  15.294 -0.6812  0.2161 -0.7002
12650TIP3    H259366   2.747   1.921  15.279  3.4336 -0.5109  1.1589
12651TIP3   OH259367   6.225   3.864   6.020  0.0978 -0.6786 -0.2317
12651TIP3    H159368   6.165   3.790   6.011  0.9801 -1.4747  0.4707
12651TIP3    H259369   6.179   3.936   5.977 -1.5588 -1.1770  0.6666
12652TIP3   OH259370   0.872   5.131   2.684  0.1473  0.1396 -0.3811
12652TIP3    H159371   0.896   5.177   2.764 -0.7007  0.0431 -0.0578
12652TIP3    H259372   0.825   5.053   2.715  1.6134 -0.9694 -0.9182
12653TIP3   OH259373   1.764   5.504  11.859  0.0835  0.0569  0.6940
12653TIP3    H159374   1.830   5.551  11.910  1.7465 -0.9556 -0.4880
12653TIP3    H259375   1.775   5.412  11.884 -2.1989  0.0662  1.9267
12654TIP3   OH259376   5.713   6.661  15.000  0.0912 -0.1042 -0.3233
12654TIP3    H159377   5.747   6.614  14.925  1.1915 -0.3540  0.3129
12654TIP3    H259378   5.784   6.721  15.024  0.4296 -1.2043  1.5246
12655TIP3   OH259379   6.670   5.239   1.174  0.0652 -0.3845 -0.6204
12655TIP3    H159380   6.606   5.233   1.245  1.5173 -1.5438  0.6382
12655TIP3    H259381   6.704   5.328   1.179 -0.7349 -0.0695 -0.6796
12656TIP3   OH259382   5.134   1.261   5.120 -0.2900  0.0566 -0.0288
12656TIP3    H159383   5.164   1.204   5.050  0.6669  1.8731 -1.1184
12656TIP3    H259384   5.131   1.204   5.197  0.6342 -1.4539 -1.0859
12657TIP3   OH259385   6.050   1.650  10.399 -0.1078 -0.7108 -0.2384
12657TIP3    H159386   5.986   1.587  10.432  1.5366 -1.8621  0.8359
12657TIP3    H259387   6.132   1.625  10.442  1.0442  0.7898 -1.5196
12658TIP3   OH259388   3.908   4.369   0.386  0.2513  0.0262  0.1978
12658TIP3    H159389   3.940   4.447   0.430  0.4834  0.1961 -0.2746
12658TIP3    H259390   3.986   4.316   0.372  0.2903  0.3313 -0.7384
12659TIP3   OH259391   5.119   0.280  16.802 -0.9075  0.1730  0.2967
12659TIP3    H159392   5.130   0.210  16.738 -1.8852 -2.1903  2.6576
12659TIP3    H259393   5.199   0.332  16.794  0.9995 -2.6755  0.2812
12660TIP3   OH259394   6.321   2.999  14.391 -0.5649 -0.1050 -0.0508
12660TIP3    H159395   6.379   3.044  14.330 -1.3412  1.1506  0.1226
12660TIP3    H259396   6.298   2.918  14.347 -0.2588  0.3009 -0.9654
12661TIP3   OH259397   0.805   3.313  13.309 -0.1826  0.1291 -0.0815
12661TIP3    H159398   0.737   3.379  13.297 -1.4856 -1.1671  0.0488
12661TIP3    H259399   0.844   3.335  13.394 -0.0990  1.1809 -0.3891
12662TIP3   OH259400   5.308   4.535   4.087  0.3352 -0.0609  0.0487
12662TIP3    H159401   5.271   4.619   4.117  1.7211 -0.0456  1.7803
12662TIP3    H259402   5.365   4.507   4.159  0.4904 -2.1192 -0.8524
12663TIP3   OH259403   3.221   1.397   1.459  0.0456 -0.3450  0.4431
12663TIP3    H159404   3.133   1.361   1.454 -0.4715  1.1737 -2.1429
12663TIP3    H259405   3.271   1.347   1.394  0.7957 -0.3081  0.9769
12664TIP3   OH259406   4.553   1.162   0.916 -0.2014  0.4589 -0.5903
12664TIP3    H159407   4.647   1.174   0.931 -0.0525 -0.6118 -0.6066
12664TIP3    H259408   4.546   1.075   0.877 -1.1684  0.6936 -0.9530
12665TIP3   OH259409   3.248   1.731   3.741 -0.2837  0.2544  0.0493
12665TIP3    H159410   3.260   1.643   3.704 -0.5547  0.6825 -1.0901
12665TIP3    H259411   3.326   1.779   3.712  0.3448  0.1205  1.4983
12666TIP3   OH259412   4.715   3.033  12.487  0.1086  0.5034 -0.5638
12666TIP3    H159413   4.621   3.021  12.471  0.0036 -2.3132  1.9749
12666TIP3    H259414   4.720   3.070  12.575  1.4177  0.4491 -0.6108
12667TIP3   OH259415   2.573   4.955  16.235  0.5487  0.3140  0.1605
12667TIP3    H159416   2.566   4.918  16.322  0.5508  1.3718  0.6168
12667TIP3    H259417   2.490   4.934  16.192  0.9348 -1.0533  0.0782
12668TIP3   OH259418   0.057   5.811  12.118  0.3410 -0.1721  0.1573
12668TIP3    H159419   0.069   5.724  12.157  0.8600  0.2397  0.9359
12668TIP3    H259420  -0.034   5.833  12.136 -0.3152 -1.3162 -1.6337
12669TIP3   OH259421   4.497   3.452   3.525  0.3561 -0.9249  0.3731
12669TIP3    H159422   4.441   3.483   3.454  1.2664  0.2436  0.1527
12669TIP3    H259423   4.586   3.472   3.496  0.8188 -1.7165  1.2291
12670TIP3   OH259424   4.630   4.210   3.019 -0.2009 -0.2472  0.2913
12670TIP3    H159425   4.577   4.131   3.018 -1.2521  0.4041  1.8791
12670TIP3    H259426   4.567   4.282   3.015  0.7016  0.5286 -0.3609
12671TIP3   OH259427   3.868   5.337  14.545  0.0431 -0.5674 -0.2550
12671TIP3    H159428   3.800   5.328  14.610  0.2287  0.5704  0.1138
12671TIP3    H259429   3.860   5.259  14.490  0.2525 -1.8124  1.4528
12672TIP3   OH259430   6.586   5.601  13.749 -0.1936  0.2144 -0.3194
12672TIP3    H159431   6.516   5.565  13.695 -0.1866  0.2941 -0.3827
12672TIP3    H259432   6.606   5.531  13.812 -1.5921  0.8447  0.8878
12673TIP3   OH259433   2.088   5.291   4.118 -0.3922  0.3690 -0.1301
12673TIP3    H159434   2.081   5.267   4.211  0.6419  0.4826 -0.0138
12673TIP3    H259435   2.141   5.371   4.119  1.6133 -0.9170 -0.9853
12674TIP3   OH259436   6.157   3.185  15.483  0.2915 -0.0933 -0.3254
12674TIP3    H159437   6.214   3.247  15.530 -0.8465  0.4399  0.3805
12674TIP3    H259438   6.073   3.192  15.528 -0.4133 -0.6549 -1.5422
12675TIP3   OH259439   2.339   3.027   3.580  0.6247 -0.3333  0.1684
12675TIP3    H159440   2.342   3.008   3.486  0.1732 -0.3892  0.1644
12675TIP3    H259441   2.280   3.101   3.588  1.3319  0.2193  0.3267
12676TIP3   OH259442   0.276   0.615  12.312  0.0162 -0.1328  0.1186
12676TIP3    H159443   0.291   0.524  12.285 -0.5370 -0.2953  0.3325
12676TIP3    H259444   0.359   0.660  12.295 -0.1367 -0.3599 -1.2808
12677TIP3   OH259445   5.696   1.124  11.515 -0.0903  0.6895  0.0038
12677TIP3    H159446   5.659   1.181  11.582  1.7802  0.0527  1.6421
12677TIP3    H259447   5.627   1.115  11.450 -0.8945  3.6941  0.3867
12678TIP3   OH259448   1.084   1.903  11.562 -0.1998 -0.2180  0.3751
12678TIP3    H159449   1.122   1.818  11.543  0.7367 -0.1436  1.8219
12678TIP3    H259450   1.154   1.966  11.544 -0.7606  0.2152 -0.3118
12679TIP3   OH259451   2.208   2.163  11.682 -0.5359  0.0824 -0.1346
12679TIP3    H159452   2.182   2.072  11.664 -0.4887  0.0902 -0.2416
12679TIP3    H259453   2.304   2.158  11.691 -0.2970  0.4893 -2.3026
12680TIP3   OH259454   4.713   6.736  15.617 -0.0381  0.3216  0.8758
12680TIP3    H159455   4.800   6.712  15.587 -0.9459 -3.8950  1.2446
12680TIP3    H259456   4.727   6.799  15.687  2.6743 -0.1407  0.7684
12681TIP3   OH259457   1.536   4.649  14.589 -0.3060 -0.4155  0.4806
12681TIP3    H159458   1.489   4.732  14.581  1.9761  1.0016  1.2230
12681TIP3    H259459   1.516   4.619  14.678  0.9116  0.6690  1.1380
12682TIP3   OH259460   5.518   0.647  12.114 -0.1049 -0.7180  0.2935
12682TIP3    H159461   5.537   0.642  12.020 -1.5479  0.8232 -0.0979
12682TIP3    H259462   5.519   0.740  12.134 -0.4486 -1.0071  1.6828
12683TIP3   OH259463   0.419   0.700  16.810 -0.0909  0.5423 -0.5522
12683TIP3    H159464   0.340   0.753  16.819 -0.3827 -0.0074  0.2305
12683TIP3    H259465   0.463   0.735  16.733 -0.6003  1.4987 -0.4194
12684TIP3   OH259466   1.083   1.490  15.869  0.0689  0.1999  0.2319
12684TIP3    H159467   1.056   1.441  15.791  1.7559  1.4700 -1.1930
12684TIP3    H259468   1.012   1.476  15.931 -2.3830  0.8990 -2.2888
12685TIP3   OH259469   0.722   4.123   0.539  0.2783 -0.2418 -0.4246
12685TIP3    H159470   0.644   4.128   0.484  0.3071 -1.2205 -0.5636
12685TIP3    H259471   0.780   4.192   0.505 -0.9181  1.1640  0.3198
12686TIP3   OH259472   4.769   4.542   1.090 -0.0982  0.2576  0.1545
12686TIP3    H159473   4.752   4.629   1.126  0.8777  1.0132 -1.2228
12686TIP3    H259474   4.854   4.517   1.125 -0.6223 -0.4116  1.0068
12687TIP3   OH259475   3.337   0.131  14.446 -0.1131  0.1435  0.0383
12687TIP3    H159476   3.399   0.134  14.519 -0.6949  0.4824  0.5196
12687TIP3    H259477   3.384   0.172  14.373  0.5980 -0.5188  0.1211
12688TIP3   OH259478   2.587   1.414   3.822  0.1636  0.5933 -0.0126
12688TIP3    H159479   2.646   1.338   3.824  0.3031  0.7418  1.7874
12688TIP3    H259480   2.576   1.439   3.914  1.0971  3.5026 -0.6240
12689TIP3   OH259481   0.660   2.283  13.950  0.1611 -0.1631  0.3521
12689TIP3    H159482   0.677   2.194  13.918 -0.2364 -0.0155 -0.2671
12689TIP3    H259483   0.627   2.330  13.873  0.9329  0.6767  0.5329
12690TIP3   OH259484   6.566   5.010   0.292  0.1648 -0.4641 -0.2186
12690TIP3    H159485   6.615   4.954   0.232 -0.0790  1.1509 -1.9602
12690TIP3    H259486   6.476   5.006   0.260  0.2831  1.5511 -0.8709
12691TIP3   OH259487   1.219   3.863  15.611  0.3272 -0.1326  0.1525
12691TIP3    H159488   1.201   3.876  15.704  0.7453 -0.7801  0.3256
12691TIP3    H259489   1.136   3.835  15.574  0.2793 -0.3566  0.4267
12692TIP3   OH259490   5.760   0.898   5.769  0.1860  0.0017 -0.0929
12692TIP3    H159491   5.737   0.959   5.839 -0.9270  0.6889 -1.0378
12692TIP3    H259492   5.725   0.938   5.689 -1.6871 -2.4664 -0.5823
12693TIP3   OH259493   1.404   6.110   1.361  0.5452  0.5416 -0.0584
12693TIP3    H159494   1.438   6.075   1.443 -1.0650  0.1296  0.4493
12693TIP3    H259495   1.457   6.188   1.344  0.0387  1.3965  2.0799
12694TIP3   OH259496   3.883   4.792  14.561 -0.1135 -0.0152 -0.1660
12694TIP3    H159497   3.838   4.877  14.563 -0.0319  0.0047  0.9432
12694TIP3    H259498   3.932   4.793  14.479 -0.6448  0.7360 -0.4813
12695TIP3   OH259499   2.380   4.240  17.230 -0.4505 -0.1993  0.3214
12695TIP3    H159500   2.354   4.260  17.320 -0.2932  2.2114 -0.1174
12695TIP3    H259501   2.415   4.151  17.234 -0.8472 -0.2847  2.5550
12696TIP3   OH259502   5.786   4.076   3.115 -0.4180  0.3432  0.2091
12696TIP3    H159503   5.795   4.149   3.054  3.1983  1.0703  1.5396
12696TIP3    H259504   5.723   4.107   3.180 -1.5584  0.9174 -1.1492
12697TIP3   OH259505   1.492   0.320  13.901 -0.0828  0.2182  0.4039
12697TIP3    H159506   1.484   0.266  13.979 -0.7576 -0.0074  0.1783
12697TIP3    H259507   1.433   0.393  13.916  1.1259  1.1232  0.8849
12698TIP3   OH259508   2.154   1.548   0.173  0.1895 -0.3198  0.2572
12698TIP3    H159509   2.210   1.620   0.200 -0.2707 -1.0141  3.2420
12698TIP3    H259510   2.197   1.469   0.207 -0.7395 -1.1842 -0.5280
12699TIP3   OH259511   5.648   1.564  13.676  0.0543  0.3015  0.6679
12699TIP3    H159512   5.712   1.563  13.605  0.6949 -1.2147  1.2480
12699TIP3    H259513   5.584   1.631  13.650  0.9501  0.6317 -0.7265
12700TIP3   OH259514   4.269   5.876  13.656  0.0124  0.0935  0.7421
12700TIP3    H159515   4.255   5.782  13.641  1.8520  0.1556 -1.8024
12700TIP3    H259516   4.322   5.880  13.735  1.3024 -1.1497 -0.0306
12701TIP3   OH259517   4.574   2.156   4.021  0.0956  0.4653  0.1246
12701TIP3    H159518   4.604   2.086   4.079 -0.6321  0.7374  0.8367
12701TIP3    H259519   4.490   2.126   3.988 -0.7214  1.4552  1.2605
12702TIP3   OH259520   1.403   6.482  13.714 -0.0272  0.5353  0.3583
12702TIP3    H159521   1.422   6.491  13.621 -0.4547  0.2131  0.2412
12702TIP3    H259522   1.480   6.520  13.758  1.0729 -1.1220 -0.1053
12703TIP3   OH259523   4.199   4.004   2.857 -0.3970 -0.0810  0.1742
12703TIP3    H159524   4.186   4.096   2.835  0.8641  0.2687  0.8859
12703TIP3    H259525   4.226   3.963   2.775 -1.2314  0.1205 -0.2060
12704TIP3   OH259526   2.581   0.312  16.089  0.7855 -0.7919  0.6934
12704TIP3    H159527   2.493   0.344  16.069  1.2729  0.8906  1.1781
12704TIP3    H259528   2.579   0.294  16.183  1.6811  1.6929  1.2264
12705TIP3   OH259529   5.052   3.040   2.939 -0.0198 -0.1334 -0.9367
12705TIP3    H159530   4.973   3.063   2.889 -0.6088 -0.7140 -0.2910
12705TIP3    H259531   5.121   3.032   2.873 -0.7486 -0.7381 -1.6386
12706TIP3   OH259532   6.333   5.168  13.743  0.3659  0.3619 -0.4887
12706TIP3    H159533   6.275   5.237  13.774  0.5127 -0.2688  1.2945
12706TIP3    H259534   6.274   5.099  13.713  0.1238 -0.5438  1.9232
12707TIP3   OH259535   2.249   4.404   1.117 -0.2642 -0.0762 -0.1950
12707TIP3    H159536   2.172   4.455   1.090 -1.5158 -1.3139  0.9316
12707TIP3    H259537   2.245   4.404   1.212  0.8293 -0.6242 -0.1429
12708TIP3   OH259538   3.497   5.876   0.547  0.2414 -0.0671  0.6782
12708TIP3    H159539   3.586   5.892   0.516 -0.8351  0.2098 -2.3873
12708TIP3    H259540   3.487   5.781   0.545  0.1569 -0.0460  0.1519
12709TIP3   OH259541   3.983   2.102  12.173  0.3927  0.2193 -0.2010
12709TIP3    H159542   3.948   2.191  12.174  0.3578  0.2036  0.7009
12709TIP3    H259543   4.065   2.108  12.223  1.5609  0.2025 -2.0476
12710TIP3   OH259544   6.110   1.981   2.343 -0.2257  0.1482 -0.4730
12710TIP3    H159545   6.162   2.045   2.391 -1.1319  0.5121  0.0342
12710TIP3    H259546   6.042   2.033   2.300 -0.7981 -0.4505 -0.2855
12711TIP3   OH259547   6.632   5.642  16.627  0.2978 -0.6670  0.1097
12711TIP3    H159548   6.723   5.648  16.596  0.4204 -0.1485  0.5552
12711TIP3    H259549   6.580   5.683  16.558  0.2924 -1.9252 -0.6444
12712TIP3   OH259550   3.800   0.315  16.874  0.3063 -0.2701  0.2313
12712TIP3    H159551   3.770   0.293  16.786  0.3389  0.0049  0.1472
12712TIP3    H259552   3.896   0.311  16.868  0.2889 -0.9070  0.4283
12713TIP3   OH259553   4.580   4.658  14.624  0.0168  0.1940 -0.2545
12713TIP3    H159554   4.633   4.737  14.632  0.9458 -0.2246 -2.0062
12713TIP3    H259555   4.638   4.587  14.651 -0.1445 -0.1103 -0.7028
12714TIP3   OH259556   4.547   5.714   5.368 -0.2191 -0.2630 -0.2192
12714TIP3    H159557   4.551   5.708   5.463 -1.3082  0.3872 -0.1303
12714TIP3    H259558   4.609   5.783   5.345  0.3977 -0.7443 -0.0269
12715TIP3   OH259559   4.982   5.794   1.499 -0.1354 -0.3706  0.3995
12715TIP3    H159560   4.964   5.877   1.544 -2.1145 -0.7349  0.3125
12715TIP3    H259561   5.027   5.741   1.565 -2.2953 -0.6038  1.7161
12716TIP3   OH259562   1.283   5.630  14.636 -0.4961 -0.0162  0.3686
12716TIP3    H159563   1.209   5.640  14.575 -0.7171 -2.4505  0.1802
12716TIP3    H259564   1.347   5.577  14.588  0.8631  1.0453  0.9803
12717TIP3   OH259565   2.216   4.148   5.205 -0.3565 -0.3671 -0.2443
12717TIP3    H159566   2.294   4.121   5.254 -0.3651 -0.6173 -0.3674
12717TIP3    H259567   2.195   4.235   5.240 -0.7130 -0.7950  0.6107
12718TIP3   OH259568   6.091   0.935   5.524 -0.4871 -0.5651  0.3991
12718TIP3    H159569   6.006   0.894   5.505 -0.5943 -0.9669  1.6817
12718TIP3    H259570   6.069   1.025   5.546 -0.5183 -0.5088  0.1389
12719TIP3   OH259571   5.273   2.668  15.368  0.1900 -0.4713  0.1116
12719TIP3    H159572   5.298   2.689  15.278  1.0346  0.9538  0.6519
12719TIP3    H259573   5.187   2.627  15.360 -1.6760  3.3445 -1.0759
12720TIP3   OH259574   1.802   5.742  15.705  1.0070 -0.4989 -0.5488
12720TIP3    H159575   1.836   5.731  15.793  1.7375 -0.6848 -0.8479
12720TIP3    H259576   1.878   5.728  15.648  0.4142 -0.9788 -1.2301
12721TIP3   OH259577   6.759   3.162  11.961 -0.0534 -0.1539 -0.1252
12721TIP3    H159578   6.716   3.222  11.900  1.4612  1.5079  0.4121
12721TIP3    H259579   6.837   3.133  11.914 -0.2874 -0.9913 -0.0070
12722TIP3   OH259580   1.381   0.484   3.348  0.4854  0.6304  0.2772
12722TIP3    H159581   1.321   0.431   3.400 -2.3076  2.3991 -1.0110
12722TIP3    H259582   1.373   0.449   3.259 -0.7635  2.6066 -0.4241
12723TIP3   OH259583   2.184   5.920  16.693  0.2571  0.3292  0.0058
12723TIP3    H159584   2.131   5.857  16.743 -0.0667  1.5471  1.2216
12723TIP3    H259585   2.268   5.876  16.681 -0.8823 -1.4977 -1.6676
12724TIP3   OH259586   1.898   4.158   1.036  0.1267 -0.0630  0.9297
12724TIP3    H159587   1.952   4.164   0.957 -0.9531 -1.0820  0.0947
12724TIP3    H259588   1.821   4.107   1.009 -0.6229  0.2321  2.4392
12725TIP3   OH259589   5.732   2.352   3.696 -0.0647  0.3974  0.1371
12725TIP3    H159590   5.717   2.279   3.756 -0.6783  1.8490  1.7776
12725TIP3    H259591   5.711   2.316   3.610 -0.4879 -1.3338  0.9382
12726TIP3   OH259592   4.890   0.309  12.360  0.1182 -0.1563  0.1390
12726TIP3    H159593   4.830   0.378  12.388  0.3837  0.1371 -0.0104
12726TIP3    H259594   4.927   0.341  12.277  0.5863 -0.2621  0.3009
12727TIP3   OH259595   0.019   2.550   5.711  0.1412  0.1556  0.1299
12727TIP3    H159596  -0.058   2.585   5.667 -0.3785 -0.2236  0.7454
12727TIP3    H259597  -0.012   2.471   5.757  1.1945 -0.8432 -0.8388
12728TIP3   OH259598   6.248   0.289   3.182 -0.0598  0.3669 -0.4549
12728TIP3    H159599   6.317   0.351   3.204  1.1832 -0.0173 -3.1338
12728TIP3    H259600   6.290   0.226   3.123 -2.4928 -0.3731 -1.4500
12729TIP3   OH259601   6.195   1.334   2.287 -0.1425 -0.1972 -0.4048
12729TIP3    H159602   6.206   1.426   2.314  0.4700 -0.3227 -0.2165
12729TIP3    H259603   6.153   1.292   2.363 -1.6679  0.2065 -0.9924
12730TIP3   OH259604   4.966   0.037  14.307  0.0541 -0.4108  0.0846
12730TIP3    H159605   5.000  -0.037  14.258  0.6843 -1.0920  1.5221
12730TIP3    H259606   5.009   0.114  14.269  0.3926 -0.9158 -0.5428
12731TIP3   OH259607   4.708   3.911   4.716 -0.4902  0.5733  0.3561
12731TIP3    H159608   4.633   3.964   4.740  0.3715  1.7645  0.4665
12731TIP3    H259609   4.747   3.885   4.800  0.6328  2.0181  0.3065
12732TIP3   OH259610   5.652   4.470  12.309  0.3379  0.5443 -0.0335
12732TIP3    H159611   5.739   4.467  12.350  0.2743 -0.0824  0.0586
12732TIP3    H259612   5.666   4.440  12.220  0.2025  0.3420  0.0117
12733TIP3   OH259613   5.499   3.267  13.600  0.0618 -0.0454 -0.0517
12733TIP3    H159614   5.443   3.295  13.528 -0.2868  0.4107  0.3983
12733TIP3    H259615   5.549   3.345  13.623  1.5811 -0.6774 -1.0748
12734TIP3   OH259616   2.451   1.146  11.367  0.3124  0.6536 -0.9821
12734TIP3    H159617   2.441   1.079  11.299 -0.5005 -0.8591  0.6199
12734TIP3    H259618   2.375   1.137  11.423  2.5211 -0.2558  2.0158
12735TIP3   OH259619   2.535   2.826   5.786  0.2587  0.4943  0.1448
12735TIP3    H159620   2.502   2.904   5.741  1.6289  1.8059  1.3633
12735TIP3    H259621   2.476   2.814   5.860  0.0492  0.3671 -0.0414
12736TIP3   OH259622   4.046   0.034  12.277 -0.0465  0.2203 -0.1374
12736TIP3    H159623   3.988   0.087  12.223 -2.0665 -1.8987 -0.0881
12736TIP3    H259624   4.029   0.062  12.366  0.8311  1.3244 -0.2996
12737TIP3   OH259625   4.348   2.523   4.318  0.0309 -0.2926 -0.3352
12737TIP3    H159626   4.347   2.603   4.266 -0.5599 -1.4740 -2.1805
12737TIP3    H259627   4.415   2.539   4.385 -1.4848  2.4929  0.5630
12738TIP3   OH259628   0.592   1.526   1.032  0.6739  0.3545 -0.0397
12738TIP3    H159629   0.613   1.454   0.972 -1.2238  0.3523 -0.7565
12738TIP3    H259630   0.566   1.482   1.113  0.6245  0.2563 -0.1079
12739TIP3   OH259631   5.123   0.857   4.450  0.4855  0.4803  0.1764
12739TIP3    H159632   5.128   0.833   4.357  0.2015 -0.3737  0.3775
12739TIP3    H259633   5.179   0.934   4.457 -0.8095  1.5741 -1.0348
12740TIP3   OH259634   1.279   3.839   1.282  0.1712 -0.2264 -0.0411
12740TIP3    H159635   1.307   3.914   1.229  0.2466 -0.2348 -0.0134
12740TIP3    H259636   1.361   3.801   1.314  0.1138 -0.0434  0.3272
12741TIP3   OH259637   0.902   0.663   0.035  0.0087 -0.4892 -0.0245
12741TIP3    H159638   0.845   0.603  -0.012 -1.0522 -0.5221  1.2808
12741TIP3    H259639   0.863   0.671   0.122  0.2305  1.9608 -0.1124
12742TIP3   OH259640   5.054   4.220   4.969 -0.4987  0.2714 -0.2866
12742TIP3    H159641   5.064   4.218   4.874 -1.2604  3.4629 -0.4841
12742TIP3    H259642   5.144   4.220   5.002 -0.1548  2.5156 -1.1413
12743TIP3   OH259643   5.625   3.054   6.052  0.3481  0.0236  0.1010
12743TIP3    H159644   5.687   3.107   6.102 -0.4244  1.9849 -0.9723
12743TIP3    H259645   5.585   3.115   5.990 -1.1447 -1.6514 -0.6431
12744TIP3   OH259646   0.449   0.649   0.463 -0.4598  0.0086  0.2109
12744TIP3    H159647   0.438   0.593   0.539  1.4556 -0.6325  0.0518
12744TIP3    H259648   0.456   0.588   0.389  1.2450  0.4357 -0.0121
12745TIP3   OH259649   1.135   0.176   5.183  0.0712 -0.5202  0.1135
12745TIP3    H159650   1.230   0.184   5.190 -0.0762  0.9642  0.5855
12745TIP3    H259651   1.105   0.164   5.273 -0.3074  0.3568  0.1004
12746TIP3   OH259652   1.904   0.116   3.803 -0.1254  0.0852 -0.1020
12746TIP3    H159653   1.906   0.179   3.731  1.6567  1.6513  1.2759
12746TIP3    H259654   1.928   0.167   3.880  1.7482 -2.3550  0.9793
12747TIP3   OH259655   5.966   1.910  15.595 -0.2196  0.8428 -0.4312
12747TIP3    H159656   6.011   1.938  15.516  1.6457 -2.0127 -0.4596
12747TIP3    H259657   6.005   1.963  15.665  1.7389 -0.1223 -0.7552
12748TIP3   OH259658   2.883   2.894   3.244 -0.2587  0.0918 -0.2591
12748TIP3    H159659   2.913   2.809   3.212  2.6359  1.2717 -0.7516
12748TIP3    H259660   2.789   2.894   3.225  0.0151 -2.2934 -1.8462
12749TIP3   OH259661   5.202   5.651  14.003 -0.3153  0.1515 -0.3628
12749TIP3    H159662   5.133   5.712  13.975 -0.4813 -0.9416 -2.4211
12749TIP3    H259663   5.223   5.601  13.925  1.4408 -0.8921  0.7429
12750TIP3   OH259664   1.816   2.287  14.050 -0.0996 -0.3436  0.1307
12750TIP3    H159665   1.822   2.302  13.955  0.1994 -0.4396  0.1332
12750TIP3    H259666   1.880   2.218  14.067 -0.0413 -0.2165  0.4290
12751TIP3   OH259667   4.189   2.834   0.470 -0.2712 -0.1372 -0.8232
12751TIP3    H159668   4.214   2.906   0.413  1.7960  0.9337  1.3418
12751TIP3    H259669   4.096   2.848   0.488 -0.1648  1.3416 -1.3574
12752TIP3   OH259670   2.046   4.828   3.663 -0.2440 -0.1207 -0.2775
12752TIP3    H159671   2.085   4.775   3.732  0.3062  0.2082 -0.3348
12752TIP3    H259672   2.117   4.843   3.601 -0.7885 -0.6274 -1.0525
12753TIP3   OH259673   2.396   6.670   2.283  0.3239  0.2172 -0.3654
12753TIP3    H159674   2.440   6.703   2.204  0.9170 -3.7640 -1.8217
12753TIP3    H259675   2.307   6.651   2.254  0.0505  0.3520  0.3890
12754TIP3   OH259676   4.370   1.279  15.438 -0.1046 -0.7356  0.4297
12754TIP3    H159677   4.442   1.247  15.492 -0.3753 -1.6706  0.2410
12754TIP3    H259678   4.314   1.327  15.498  1.0158  0.5567  0.4510
12755TIP3   OH259679   1.864   6.473   3.099  0.7218 -0.3404  0.5002
12755TIP3    H159680   1.815   6.552   3.076  2.2705 -0.1523 -2.3527
12755TIP3    H259681   1.950   6.504   3.125  2.8422 -1.2030 -4.8749
12756TIP3   OH259682   5.971   6.732  13.484 -0.1085 -0.5575  0.1183
12756TIP3    H159683   6.041   6.785  13.523  0.8480 -1.2972 -0.5859
12756TIP3    H259684   5.898   6.740  13.546  0.0733  1.4351  0.1324
12757TIP3   OH259685   3.217   3.407   0.446 -0.1923 -0.5377 -0.1316
12757TIP3    H159686   3.212   3.432   0.539  1.1136 -0.7150 -0.0066
12757TIP3    H259687   3.262   3.480   0.404 -2.0295  0.1895 -0.8921
12758TIP3   OH259688   5.456   4.621   5.318  0.0092 -0.3158 -0.1672
12758TIP3    H159689   5.374   4.619   5.268  0.7554  0.4394 -1.4630
12758TIP3    H259690   5.476   4.530   5.336 -0.8633 -0.5325 -0.2703
12759TIP3   OH259691   0.730   5.081   5.422  0.0463  0.1786  0.0426
12759TIP3    H159692   0.821   5.085   5.450 -0.3599  2.3097  1.2106
12759TIP3    H259693   0.710   5.169   5.391 -1.8890  0.0396  0.7560
12760TIP3   OH259694   5.811   1.197  14.630  0.3709  0.2166 -0.0407
12760TIP3    H159695   5.898   1.157  14.637 -0.2726 -0.9052  1.7790
12760TIP3    H259696   5.795   1.203  14.536  1.6465 -1.2553 -0.3657
12761TIP3   OH259697   0.990   5.057  11.698  0.5618 -0.5642  0.1375
12761TIP3    H159698   0.939   4.982  11.668  1.1972 -0.1539 -2.0531
12761TIP3    H259699   0.945   5.133  11.662  0.5876  0.0388  1.3530
12762TIP3   OH259700   2.503   1.567  12.268  0.4385  0.0369 -0.2674
12762TIP3    H159701   2.517   1.497  12.203  0.9569  0.5407 -0.6996
12762TIP3    H259702   2.520   1.648  12.220  0.0488  0.4528  0.2921
12763TIP3   OH259703   1.854   1.376  16.084  0.2377 -0.6700  0.3232
12763TIP3    H159704   1.891   1.346  16.001  3.5753  0.5767  1.2742
12763TIP3    H259705   1.803   1.454  16.062  0.6794 -0.6423 -0.6168
12764TIP3   OH259706   4.943   4.096   5.182  0.3823 -0.1458 -0.1657
12764TIP3    H159707   5.003   4.131   5.116 -1.6370 -0.4837 -2.2208
12764TIP3    H259708   4.890   4.172   5.208 -1.7451 -0.8823 -2.1747
12765TIP3   OH259709   1.632   0.547   4.681 -0.9051 -0.5188  0.1097
12765TIP3    H159710   1.689   0.473   4.665  0.5736  0.7103 -0.4648
12765TIP3    H259711   1.649   0.571   4.773  0.1580  0.3666 -0.3050
12766TIP3   OH259712   2.459   0.070  12.341  0.1162 -0.5151  0.3025
12766TIP3    H159713   2.442   0.083  12.435  0.2461 -1.4062  0.4609
12766TIP3    H259714   2.454   0.157  12.303 -0.9617 -0.2791  0.9751
12767TIP3   OH259715   0.848   0.106   1.251 -0.7685 -0.6479  0.3152
12767TIP3    H159716   0.825   0.155   1.330  2.1701 -0.7093  1.2633
12767TIP3    H259717   0.820   0.016   1.269  1.6301 -1.0662  2.0998
12768TIP3   OH259718   4.992   6.086  11.897 -0.3001  0.4877 -0.4820
12768TIP3    H159719   5.040   6.055  11.820 -0.0309 -1.6043  0.4791
12768TIP3    H259720   4.905   6.109  11.864 -0.0669 -0.0509 -1.4703
12769TIP3   OH259721   2.243   4.268  13.817 -0.1422  0.4924  0.4624
12769TIP3    H159722   2.281   4.310  13.740 -1.3567 -0.3600 -0.6415
12769TIP3    H259723   2.298   4.295  13.890  1.8336  0.2360 -0.9120
12770TIP3   OH259724   3.470   3.672  11.624 -0.3350  0.3243  0.2428
12770TIP3    H159725   3.496   3.579  11.627 -0.7468  0.1661 -1.0144
12770TIP3    H259726   3.550   3.719  11.644 -0.3932 -0.3325  2.1338
12771TIP3   OH259727   6.686   1.197   3.229 -0.4702 -0.0987  0.0797
12771TIP3    H159728   6.760   1.233   3.179 -0.0923 -0.1551  0.6009
12771TIP3    H259729   6.658   1.121   3.177 -0.2664  0.0155 -0.2020
12772TIP3   OH259730   6.027   0.203  16.521  0.3331 -0.1611 -0.2931
12772TIP3    H159731   5.972   0.258  16.466  0.5998  0.1920 -0.2136
12772TIP3    H259732   6.112   0.202  16.477  0.0474 -1.3168 -0.8056
12773TIP3   OH259733   6.685   2.503  15.995  0.1301 -0.0530 -0.0894
12773TIP3    H159734   6.667   2.464  15.909  0.2880 -0.0226 -0.1377
12773TIP3    H259735   6.702   2.595  15.976 -1.1396  0.2272  0.1337
12774TIP3   OH259736   5.880   4.726   4.638 -0.4314 -0.7639 -0.5898
12774TIP3    H159737   5.898   4.680   4.720 -0.5310  0.7303  0.2874
12774TIP3    H259738   5.961   4.721   4.589  0.8714  1.5813  1.2160
12775TIP3   OH259739   1.018   5.971  10.718  0.0954  0.1734 -0.0124
12775TIP3    H159740   1.106   6.005  10.701  0.3485  0.6298  2.0885
12775TIP3    H259741   0.959   6.035  10.678  0.6897  0.0217 -1.1652
12776TIP3   OH259742   1.126   4.922   4.455  0.0395  0.1849  0.5245
12776TIP3    H159743   1.037   4.889   4.442 -0.1820  0.5472  1.0823
12776TIP3    H259744   1.176   4.847   4.486 -0.3487  0.2632  1.3425
12777TIP3   OH259745   4.720   0.038  12.834  0.6341  0.0567 -0.3532
12777TIP3    H159746   4.802   0.084  12.852  1.3696 -0.8957 -1.2284
12777TIP3    H259747   4.744  -0.031  12.773 -1.1209  0.8147 -1.9590
12778TIP3   OH259748   1.963   5.897  17.126 -0.3712 -0.6289  0.1275
12778TIP3    H159749   2.039   5.840  17.127 -0.3179 -0.5494  0.8633
12778TIP3    H259750   1.983   5.963  17.060  0.2551 -0.5293  0.4169
12779TIP3   OH259751   2.787   4.376  12.227  0.3580  0.0947 -0.6176
12779TIP3    H159752   2.858   4.321  12.261  0.6233  1.9595  1.9639
12779TIP3    H259753   2.831   4.440  12.172  0.2825 -0.8512 -1.8030
12780TIP3   OH259754   2.493   6.072  11.635  0.1904  0.1913  0.0704
12780TIP3    H159755   2.440   6.145  11.668  0.5537  0.2438  0.5527
12780TIP3    H259756   2.482   6.004  11.701  1.4308  0.5246  0.6303
12781TIP3   OH259757   1.364   1.291   4.663 -0.2692  0.1353  0.1439
12781TIP3    H159758   1.458   1.310   4.664 -0.6341  2.0371 -1.1218
12781TIP3    H259759   1.348   1.253   4.577 -1.1455  2.3142 -0.6654
12782TIP3   OH259760   3.666   5.348   4.036  0.2795 -0.7085 -0.1208
12782TIP3    H159761   3.589   5.324   3.983  0.2304  0.0305 -0.3864
12782TIP3    H259762   3.655   5.297   4.116 -1.6863  1.0509  0.7925
12783TIP3   OH259763   0.946   2.613   3.087  0.3332  0.0867  0.1805
12783TIP3    H159764   0.860   2.640   3.118  0.0369 -0.9628  0.2952
12783TIP3    H259765   0.929   2.575   3.000  0.4587 -1.4497  0.8089
12784TIP3   OH259766   6.509   2.249  13.418  0.2859 -0.3784 -0.3490
12784TIP3    H159767   6.525   2.188  13.491 -1.3767 -0.3983  0.0255
12784TIP3    H259768   6.554   2.209  13.344  0.8243 -1.0811  0.3409
12785TIP3   OH259769   4.646   2.324   1.032 -0.4010 -0.7596 -0.4064
12785TIP3    H159770   4.617   2.306   0.943 -0.1806  2.4729 -1.2046
12785TIP3    H259771   4.729   2.277   1.041 -0.4319 -1.1190 -1.9056
12786TIP3   OH259772   6.062   1.966  17.113  0.2046  0.2658  0.5053
12786TIP3    H159773   6.095   1.971  17.203 -1.5263 -3.5068  1.4355
12786TIP3    H259774   5.979   2.014  17.116  0.1159  0.0890  0.9179
12787TIP3   OH259775   5.692   5.123   4.808  0.3989  0.0642  0.4623
12787TIP3    H159776   5.684   5.028   4.813  1.6593 -0.2294 -2.1504
12787TIP3    H259777   5.686   5.143   4.714  0.8491  2.4950  0.9068
12788TIP3   OH259778   6.652   2.000  11.397 -0.1916 -0.2451 -0.9880
12788TIP3    H159779   6.603   1.976  11.476  0.5798  0.5322 -0.2590
12788TIP3    H259780   6.669   1.916  11.353 -0.6350 -0.6859 -0.3263
12789TIP3   OH259781   0.944   6.385   0.384  0.1842 -0.1605 -0.4323
12789TIP3    H159782   0.998   6.342   0.451  0.5314  0.3096 -0.4067
12789TIP3    H259783   0.973   6.477   0.385 -1.2625  0.3088  0.2357
12790TIP3   OH259784   4.951   2.883   3.131  0.1076 -0.1690  0.8582
12790TIP3    H159785   4.990   2.949   3.073  1.6210 -1.7411  0.0471
12790TIP3    H259786   4.877   2.847   3.082  0.7472 -0.7591  0.3205
12791TIP3   OH259787   0.961   4.869   0.993 -0.2365 -0.4374 -0.0049
12791TIP3    H159788   1.034   4.886   0.933 -0.4114  0.0693 -0.0770
12791TIP3    H259789   0.993   4.800   1.051  0.6204  0.4036  0.5318
12792TIP3   OH259790   6.226   3.555   3.605 -0.5286  0.6208  0.1558
12792TIP3    H159791   6.180   3.474   3.586 -0.3094 -0.0466  2.3354
12792TIP3    H259792   6.291   3.531   3.671  1.7737  1.8954 -1.5660
12793TIP3   OH259793   0.469   1.404  11.279  0.1948 -0.2939 -0.2423
12793TIP3    H159794   0.424   1.387  11.362  0.1227 -1.0569 -0.4420
12793TIP3    H259795   0.530   1.475  11.300 -0.1722 -0.1454  0.3460
12794TIP3   OH259796   0.408   5.472  14.918 -0.0766 -0.6605 -0.3183
12794TIP3    H159797   0.365   5.539  14.866  1.9666  0.0435 -1.1775
12794TIP3    H259798   0.374   5.484  15.007 -1.9023 -0.4054 -1.0465
12795TIP3   OH259799   2.459   3.419  14.612  0.1049  0.0492 -0.2280
12795TIP3    H159800   2.533   3.468  14.648 -0.2250  0.1138  0.3614
12795TIP3    H259801   2.469   3.427  14.517 -0.4187  1.9869 -0.1416
12796TIP3   OH259802   1.340   2.310   5.528 -0.6045 -0.6754 -0.0236
12796TIP3    H159803   1.366   2.302   5.436 -3.6000  1.2572 -1.1223
12796TIP3    H259804   1.385   2.388   5.560 -1.2905 -0.0746 -0.5136
12797TIP3   OH259805   0.939   5.019  13.436 -0.0637 -0.7498  0.0066
12797TIP3    H159806   0.898   5.022  13.350 -0.3069  0.5532  0.1527
12797TIP3    H259807   0.865   5.014  13.498  0.0370  0.1731  0.2097
12798TIP3   OH259808   0.173   0.001  12.471 -0.5437 -0.3612  0.0405
12798TIP3    H159809   0.122  -0.080  12.466 -0.1632 -0.6178  0.2960
12798TIP3    H259810   0.159   0.043  12.386 -0.9071 -0.5928 -0.0169
12799TIP3   OH259811   2.318   0.402   0.427  0.0235 -0.2893 -0.0534
12799TIP3    H159812   2.370   0.476   0.458 -0.7512 -0.3144  1.3241
12799TIP3    H259813   2.257   0.441   0.364  0.6959 -0.0254 -0.5526
12800TIP3   OH259814   2.566   4.761  11.122  0.2313  0.2189 -0.3701
12800TIP3    H159815   2.648   4.765  11.073  1.1183 -1.5732  0.9352
12800TIP3    H259816   2.544   4.853  11.140  2.5391  0.6676  0.2749
12801TIP3   OH259817   0.505   4.869  12.404  0.0644 -0.5244  0.0649
12801TIP3    H159818   0.510   4.830  12.317  0.3610  0.3162 -0.2949
12801TIP3    H259819   0.535   4.959  12.392 -0.9280 -0.0857  0.8379
12802TIP3   OH259820   0.221   3.431   2.720 -0.2517 -0.0126 -0.5831
12802TIP3    H159821   0.257   3.345   2.696 -1.8963 -0.6859 -0.7562
12802TIP3    H259822   0.180   3.416   2.805 -2.4298  0.0338 -1.5896
12803TIP3   OH259823   2.791   6.135   4.820 -0.2972  0.2751 -0.1450
12803TIP3    H159824   2.742   6.114   4.741  0.1029 -0.7780 -0.1278
12803TIP3    H259825   2.734   6.193   4.870 -0.4873  1.0697 -1.2762
12804TIP3   OH259826   1.466   6.498  11.475 -0.4310  0.1397  0.2204
12804TIP3    H159827   1.425   6.572  11.430  0.8934  0.6765 -0.1029
12804TIP3    H259828   1.473   6.430  11.407  0.2570  0.4466 -0.0166
12805TIP3   OH259829   3.013   1.073  16.658 -0.2512  0.3882 -0.0044
12805TIP3    H159830   2.954   1.138  16.619 -1.2876 -0.3896  0.2399
12805TIP3    H259831   2.956   0.998  16.677  0.2710  0.6756  2.8231
12806TIP3   OH259832   2.067   4.608   0.004  0.4839 -0.8195 -0.8718
12806TIP3    H159833   2.017   4.561   0.071  1.3177 -0.5327 -0.0327
12806TIP3    H259834   2.002   4.662  -0.041 -0.1042 -1.0937 -0.3565
12807TIP3   OH259835   0.173   0.375   0.676  0.5492 -0.0075  0.4762
12807TIP3    H159836   0.266   0.396   0.677  0.6438 -0.4141  0.4742
12807TIP3    H259837   0.137   0.428   0.605  1.0886 -1.0916 -0.6263
12808TIP3   OH259838   1.615   1.634   0.896 -0.0945 -0.4401  0.4426
12808TIP3    H159839   1.590   1.723   0.872 -1.2405 -0.5094  1.3541
12808TIP3    H259840   1.545   1.579   0.859  0.0912 -0.8741  0.7412
12809TIP3   OH259841   4.866   5.258  12.224  0.5985 -0.5340 -0.1880
12809TIP3    H159842   4.836   5.348  12.239 -1.3633 -0.6483 -2.9882
12809TIP3    H259843   4.880   5.222  12.311 -1.0228  1.7125  1.0361
12810TIP3   OH259844   0.831   0.943  17.101  0.6255 -0.0250 -0.8792
12810TIP3    H159845   0.903   0.911  17.155  1.4474  0.8315 -1.4432
12810TIP3    H259846   0.836   0.891  17.020  1.0130  0.4706 -1.1768
12811TIP3   OH259847   3.620   0.278  17.093  0.1867  0.1491  0.0539
12811TIP3    H159848   3.667   0.292  17.011 -1.8620  2.0538 -0.8158
12811TIP3    H259849   3.636   0.357  17.145 -0.8316  0.1565  0.3639
12812TIP3   OH259850   6.777   4.810  16.790  0.1304 -0.3926  0.0345
12812TIP3    H159851   6.793   4.886  16.734  1.0174 -0.2478  0.4717
12812TIP3    H259852   6.722   4.752  16.737  1.0824 -0.3288 -1.0417
12813TIP3   OH259853   2.223   0.209   5.761 -0.6862  0.3736 -0.4677
12813TIP3    H159854   2.247   0.117   5.771  1.0655  0.8407 -0.1823
12813TIP3    H259855   2.222   0.244   5.850 -2.1835  0.4308 -0.5062
12814TIP3   OH259856   0.291   5.795   3.721  0.1488  0.5883  0.4079
12814TIP3    H159857   0.372   5.777   3.769 -0.7392 -1.5765  1.1403
12814TIP3    H259858   0.237   5.846   3.782  0.2114  0.4291  0.5956
12815TIP3   OH259859   0.312   0.599  10.519 -0.1729 -0.8719 -0.0075
12815TIP3    H159860   0.362   0.638  10.590  0.7347 -1.7665 -0.1356
12815TIP3    H259861   0.368   0.610  10.442 -0.8010 -0.6115 -0.4275
12816TIP3   OH259862   2.660   3.511   6.406  0.0928 -0.1549  0.5297
12816TIP3    H159863   2.698   3.595   6.433  1.0324 -0.6941  0.8812
12816TIP3    H259864   2.715   3.482   6.334 -0.9153  0.0633 -0.3517
12817TIP3   OH259865   6.687   3.055   2.303 -0.2531  0.4928 -0.5798
12817TIP3    H159866   6.696   3.028   2.212 -1.5390 -0.5040 -0.4208
12817TIP3    H259867   6.778   3.066   2.333  0.1811  0.7031 -1.9216
12818TIP3   OH259868   1.204   2.478  13.769 -0.1052  0.3135 -0.2517
12818TIP3    H159869   1.133   2.538  13.787  0.5997  1.7365 -2.0827
12818TIP3    H259870   1.161   2.397  13.741 -1.0155  0.5539  0.4397
12819TIP3   OH259871   1.738   3.507   6.593 -0.2828  0.2770 -0.4049
12819TIP3    H159872   1.777   3.420   6.586  1.0016  0.9801 -2.2224
12819TIP3    H259873   1.644   3.490   6.604  0.2610 -1.3705  2.1616
12820TIP3   OH259874   3.329   4.057  13.409 -0.0708  0.6866  0.3587
12820TIP3    H159875   3.324   4.132  13.350 -1.8213 -0.1934 -0.6555
12820TIP3    H259876   3.262   4.075  13.476 -3.2113 -1.6759 -1.9830
12821TIP3   OH259877   4.510   1.486   6.614  0.4743  0.1941 -0.2128
12821TIP3    H159878   4.602   1.500   6.591  0.2857  0.7835 -0.6041
12821TIP3    H259879   4.512   1.462   6.707  1.0049  0.3670 -0.1781
12822TIP3   OH259880   3.976   4.972  17.133 -0.3150 -0.2840  0.4167
12822TIP3    H159881   3.916   4.898  17.124  1.5377 -1.7348 -0.4679
12822TIP3    H259882   3.958   5.007  17.220 -1.2261 -1.7967  0.8647
12823TIP3   OH259883   4.387   0.645   1.862  0.2058  0.2534  0.1281
12823TIP3    H159884   4.301   0.666   1.899 -0.0873 -0.2212 -0.2843
12823TIP3    H259885   4.369   0.587   1.789  0.9178 -0.3146  0.3927
12824TIP3   OH259886   1.645   0.833   3.555  0.3506 -0.2448  0.3568
12824TIP3    H159887   1.645   0.749   3.600  0.2898  1.0348  2.8273
12824TIP3    H259888   1.728   0.874   3.580  0.1630  0.6428 -0.4271
12825TIP3   OH259889   6.090   1.570  13.408  0.0629 -0.2521 -0.0949
12825TIP3    H159890   6.031   1.632  13.450  0.1944 -0.7385  0.8234
12825TIP3    H259891   6.147   1.625  13.353 -1.1621  0.2193 -0.9003
12826TIP3   OH259892   2.706   1.925   4.853  0.0778  0.4090  0.1646
12826TIP3    H159893   2.686   1.845   4.902  2.6859 -0.5174 -0.2145
12826TIP3    H259894   2.623   1.949   4.812 -1.3272 -0.7156  2.2456
12827TIP3   OH259895   6.081   2.415  14.513 -0.9240 -0.3782 -0.6327
12827TIP3    H159896   6.112   2.440  14.426  1.0340  1.2802  0.4793
12827TIP3    H259897   6.108   2.324  14.524  1.4130  0.2668 -0.6964
12828TIP3   OH259898   2.961   0.687   2.265 -0.2935  0.0461  0.7109
12828TIP3    H159899   2.917   0.688   2.349  0.3567  1.9684  1.0700
12828TIP3    H259900   3.043   0.640   2.281  1.0705  2.7424  1.8547
12829TIP3   OH259901   4.038   2.425   3.779 -0.1466  0.1451 -0.1897
12829TIP3    H159902   3.967   2.453   3.837 -0.8011 -2.9529  0.6063
12829TIP3    H259903   3.994   2.374   3.711  1.3151 -2.0902  0.4930
12830TIP3   OH259904   0.714   2.690  11.024 -0.0136  0.5571  0.1213
12830TIP3    H159905   0.687   2.622  10.962  1.2150  0.5157 -0.3788
12830TIP3    H259906   0.755   2.758  10.970  1.7469  0.1880  0.9347
12831TIP3   OH259907   2.065   2.800  11.472 -0.0456 -0.1436  0.8378
12831TIP3    H159908   2.111   2.840  11.398  0.7305  0.8727  1.8418
12831TIP3    H259909   2.101   2.845  11.549 -0.7819 -1.2419  1.8319
12832TIP3   OH259910   4.685   0.559   0.303 -0.4760 -0.0266  0.2721
12832TIP3    H159911   4.613   0.591   0.250  0.0594 -0.0268 -0.4679
12832TIP3    H259912   4.664   0.467   0.320 -0.7110  0.0096  0.1742
12833TIP3   OH259913   1.269   5.151  15.914 -0.0645 -0.7489 -0.3784
12833TIP3    H159914   1.175   5.133  15.920 -0.0953 -0.6266 -0.5081
12833TIP3    H259915   1.279   5.238  15.953  0.1413 -1.2191  0.6523
12834TIP3   OH259916   5.830   2.451   0.942  0.8268 -0.4397  0.6328
12834TIP3    H159917   5.828   2.461   1.037  0.5637  0.4596  0.5407
12834TIP3    H259918   5.738   2.455   0.916  0.9781  0.5563  0.2296
12835TIP3   OH259919   0.277   1.445   2.695 -0.3777 -0.1653  0.1126
12835TIP3    H159920   0.256   1.360   2.655  2.3986 -0.1863 -1.4327
12835TIP3    H259921   0.309   1.498   2.622  0.8511  1.1897  1.5992
12836TIP3   OH259922   6.548   4.507  10.749  0.0739 -0.0856  0.4201
12836TIP3    H159923   6.538   4.558  10.669  0.9548 -0.5086  0.0336
12836TIP3    H259924   6.525   4.568  10.819  1.6690  1.0264  0.0031
12837TIP3   OH259925   3.983   3.203   2.716  0.2317  0.1630 -0.0426
12837TIP3    H159926   3.950   3.203   2.626 -1.5955  1.6758  0.6186
12837TIP3    H259927   3.990   3.296   2.739 -1.1622 -0.2190  2.0378
12838TIP3   OH259928   1.142   2.602   5.193  0.5171  0.0987  0.3526
12838TIP3    H159929   1.100   2.524   5.230 -1.7210  1.4336  0.7049
12838TIP3    H259930   1.087   2.674   5.221 -0.2280  1.3620 -4.0767
12839TIP3   OH259931   3.595   1.819  11.677  0.1609  0.3331 -0.4073
12839TIP3    H159932   3.512   1.794  11.638  0.0238 -0.3362  0.3037
12839TIP3    H259933   3.660   1.802  11.608 -0.0073 -1.3796 -0.1681
12840TIP3   OH259934   6.019   4.783  13.395 -0.8580  0.8842  0.0749
12840TIP3    H159935   6.017   4.770  13.489  0.0746 -1.4143 -0.1869
12840TIP3    H259936   6.107   4.817  13.377  0.0135 -1.4681 -0.2574
12841TIP3   OH259937   1.682   1.681   3.550 -0.3362  0.9508 -1.1205
12841TIP3    H159938   1.649   1.596   3.519 -1.0379  0.2576  1.4428
12841TIP3    H259939   1.749   1.705   3.486  0.5918 -2.0313 -1.3538
12842TIP3   OH259940   3.519   5.453  14.074  0.2900  0.0606  0.4939
12842TIP3    H159941   3.521   5.438  13.979 -0.5923  2.1999  0.1120
12842TIP3    H259942   3.594   5.403  14.107  0.7338 -0.5492 -1.3574
12843TIP3   OH259943   1.863   4.754  17.136  0.2367  0.1445  0.5579
12843TIP3    H159944   1.837   4.816  17.068  3.8319 -0.8347 -1.8110
12843TIP3    H259945   1.794   4.687  17.135 -0.8302  1.2337 -0.6143
12844TIP3   OH259946   2.250   0.278  12.499  0.1340 -0.1568  0.4555
12844TIP3    H159947   2.191   0.240  12.565  0.7447 -1.9593 -0.0013
12844TIP3    H259948   2.232   0.228  12.420  1.2815  0.2160 -0.0477
12845TIP3   OH259949   6.771   6.267  12.583  0.2519 -0.1702 -0.0101
12845TIP3    H159950   6.756   6.219  12.501  1.8414 -0.3291 -0.2203
12845TIP3    H259951   6.810   6.202  12.641 -1.6907 -0.2933  1.1823
12846TIP3   OH259952   4.747   2.844  13.361 -0.5564 -0.4331 -0.2230
12846TIP3    H159953   4.758   2.758  13.320 -1.9854  0.0724 -1.7083
12846TIP3    H259954   4.661   2.841  13.401 -0.1018 -0.1088  0.8057
12847TIP3   OH259955   3.420   1.705   2.192 -0.2810 -0.0285 -0.1081
12847TIP3    H159956   3.386   1.624   2.153  1.2940 -1.3234  1.1597
12847TIP3    H259957   3.405   1.772   2.125 -4.7188 -0.6216  0.1116
12848TIP3   OH259958   3.593   1.482  15.158  0.7152  0.1506 -0.0004
12848TIP3    H159959   3.593   1.577  15.163 -1.8300  0.2308 -0.5171
12848TIP3    H259960   3.579   1.454  15.249 -4.1427  0.5060 -0.4687
12849TIP3   OH259961   6.643   5.153  17.066  0.4384  0.0232  0.1381
12849TIP3    H159962   6.686   5.068  17.064 -1.2808 -0.9018  0.8738
12849TIP3    H259963   6.714   5.217  17.065  1.7675 -1.4351  0.4051
12850TIP3   OH259964   3.560   1.338   0.773 -0.8343 -0.5815  0.1897
12850TIP3    H159965   3.644   1.307   0.807 -0.3540  1.1346  0.6411
12850TIP3    H259966   3.497   1.269   0.796 -0.4951  0.3831  4.3843
12851TIP3   OH259967   3.894   3.480   5.769 -0.0347 -0.3629  0.4774
12851TIP3    H159968   3.846   3.516   5.844  1.1849  1.2883  0.4981
12851TIP3    H259969   3.928   3.396   5.800  0.1411  0.1324  1.6488
12852TIP3   OH259970   3.058   2.109  12.752  0.0963 -0.7543  0.1348
12852TIP3    H159971   3.151   2.100  12.772 -0.0114 -1.6888  0.2489
12852TIP3    H259972   3.049   2.081  12.661 -0.1267 -1.0050  0.2323
12853TIP3   OH259973   0.075   6.710  13.010 -0.4512  0.7136 -0.0337
12853TIP3    H159974   0.133   6.780  13.040 -1.0770  1.4039 -0.3940
12853TIP3    H259975   0.075   6.718  12.915  0.9359 -0.9813 -0.1991
12854TIP3   OH259976   1.596   4.582   0.305  0.2262  0.0781  0.7365
12854TIP3    H159977   1.552   4.605   0.386  0.1457 -0.9451  0.9915
12854TIP3    H259978   1.543   4.512   0.268  0.4846  0.2656 -0.0049
12855TIP3   OH259979   2.808   0.489  12.109  0.3151  0.4947  0.0779
12855TIP3    H159980   2.727   0.539  12.102 -0.0256  0.0932  1.1445
12855TIP3    H259981   2.793   0.412  12.054  0.4214  0.9916 -0.6625
12856TIP3   OH259982   2.318   4.520   2.477  0.0756 -0.1230  0.3390
12856TIP3    H159983   2.258   4.498   2.406  0.9904 -0.2770 -0.4036
12856TIP3    H259984   2.400   4.544   2.433  0.2191  1.1877  1.2787
12857TIP3   OH259985   5.569   3.370   4.521  0.4570 -0.2570 -0.5399
12857TIP3    H159986   5.502   3.390   4.586  1.2959 -1.6317  0.7871
12857TIP3    H259987   5.522   3.370   4.437 -0.9093  0.2227  0.2081
12858TIP3   OH259988   0.601   2.705  16.248 -0.1431 -0.1573 -0.0029
12858TIP3    H159989   0.636   2.750  16.325  0.7623 -1.4322  0.3509
12858TIP3    H259990   0.519   2.665  16.278 -0.4743  0.4684 -0.0683
12859TIP3   OH259991   4.285   1.236   1.973 -0.5442 -0.3104 -0.4884
12859TIP3    H159992   4.294   1.157   1.920 -0.1200 -0.4334 -0.2345
12859TIP3    H259993   4.280   1.205   2.063 -0.3468 -0.0509 -0.3845
12860TIP3   OH259994   2.334   1.317  14.792  0.2230 -0.3989 -0.5028
12860TIP3    H159995   2.286   1.400  14.794  0.5744 -0.1877 -0.8096
12860TIP3    H259996   2.273   1.255  14.751 -0.8045 -0.7903  1.5425
12861TIP3   OH259997   3.616   6.183   5.033  0.0076 -0.2215  0.0697
12861TIP3    H159998   3.583   6.094   5.019  1.3137 -0.6273 -0.5423
12861TIP3    H259999   3.595   6.203   5.124 -0.1304 -1.2387  0.2621
12862TIP3   OH260000   2.877   2.476  15.613 -0.0110  0.0775 -0.1879
12862TIP3    H160001   2.890   2.488  15.519  0.4269  1.0816 -0.0030
12862TIP3    H260002   2.889   2.563  15.651 -1.1030 -0.1421  0.6975
12863TIP3   OH260003   6.125   1.639   3.476  0.4512 -0.5028  0.5055
12863TIP3    H160004   6.196   1.692   3.439 -0.2997 -0.7423 -1.3505
12863TIP3    H260005   6.163   1.552   3.488  0.0963 -1.0429 -1.9314
12864TIP3   OH260006   2.078   2.409   0.616  0.0751 -0.1468  0.3991
12864TIP3    H160007   2.073   2.503   0.600  1.0874 -0.1502 -0.0176
12864TIP3    H260008   2.139   2.377   0.549  0.2240 -0.9985  0.9329
12865TIP3   OH260009   2.628   5.814  14.847 -0.6788  0.3120  0.4035
12865TIP3    H160010   2.632   5.725  14.882  1.0932  0.5774  0.9440
12865TIP3    H260011   2.701   5.859  14.889 -0.0821  1.3462 -1.6850
12866TIP3   OH260012   6.648   0.602  15.492  0.3482  0.3401  0.0955
12866TIP3    H160013   6.618   0.690  15.467  0.3499  0.9912  2.3311
12866TIP3    H260014   6.732   0.616  15.535  0.4953 -0.7939  0.1921
12867TIP3   OH260015   0.041   6.577   5.327 -0.1490  1.0314  0.0918
12867TIP3    H160016   0.065   6.485   5.334 -1.2870  0.4975 -2.3715
12867TIP3    H260017   0.036   6.608   5.417  3.3485 -0.4604  0.8953
12868TIP3   OH260018   4.826   0.027  13.814 -0.4261 -0.0234  0.2839
12868TIP3    H160019   4.820   0.005  13.721  1.0846  0.0031  0.1638
12868TIP3    H260020   4.917   0.008  13.837 -0.9417 -0.6249  1.9189
12869TIP3   OH260021   1.320   3.528  11.402 -0.0885 -0.4238  0.1297
12869TIP3    H160022   1.244   3.582  11.381  1.4256  1.0234 -1.9402
12869TIP3    H260023   1.331   3.538  11.497 -1.2976  0.9538  0.1486
12870TIP3   OH260024   2.063   4.037  16.016  1.2138 -0.0346  0.0209
12870TIP3    H160025   2.090   4.056  16.106  1.2624 -0.2565  0.0519
12870TIP3    H260026   2.079   4.119  15.969  0.8776  0.1854  0.2828
12871TIP3   OH260027   1.116   1.462   3.725 -0.0517  0.1856  0.0293
12871TIP3    H160028   1.188   1.511   3.686  0.1941  0.2883  0.6029
12871TIP3    H260029   1.159   1.401   3.785 -0.4981  0.9235  1.1117
12872TIP3   OH260030   5.641   5.654  11.147 -0.4296 -0.0059 -0.4041
12872TIP3    H160031   5.659   5.628  11.057  0.0293  1.4191 -0.7346
12872TIP3    H260032   5.605   5.575  11.188  0.0806 -0.8851 -1.6184
12873TIP3   OH260033   5.697   5.685  11.843 -0.3222 -1.0318 -0.1024
12873TIP3    H160034   5.660   5.597  11.847  3.3729 -2.8250 -2.6567
12873TIP3    H260035   5.775   5.681  11.898 -1.8109  1.7013  2.4293
12874TIP3   OH260036   0.500   1.720   3.336 -0.1102  0.3087  0.2002
12874TIP3    H160037   0.565   1.671   3.386 -1.7507 -2.8624 -0.6766
12874TIP3    H260038   0.473   1.660   3.266 -2.7515  2.1854 -0.4665
12875TIP3   OH260039   3.532   4.034   1.981 -0.8272 -0.0981 -0.2252
12875TIP3    H160040   3.546   3.976   1.906  0.5862 -1.0265  0.7275
12875TIP3    H260041   3.482   3.982   2.043  0.0237 -0.1615  0.4254
12876TIP3   OH260042   6.459   1.475   0.713  0.2422  0.4364  0.2888
12876TIP3    H160043   6.388   1.497   0.774 -0.9026 -0.3119 -0.7519
12876TIP3    H260044   6.461   1.549   0.652  0.5433  0.5860  0.4795
12877TIP3   OH260045   3.950   1.120   2.191  0.5493  0.1960  0.2085
12877TIP3    H160046   4.010   1.049   2.210 -1.0137 -0.5149  2.6975
12877TIP3    H260047   3.869   1.076   2.164  0.4034  1.1027 -0.8839
12878TIP3   OH260048   2.859   3.021   4.418 -0.0163 -0.0545  0.2904
12878TIP3    H160049   2.878   3.045   4.327  0.7706  0.5128  0.5900
12878TIP3    H260050   2.927   2.957   4.441 -0.2354 -0.2268  0.4708
12879TIP3   OH260051   5.445   4.241  16.018 -0.1990 -0.1661 -0.3556
12879TIP3    H160052   5.373   4.255  16.080 -0.4539 -1.2525 -0.3994
12879TIP3    H260053   5.471   4.150  16.031  1.0092  0.1459 -0.5212
12880TIP3   OH260054   2.859   1.119   6.090 -0.2937 -0.5935  0.1565
12880TIP3    H160055   2.817   1.046   6.136 -0.0112  0.8954  2.9397
12880TIP3    H260056   2.786   1.178   6.068 -0.5049 -1.6174 -1.9442
12881TIP3   OH260057   1.667   4.561  17.206  0.6879  0.5665  0.1946
12881TIP3    H160058   1.590   4.588  17.257  0.3380 -2.1473  1.2295
12881TIP3    H260059   1.722   4.515  17.270  1.7813 -0.0775 -1.1928
12882TIP3   OH260060   3.279   5.319  16.070 -0.4343  0.2296  0.0649
12882TIP3    H160061   3.312   5.408  16.083 -0.0032  0.1860 -0.6515
12882TIP3    H260062   3.186   5.330  16.054 -0.9210  0.3049  2.7157
12883TIP3   OH260063   5.694   5.794  14.103  0.1072 -0.7619 -0.3512
12883TIP3    H160064   5.724   5.807  14.013 -0.9780 -0.8740 -0.7336
12883TIP3    H260065   5.632   5.722  14.098  1.9456 -2.4740  0.9089
12884TIP3   OH260066   1.018   0.910   0.066  0.1592  0.0929 -0.7474
12884TIP3    H160067   0.992   0.818   0.065 -1.6277  0.5981 -1.9180
12884TIP3    H260068   1.111   0.908   0.089  0.8746 -2.2146 -3.5172
12885TIP3   OH260069   6.376   4.332   5.362 -0.4914  0.2922 -0.4432
12885TIP3    H160070   6.442   4.264   5.349 -0.1167  0.6252 -0.2983
12885TIP3    H260071   6.422   4.399   5.412 -0.8380  0.6876 -0.6619
12886TIP3   OH260072   3.888   3.882   4.545  0.2502 -0.0731 -0.0832
12886TIP3    H160073   3.958   3.947   4.538 -0.8204  1.0380 -0.7916
12886TIP3    H260074   3.855   3.891   4.634 -0.1342  0.6178 -0.2926
12887TIP3   OH260075   6.536   5.353  13.600 -0.1875 -0.4028 -0.3076
12887TIP3    H160076   6.499   5.269  13.629 -1.7225  0.1384 -0.6693
12887TIP3    H260077   6.617   5.328  13.555 -1.1137 -1.7943 -1.2578
12888TIP3   OH260078   0.346   3.998  13.527  0.2563  0.1655 -0.5670
12888TIP3    H160079   0.416   3.949  13.484  1.1059 -0.1756  1.1435
12888TIP3    H260080   0.272   3.936  13.531  0.6110 -0.2448 -0.3550
12889TIP3   OH260081   1.392   5.514  13.795 -0.4504 -0.5598 -0.3840
12889TIP3    H160082   1.357   5.468  13.871 -2.3030  2.0751  0.4060
12889TIP3    H260083   1.477   5.548  13.824 -0.0070 -1.6779 -0.3330
12890TIP3   OH260084   1.184   3.735   3.222  0.0096 -0.0643  0.3755
12890TIP3    H160085   1.220   3.679   3.153 -0.1080  0.0226  0.2457
12890TIP3    H260086   1.220   3.698   3.303  0.0252 -0.2583  0.2802
12891TIP3   OH260087   2.261   6.333   4.529  0.1704  0.3281  0.3037
12891TIP3    H160088   2.217   6.340   4.445 -0.3335  2.4194  0.7164
12891TIP3    H260089   2.282   6.240   4.538 -1.5570 -0.2234 -1.2106
12892TIP3   OH260090   4.365   6.456  12.293  0.2213  0.5482  0.5904
12892TIP3    H160091   4.307   6.511  12.239 -0.4030  1.5849  2.2925
12892TIP3    H260092   4.307   6.390  12.330  0.8794 -0.9707 -1.0147
12893TIP3   OH260093   2.299   0.950   4.101 -0.2269  0.2242 -0.2280
12893TIP3    H160094   2.305   1.018   4.167 -1.2585 -0.0840  0.1931
12893TIP3    H260095   2.291   0.868   4.151  0.4051 -0.1508 -0.7294
12894TIP3   OH260096   5.986   3.041  11.134 -0.2341  0.0884  0.0694
12894TIP3    H160097   5.958   3.094  11.208  2.0659  1.3488  0.0678
12894TIP3    H260098   6.081   3.032  11.144 -0.4142 -3.1988 -0.4767
12895TIP3   OH260099   2.283   1.185  14.362  0.7021  0.2260  0.4701
12895TIP3    H160100   2.218   1.147  14.303 -0.2031  1.6879  0.4946
12895TIP3    H260101   2.281   1.129  14.440 -0.0433 -0.1449  0.1842
12896TIP3   OH260102   5.183   4.157  16.803 -0.6582  0.3896  0.2375
12896TIP3    H160103   5.162   4.073  16.844 -0.4059  0.0467 -0.3259
12896TIP3    H260104   5.139   4.222  16.857 -0.4070 -0.0663  0.9954
12897TIP3   OH260105   2.771   2.149   3.252 -0.3034  0.6070 -0.2805
12897TIP3    H160106   2.819   2.148   3.169  0.7711  1.3867  0.3249
12897TIP3    H260107   2.813   2.218   3.303  1.0498 -1.9147  2.1206
12898TIP3   OH260108   3.497   4.140   0.451 -0.1538 -0.2613 -0.3400
12898TIP3    H160109   3.466   4.175   0.367 -1.3515 -0.4749 -0.0017
12898TIP3    H260110   3.431   4.168   0.514  0.4242 -0.6253  0.4314
12899TIP3   OH260111   6.488   5.500  16.290  0.5895 -0.2980  0.0711
12899TIP3    H160112   6.521   5.455  16.212 -2.7494  1.7477 -2.6912
12899TIP3    H260113   6.540   5.581  16.295  0.0319  0.1300 -0.7954
12900TIP3   OH260114   3.086   3.130  11.053  0.0898  0.3132 -0.5079
12900TIP3    H160115   3.078   3.045  11.009  0.5094  0.3269 -0.6193
12900TIP3    H260116   3.168   3.167  11.018  1.0045 -0.1507  1.0777
12901TIP3   OH260117   2.756   3.773  14.460  0.6800 -0.3423 -0.2181
12901TIP3    H160118   2.735   3.725  14.380  2.3647 -2.8556  0.7790
12901TIP3    H260119   2.683   3.753  14.520  0.3032  0.1269 -0.5100
12902TIP3   OH260120   0.075   3.581  11.144 -0.3611 -0.5345  0.7994
12902TIP3    H160121   0.094   3.661  11.193  0.8303  1.9007 -3.3750
12902TIP3    H260122   0.160   3.538  11.134  0.0131  0.7521 -1.9445
12903TIP3   OH260123   4.943   4.680  16.847 -0.2789  0.6895 -0.1669
12903TIP3    H160124   4.859   4.638  16.828  0.9581 -2.0697  0.2613
12903TIP3    H260125   4.930   4.721  16.933 -1.1365  0.2187 -0.0592
12904TIP3   OH260126   3.471   4.806  13.861 -0.2268 -0.8030  0.2858
12904TIP3    H160127   3.385   4.833  13.828 -0.0684 -0.8704 -0.1890
12904TIP3    H260128   3.464   4.816  13.956 -0.1407  0.9973  0.1133
12905TIP3   OH260129   6.207   1.319  14.689 -0.2848  0.1289 -0.7004
12905TIP3    H160130   6.156   1.248  14.650 -0.2055 -0.0874 -0.4188
12905TIP3    H260131   6.208   1.299  14.782  0.3819  0.0829 -0.7145
12906TIP3   OH260132   3.816   3.276  14.156  0.2437 -0.0326 -0.0880
12906TIP3    H160133   3.864   3.193  14.158  0.3815  0.0542  0.3204
12906TIP3    H260134   3.836   3.317  14.240 -1.9103 -0.7670  0.8239
12907TIP3   OH260135   0.421   1.306  11.570  0.0557  0.7175  0.5266
12907TIP3    H160136   0.373   1.274  11.647  0.6944 -0.1262  0.5770
12907TIP3    H260137   0.459   1.389  11.599 -0.0094  0.5821  1.0069
12908TIP3   OH260138   1.103   1.520   1.042  0.1337  0.2802 -0.0091
12908TIP3    H160139   1.058   1.589   1.091 -0.4068 -1.3170  1.8253
12908TIP3    H260140   1.048   1.504   0.966 -0.5668  0.7849  0.3849
12909TIP3   OH260141   4.643   4.065   0.500  0.4224  0.5643  0.1516
12909TIP3    H160142   4.713   4.097   0.558 -1.7823  0.6702  2.8351
12909TIP3    H260143   4.596   4.143   0.473 -0.9278  0.1825  1.3682
12910TIP3   OH260144   4.004   6.065  15.402 -0.5635 -1.1118 -0.0967
12910TIP3    H160145   4.093   6.037  15.425  0.2348  1.3283  0.0191
12910TIP3    H260146   3.947   6.011  15.456  0.8710 -2.5686 -0.0104
12911TIP3   OH260147   4.614   1.081  16.695 -0.2967 -0.0173 -0.5086
12911TIP3    H160148   4.626   1.000  16.645  1.7071 -0.9378  1.3941
12911TIP3    H260149   4.641   1.150  16.635 -0.5998 -0.8660 -1.6509
12912TIP3   OH260150   2.688   2.862   0.956 -0.1942  0.7726 -0.0394
12912TIP3    H160151   2.677   2.909   1.039 -0.4772  1.5170 -0.4977
12912TIP3    H260152   2.783   2.854   0.945 -0.1278  1.9679 -0.3705
12913TIP3   OH260153   3.879   3.703   5.230  0.2853  0.7586  0.1952
12913TIP3    H160154   3.908   3.686   5.141  0.3058  0.5759  0.2358
12913TIP3    H260155   3.840   3.790   5.227 -0.4665  0.4096 -0.1708
12914TIP3   OH260156   5.815   5.055   1.612  0.6109  0.6209  0.0272
12914TIP3    H160157   5.792   5.046   1.704  2.8309  0.3566  0.5933
12914TIP3    H260158   5.781   5.141   1.587 -1.4849 -0.0142  0.6053
12915TIP3   OH260159   4.163   5.463   3.442 -0.1702  0.0129  0.2929
12915TIP3    H160160   4.231   5.396   3.449  0.5914  0.8071  0.5638
12915TIP3    H260161   4.093   5.432   3.499  0.0195 -0.7346  0.1264
12916TIP3   OH260162   2.169   6.653   4.238  0.8271 -0.1812  0.5624
12916TIP3    H160163   2.255   6.612   4.243  0.6114 -0.9093 -1.2558
12916TIP3    H260164   2.133   6.623   4.154 -1.2386  0.0072  1.3449
12917TIP3   OH260165   6.011   0.427   2.371 -0.3003  0.4418 -0.1047
12917TIP3    H160166   6.081   0.435   2.436 -0.6463  0.1800  0.3004
12917TIP3    H260167   5.933   0.462   2.414 -1.0074 -1.6687  0.4012
12918TIP3   OH260168   6.052   5.895   5.934  0.3096  0.0972  0.2358
12918TIP3    H160169   6.075   5.810   5.971 -0.2984 -0.0409  0.3082
12918TIP3    H260170   6.129   5.950   5.948  1.2567 -0.8565 -1.1238
12919TIP3   OH260171   5.033   6.263   4.355  0.0366 -0.0385 -0.1215
12919TIP3    H160172   5.024   6.248   4.261 -1.2671 -1.9853  0.2839
12919TIP3    H260173   4.946   6.246   4.391  0.7095 -0.0709  1.5485
12920TIP3   OH260174   2.210   2.643   3.837  0.3656 -0.4109  0.4128
12920TIP3    H160175   2.135   2.690   3.874 -0.5841 -1.0393 -0.6823
12920TIP3    H260176   2.195   2.551   3.861  1.0107 -0.4833  0.5502
12921TIP3   OH260177   4.441   4.359  14.608 -0.1783 -0.1518  0.1948
12921TIP3    H160178   4.411   4.450  14.598  0.0087  0.0876  1.6729
12921TIP3    H260179   4.493   4.342  14.529 -0.3219  0.9891 -0.1532
12922TIP3   OH260180   1.068   5.969   1.488  0.4463  0.2722  0.3495
12922TIP3    H160181   1.100   6.046   1.536  1.2811  0.0437  0.1694
12922TIP3    H260182   1.109   5.977   1.401 -2.6128  1.7654 -1.0557
12923TIP3   OH260183   1.170   5.137  13.127  0.1910  0.2684  0.2933
12923TIP3    H160184   1.258   5.143  13.164  0.8178  0.2388 -1.1672
12923TIP3    H260185   1.114   5.183  13.190  1.4493  1.4665  0.5474
12924TIP3   OH260186   6.347   1.237  11.431 -0.3328 -0.7531 -0.2631
12924TIP3    H160187   6.415   1.214  11.494  0.2750  1.7695  0.0422
12924TIP3    H260188   6.266   1.200  11.468  0.1104  0.2425  1.7154
12925TIP3   OH260189   4.409   6.284  12.600  0.4483 -0.0904 -0.0880
12925TIP3    H160190   4.353   6.361  12.614  0.5694 -0.1745  0.8858
12925TIP3    H260191   4.380   6.248  12.516  0.0115  0.6951 -0.2780
12926TIP3   OH260192   0.684   6.605  15.050  0.1472  0.2290  0.0164
12926TIP3    H160193   0.648   6.649  15.127  0.4013  0.5076 -0.0234
12926TIP3    H260194   0.763   6.654  15.029 -0.7211  1.1020 -1.3304
12927TIP3   OH260195   1.613   5.163  16.388 -0.1812  0.3271  0.6523
12927TIP3    H160196   1.709   5.163  16.394  0.0574  0.4056 -2.4019
12927TIP3    H260197   1.592   5.078  16.350 -1.3383  0.3088  1.3200
12928TIP3   OH260198   0.515   3.497   5.438  0.3263 -0.1831  0.2990
12928TIP3    H160199   0.455   3.444   5.490  0.7841  0.3671  1.4201
12928TIP3    H260200   0.567   3.544   5.503  3.4078 -2.2021 -0.5494
12929TIP3   OH260201   2.559   1.031  11.667 -0.4820  0.0611 -0.4957
12929TIP3    H160202   2.464   1.027  11.654 -0.1172 -0.5160 -3.2435
12929TIP3    H260203   2.593   0.956  11.619  1.4372  0.6098 -0.0295
12930TIP3   OH260204   1.189   4.415  15.860  0.2505 -0.0330  0.4259
12930TIP3    H160205   1.268   4.461  15.885 -0.9794  0.9838  2.5364
12930TIP3    H260206   1.136   4.480  15.814  0.3181 -0.5142 -0.3491
12931TIP3   OH260207   3.871   5.341  13.450  0.0736 -0.4784 -0.0383
12931TIP3    H160208   3.937   5.336  13.519  0.5256 -1.3852 -0.5258
12931TIP3    H260209   3.836   5.430  13.456 -0.0361 -0.6123  1.4949
12932TIP3   OH260210   6.279   6.729  15.293 -0.2583  0.0175  0.1004
12932TIP3    H160211   6.334   6.661  15.333  1.3794 -0.4155 -2.6950
12932TIP3    H260212   6.311   6.811  15.331  1.6326 -0.3279 -0.6598
12933TIP3   OH260213   0.904   3.229   5.563 -0.8093 -0.6271  0.1869
12933TIP3    H160214   0.817   3.190   5.576  0.6581 -4.5022 -1.2364
12933TIP3    H260215   0.906   3.253   5.471  0.3510 -2.3407 -0.2313
12934TIP3   OH260216   5.005   0.025   4.374 -0.1087 -0.6556  0.3286
12934TIP3    H160217   5.081  -0.032   4.370  0.8922  0.6462  0.6176
12934TIP3    H260218   4.998   0.050   4.466  1.0180  1.7620 -0.2160
12935TIP3   OH260219   0.311   3.570  13.724 -0.3100  0.3262 -0.5193
12935TIP3    H160220   0.320   3.570  13.820  1.5040  0.8913 -0.6744
12935TIP3    H260221   0.216   3.565  13.709 -0.6453  0.7404  1.3159
12936TIP3   OH260222   1.276   3.328   5.884 -0.0967 -0.6328  0.3382
12936TIP3    H160223   1.274   3.374   5.968  0.2818 -2.5179  1.4252
12936TIP3    H260224   1.362   3.286   5.882  0.1754 -0.0010 -1.3296
12937TIP3   OH260225   4.764   3.798  16.240 -0.0325  0.5928  0.4502
12937TIP3    H160226   4.786   3.890  16.257 -0.0082  0.6267  0.2371
12937TIP3    H260227   4.689   3.780  16.298  0.1366  0.6663  0.6930
12938TIP3   OH260228   2.652   1.483  16.885 -0.1419  0.2188 -0.4733
12938TIP3    H160229   2.608   1.560  16.922 -0.0324  0.0607 -0.0101
12938TIP3    H260230   2.650   1.498  16.790 -1.3488  0.1233 -0.4724
12939TIP3   OH260231   6.070   2.653  13.741  0.2648 -0.1522 -0.6015
12939TIP3    H160232   5.996   2.705  13.772 -0.7101 -1.3234 -0.9082
12939TIP3    H260233   6.043   2.622  13.655  0.7229 -1.3520 -0.3292
12940TIP3   OH260234   6.373   2.785   0.257 -0.1234 -0.0538  0.5992
12940TIP3    H160235   6.305   2.802   0.190 -0.8807 -0.8690  1.1571
12940TIP3    H260236   6.447   2.839   0.229 -0.2597 -0.7415 -1.1709
12941TIP3   OH260237   1.905   3.119  13.555 -0.3276 -0.2724  0.7330
12941TIP3    H160238   1.894   3.187  13.622 -0.6835 -1.4832  1.9286
12941TIP3    H260239   1.993   3.134  13.520 -0.8873  1.6142  0.0308
12942TIP3   OH260240   2.411   6.243   3.394  0.3614  0.0575 -0.0482
12942TIP3    H160241   2.357   6.318   3.372 -0.6163 -0.4844  0.4552
12942TIP3    H260242   2.412   6.190   3.315  0.8497  0.4722 -0.3236
12943TIP3   OH260243   1.841   2.275  16.654  0.7598  0.2894 -0.4267
12943TIP3    H160244   1.790   2.342  16.609 -0.1089 -0.4925 -0.6247
12943TIP3    H260245   1.879   2.222  16.583  1.1924  0.3858 -0.2697
12944TIP3   OH260246   3.304   5.196  15.734  0.0401  0.5908 -0.2890
12944TIP3    H160247   3.357   5.137  15.680 -0.2507  0.3443 -0.3076
12944TIP3    H260248   3.367   5.261  15.767  0.7306 -0.8465  1.3207
12945TIP3   OH260249   4.356   2.101   2.322 -0.5238  0.0603  0.1060
12945TIP3    H160250   4.341   2.043   2.397  1.7841 -1.2167 -0.3483
12945TIP3    H260251   4.285   2.081   2.261 -0.2009 -1.7588  0.2918
12946TIP3   OH260252   1.040   1.773  14.725  0.1893 -0.1484 -0.1239
12946TIP3    H160253   1.031   1.833  14.650  0.3437  0.5763  0.4385
12946TIP3    H260254   1.133   1.772  14.744  0.0337  0.4675  0.7061
12947TIP3   OH260255   6.066   5.088  12.589  0.0481 -0.3599  0.1642
12947TIP3    H160256   6.084   5.002  12.551  1.5872  0.8542 -1.9792
12947TIP3    H260257   5.975   5.106  12.566 -0.0901 -1.1680  0.0798
12948TIP3   OH260258   2.769   6.548  11.216 -0.1325 -0.4198  0.5591
12948TIP3    H160259   2.708   6.602  11.164  0.1776 -1.1759 -0.6069
12948TIP3    H260260   2.720   6.468  11.234 -0.2772 -0.1099  1.5321
12949TIP3   OH260261   1.661   6.635  14.617 -0.1929  0.0345  0.7007
12949TIP3    H160262   1.647   6.584  14.537 -0.7917 -0.0820  0.8790
12949TIP3    H260263   1.576   6.635  14.660 -0.1148  0.9237  0.8564
12950TIP3   OH260264   5.022   3.037  11.663 -0.4544  0.3729  0.4105
12950TIP3    H160265   5.099   2.997  11.625 -0.0694  0.1788  1.3849
12950TIP3    H260266   4.971   3.068  11.588 -0.2991 -1.0850 -0.3036
12951TIP3   OH260267   6.205   6.092  15.046  0.3900  0.5272 -0.1196
12951TIP3    H160268   6.137   6.034  15.012 -0.3101  0.4573  1.3518
12951TIP3    H260269   6.215   6.160  14.980 -1.0279  0.4777 -0.3863
12952TIP3   OH260270   3.156   0.087  13.251  0.3416 -0.3193 -0.2250
12952TIP3    H160271   3.087   0.154  13.258  0.1868 -0.6584  1.8388
12952TIP3    H260272   3.144   0.033  13.329  0.7785 -2.4773 -1.6277
12953TIP3   OH260273   2.262   2.402  12.116  0.1158  0.1395  0.2376
12953TIP3    H160274   2.262   2.331  12.052 -0.3347  0.8136 -0.5287
12953TIP3    H260275   2.331   2.461  12.086  0.3101  0.1541  0.7157
12954TIP3   OH260276   4.477   1.483   1.152  0.1956  0.0256 -0.4492
12954TIP3    H160277   4.392   1.526   1.160 -1.4291 -3.0447 -0.7232
12954TIP3    H260278   4.484   1.429   1.231  0.9742 -1.3385 -1.4455
12955TIP3   OH260279   1.947   0.775   1.771 -0.5198 -0.0160  0.5793
12955TIP3    H160280   1.955   0.680   1.766  1.2640  0.1002  1.0003
12955TIP3    H260281   1.922   0.801   1.682  0.2306 -0.7782  0.1352
12956TIP3   OH260282   3.887   5.191   2.355  0.1045 -1.2692 -0.0859
12956TIP3    H160283   3.834   5.133   2.300  0.1871  0.0188 -1.5408
12956TIP3    H260284   3.825   5.227   2.419 -0.6617 -0.2950 -1.3545
12957TIP3   OH260285   6.072   2.168  14.388  0.8069 -0.2868 -0.5637
12957TIP3    H160286   5.997   2.108  14.385 -0.2334  1.0059 -0.9060
12957TIP3    H260287   6.108   2.164  14.300  3.0200 -3.2166  0.4165
12958TIP3   OH260288   2.436   0.133   1.228 -0.0019 -0.1573 -0.1553
12958TIP3    H160289   2.359   0.088   1.194  0.2243 -0.7548  0.1120
12958TIP3    H260290   2.429   0.223   1.195 -0.7678 -0.2318 -0.1943
12959TIP3   OH260291   3.193   3.675  12.997  0.0247 -0.1884  0.1782
12959TIP3    H160292   3.249   3.608  12.958 -1.0277 -1.0607  0.1430
12959TIP3    H260293   3.123   3.626  13.041 -0.7718  0.8861  0.1382
12960TIP3   OH260294   4.488   5.218  12.310 -0.2292 -0.3454 -1.2392
12960TIP3    H160295   4.487   5.294  12.253  1.5545 -0.4441 -1.4342
12960TIP3    H260296   4.511   5.253  12.396  0.9278 -0.6952 -1.3991
12961TIP3   OH260297   0.426   1.921  10.769  0.5096 -0.6464 -0.6646
12961TIP3    H160298   0.428   1.838  10.721  0.4173 -1.0846  0.0943
12961TIP3    H260299   0.467   1.902  10.853 -0.4364 -0.1825 -0.0887
12962TIP3   OH260300   5.821   2.328   6.566 -0.1258  0.1051 -0.0917
12962TIP3    H160301   5.890   2.268   6.538 -1.0758 -0.3678 -1.5115
12962TIP3    H260302   5.777   2.284   6.639 -2.1667 -1.9621 -2.4542
12963TIP3   OH260303   0.511   5.784   4.328  0.6458  0.5631  0.0495
12963TIP3    H160304   0.531   5.695   4.355  1.0347 -0.2028 -2.6325
12963TIP3    H260305   0.422   5.799   4.360  0.1890 -1.1647 -0.3768
12964TIP3   OH260306   2.083   0.308  13.359  0.2652 -0.2731 -0.0850
12964TIP3    H160307   2.024   0.241  13.394 -1.1508 -0.0456 -1.9473
12964TIP3    H260308   2.158   0.260  13.325  1.8211 -0.4747  3.4736
12965TIP3   OH260309   6.419   5.930  14.767  0.4472  0.0506 -0.1221
12965TIP3    H160310   6.340   5.877  14.756 -1.1019  1.7363  2.3027
12965TIP3    H260311   6.488   5.867  14.785 -1.1128 -1.2596  1.4641
12966TIP3   OH260312   3.369   4.146  11.664  0.0459 -0.5638 -0.1628
12966TIP3    H160313   3.297   4.084  11.663  0.2976 -0.8381 -2.0001
12966TIP3    H260314   3.334   4.222  11.712 -1.3536 -0.8081 -0.7815
12967TIP3   OH260315   0.691   5.321   2.387  0.3585  0.5673 -0.1173
12967TIP3    H160316   0.656   5.246   2.340 -1.1399  2.2282 -1.7720
12967TIP3    H260317   0.642   5.323   2.469 -0.4165  0.3787 -0.5685
12968TIP3   OH260318   3.339   1.991  15.252 -0.0352  0.3214 -0.9499
12968TIP3    H160319   3.338   1.971  15.158 -1.5714 -0.4026 -0.7952
12968TIP3    H260320   3.248   1.979  15.280  0.1486  1.7871  0.3680
12969TIP3   OH260321   1.470   4.237   2.641  0.0037 -0.1333  0.1149
12969TIP3    H160322   1.501   4.211   2.727  1.7584  0.1730 -0.4082
12969TIP3    H260323   1.374   4.235   2.648  0.0947 -2.7533  1.2626
12970TIP3   OH260324   2.502   5.392  16.112  0.3533  0.3880 -0.1672
12970TIP3    H160325   2.471   5.445  16.039  1.2411 -1.2952 -1.8238
12970TIP3    H260326   2.597   5.408  16.113  0.6233 -1.0599 -0.6512
12971TIP3   OH260327   3.398   5.133   3.222 -0.2522 -0.0169  0.0347
12971TIP3    H160328   3.311   5.096   3.233 -0.7864  1.7140  1.8150
12971TIP3    H260329   3.385   5.227   3.222  1.8209  0.3377  2.3974
12972TIP3   OH260330   5.828   4.953   0.270  0.0287  0.1899 -0.1743
12972TIP3    H160331   5.782   4.993   0.196 -0.0828  1.9361  0.7878
12972TIP3    H260332   5.857   5.028   0.323  0.6170 -1.0035  1.2343
12973TIP3   OH260333   0.866   2.615   1.515 -0.5251  0.0380 -0.3709
12973TIP3    H160334   0.938   2.648   1.461 -0.6184  2.0484  0.6756
12973TIP3    H260335   0.903   2.607   1.603 -0.8494 -1.5426 -0.3636
12974TIP3   OH260336   5.093   2.936   6.043  0.3703 -0.3315  0.4468
12974TIP3    H160337   5.180   2.904   6.069 -0.0661 -1.6630  0.3321
12974TIP3    H260338   5.062   2.870   5.981  0.4032  1.5495 -1.6166
12975TIP3   OH260339   4.856   2.834  16.918 -0.2464  0.0648  0.3066
12975TIP3    H160340   4.814   2.748  16.915  0.7608 -0.4808  1.4940
12975TIP3    H260341   4.792   2.890  16.961  0.1431 -0.7261  1.9534
12976TIP3   OH260342   0.949   3.145  14.752  0.0860 -1.1457 -0.2160
12976TIP3    H160343   0.889   3.075  14.777 -0.6922 -0.1435  0.7528
12976TIP3    H260344   0.927   3.163  14.661 -1.2324 -0.6584  0.1843
12977TIP3   OH260345   4.707   6.416   6.575 -0.5541  0.3203 -0.1597
12977TIP3    H160346   4.787   6.403   6.625 -0.5613 -0.8352 -0.4180
12977TIP3    H260347   4.727   6.489   6.517 -0.0258  0.6766  0.4646
12978TIP3   OH260348   1.238   1.569  17.030 -0.6090  0.1033 -0.1017
12978TIP3    H160349   1.217   1.494  17.085 -0.8532  0.7230  0.6647
12978TIP3    H260350   1.296   1.623  17.083  1.4242 -0.6669 -1.5170
12979TIP3   OH260351   0.686   2.032  12.385 -0.6459  0.0672 -0.5999
12979TIP3    H160352   0.705   1.941  12.405 -2.1524 -0.1780 -0.2000
12979TIP3    H260353   0.648   2.030  12.297  0.5700  0.4725 -1.1452
12980TIP3   OH260354   0.289   6.744   4.082  0.1793  0.2088  0.2718
12980TIP3    H160355   0.356   6.683   4.115  0.9987  1.5145  1.0761
12980TIP3    H260356   0.262   6.794   4.159 -1.4408 -0.0207 -0.1284
12981TIP3   OH260357   3.502   1.790  13.548 -0.2681 -1.1401  0.1782
12981TIP3    H160358   3.580   1.734  13.549  1.4663  1.1852  0.3312
12981TIP3    H260359   3.438   1.742  13.495  1.9768 -2.2302 -1.6391
12982TIP3   OH260360   5.005   2.558  15.270 -0.2235 -0.0065 -0.1415
12982TIP3    H160361   5.022   2.498  15.198  1.1680  0.0391  0.1397
12982TIP3    H260362   5.004   2.502  15.348 -0.4134  0.1287 -0.0462
12983TIP3   OH260363   0.471   2.012   2.657 -0.3505 -0.3182 -0.4955
12983TIP3    H160364   0.521   1.963   2.591  0.8504  0.2142  0.0118
12983TIP3    H260365   0.431   2.084   2.607  0.4895  0.0385 -0.6524
12984TIP3   OH260366   5.902   1.945   0.147 -0.3665  0.2979 -0.0361
12984TIP3    H160367   5.853   1.998   0.084 -0.1047  0.0021 -0.4906
12984TIP3    H260368   5.843   1.874   0.170 -0.3074  0.1746 -0.2652
12985TIP3   OH260369   3.641   2.692  13.190 -0.3568  0.1867  0.3927
12985TIP3    H160370   3.642   2.725  13.100 -1.0952 -0.2678  0.2134
12985TIP3    H260371   3.728   2.654  13.202  0.1764  1.3285  0.2795
12986TIP3   OH260372   4.071   0.196   5.112 -0.0356 -0.1618 -0.0266
12986TIP3    H160373   4.067   0.291   5.101  3.4464  0.0082 -0.2101
12986TIP3    H260374   4.112   0.183   5.197  0.2695 -1.5024 -0.3679
12987TIP3   OH260375   4.888   6.568  14.619 -0.2080 -0.0254  0.2936
12987TIP3    H160376   4.852   6.633  14.559 -0.6039  0.0433  0.6005
12987TIP3    H260377   4.811   6.534  14.665  0.3311  1.6081  2.4741
12988TIP3   OH260378   4.284   3.656   2.618  0.2246  0.4387 -0.3179
12988TIP3    H160379   4.320   3.650   2.706  1.0650 -1.1242 -0.7555
12988TIP3    H260380   4.267   3.750   2.605  0.3051  0.6984  1.4051
12989TIP3   OH260381   4.594   3.092  15.242  0.3794  0.6866 -0.0935
12989TIP3    H160382   4.633   3.041  15.313  1.9774  1.0698 -0.6751
12989TIP3    H260383   4.512   3.125  15.279  0.6449 -0.0523  1.2013
12990TIP3   OH260384   3.191   5.685   0.670  0.6576 -0.3658  0.9158
12990TIP3    H160385   3.102   5.720   0.676  1.0559  0.6178  1.1852
12990TIP3    H260386   3.238   5.749   0.616  1.3929 -0.4943  1.3964
12991TIP3   OH260387   5.618   2.848   0.439 -0.4990 -0.5597  0.3447
12991TIP3    H160388   5.556   2.792   0.390 -0.2429 -0.3806 -0.1837
12991TIP3    H260389   5.574   2.933   0.444 -0.4806 -0.5500  0.3380
12992TIP3   OH260390   1.366   0.129  11.090  0.8724 -0.2513 -0.4144
12992TIP3    H160391   1.456   0.142  11.120  0.0867  0.4986  1.6661
12992TIP3    H260392   1.318   0.205  11.122 -1.1432 -2.1167  1.1517
12993TIP3   OH260393   4.214   5.980  16.111  0.2470 -0.3123  0.1686
12993TIP3    H160394   4.247   6.001  16.024 -0.9302 -0.6129 -0.3768
12993TIP3    H260395   4.152   5.908  16.096  0.6039 -0.8835  1.3529
12994TIP3   OH260396   6.591   6.269  15.308 -0.4547  0.3546  0.6398
12994TIP3    H160397   6.572   6.282  15.401  0.4549  2.6128  0.5496
12994TIP3    H260398   6.527   6.204  15.279 -1.5536  0.5411  2.5664
12995TIP3   OH260399   2.405   1.616  12.705 -0.4198 -0.0981 -0.0116
12995TIP3    H160400   2.336   1.580  12.649 -0.2575  0.3350 -0.4925
12995TIP3    H260401   2.398   1.711  12.693 -0.8440  0.0421  1.2466
12996TIP3   OH260402   0.046   5.942   5.034 -0.1550 -0.2069  0.1639
12996TIP3    H160403  -0.013   5.973   4.965  0.0352  1.4476  0.7173
12996TIP3    H260404   0.011   5.857   5.059 -1.6379  0.2490 -0.3033
12997TIP3   OH260405   6.280   3.874  13.310 -0.4619  0.3726  0.5040
12997TIP3    H160406   6.234   3.958  13.309 -1.4649 -0.1744  0.7028
12997TIP3    H260407   6.228   3.818  13.368  0.8009 -0.0500  1.2469
12998TIP3   OH260408   5.285   6.463   1.988 -0.9127 -0.0963 -0.0916
12998TIP3    H160409   5.291   6.370   1.968 -1.7634 -0.3625  0.8621
12998TIP3    H260410   5.209   6.494   1.939 -0.4561  0.1656 -0.6431
12999TIP3   OH260411   3.311   0.670   5.074  0.7936  0.1591 -0.0733
12999TIP3    H160412   3.222   0.648   5.046  1.1695 -0.5170 -0.7569
12999TIP3    H260413   3.356   0.585   5.078  1.0222  0.3460  1.6229
13000TIP3   OH260414   3.866   3.857  15.604 -0.3329  0.4619 -0.1844
13000TIP3    H160415   3.910   3.779  15.637  1.4207  1.7886  0.7467
13000TIP3    H260416   3.809   3.885  15.675 -0.1044  0.6487 -0.0708
13001TIP3   OH260417   4.206   0.105   3.093 -0.3813  0.6006 -0.6041
13001TIP3    H160418   4.222   0.193   3.061  1.2403  0.8099  0.7499
13001TIP3    H260419   4.180   0.116   3.184 -0.9717 -0.2573 -0.6643
13002TIP3   OH260420   1.324   0.494  12.629 -0.1558  0.4726  0.2883
13002TIP3    H160421   1.228   0.496  12.636 -0.0904 -0.2271  1.4299
13002TIP3    H260422   1.351   0.424  12.688  1.0064  0.0882 -0.6908
13003TIP3   OH260423   4.635   6.045   3.861 -0.1551 -0.5066 -0.2517
13003TIP3    H160424   4.650   5.955   3.831  1.0365  0.3226 -2.2494
13003TIP3    H260425   4.574   6.082   3.797 -0.7917  0.0744  0.6644
13004TIP3   OH260426   0.007   3.693   3.850  0.0716 -0.5020 -0.1768
13004TIP3    H160427  -0.013   3.758   3.783 -0.5396 -1.0357 -0.5088
13004TIP3    H260428   0.064   3.630   3.807  0.1547 -0.5309 -0.0270
13005TIP3   OH260429   2.521   3.112  13.803  0.5532  0.1349 -0.5734
13005TIP3    H160430   2.530   3.131  13.896  0.0752 -1.6798 -0.1222
13005TIP3    H260431   2.538   3.017  13.797 -0.1558  0.1022 -2.2205
13006TIP3   OH260432   4.206   5.773  14.365  0.3550  0.0593 -0.2210
13006TIP3    H160433   4.227   5.716  14.291  1.3971 -2.0449  1.6436
13006TIP3    H260434   4.111   5.764  14.375  0.6222 -2.1530  0.6577
13007TIP3   OH260435   4.714   2.629   2.050 -0.4888  0.1961 -0.6356
13007TIP3    H160436   4.780   2.698   2.063  0.8281 -0.6225 -2.6766
13007TIP3    H260437   4.638   2.659   2.099  1.2447  1.4067  1.4122
13008TIP3   OH260438   1.126   2.590   5.936 -0.8089  0.0502 -0.3080
13008TIP3    H160439   1.050   2.535   5.921  0.1396 -1.3169 -0.2591
13008TIP3    H260440   1.151   2.572   6.027  1.2668 -1.7109 -1.1979
13009TIP3   OH260441   3.112   6.304  10.470 -0.3497  0.2681  0.4867
13009TIP3    H160442   3.143   6.214  10.483 -2.0233 -0.0268  2.6960
13009TIP3    H260443   3.163   6.356  10.531 -0.7541  0.5108  0.6197
13010TIP3   OH260444   0.108   3.974  17.221 -0.5816 -0.1061 -0.5863
13010TIP3    H160445   0.077   3.889  17.191  0.3582 -0.7549  0.2321
13010TIP3    H260446   0.141   3.957  17.310  3.7474  0.1048 -2.0043
13011TIP3   OH260447   5.247   5.604   0.708  0.2850 -0.5543 -0.0196
13011TIP3    H160448   5.336   5.627   0.735  0.4488 -1.5624  0.2959
13011TIP3    H260449   5.258   5.533   0.646 -0.2785 -0.3541 -0.3522
13012TIP3   OH260450   6.574   2.373  15.034  0.1761 -0.5126 -0.2221
13012TIP3    H160451   6.571   2.468  15.024  0.8531 -0.5360 -0.6953
13012TIP3    H260452   6.636   2.344  14.967 -0.7861 -1.3764 -0.7677
13013TIP3   OH260453   0.150   3.412  15.690  0.5564 -0.2577 -0.2278
13013TIP3    H160454   0.229   3.367  15.659  1.6262  1.3409  0.1454
13013TIP3    H260455   0.125   3.364  15.769  1.5290 -0.3874  0.0053
13014TIP3   OH260456   1.658   4.131   1.767  0.0888  0.2420  0.5628
13014TIP3    H160457   1.706   4.199   1.721  0.2966 -0.2713  0.0050
13014TIP3    H260458   1.632   4.070   1.698 -0.2614 -0.1368  1.0281
13015TIP3   OH260459   2.100   0.650  14.300  0.0961  0.3627  0.2741
13015TIP3    H160460   2.073   0.615  14.215  0.4949 -0.0782  0.3307
13015TIP3    H260461   2.179   0.602  14.322  0.6116  1.2568  0.3838
13016TIP3   OH260462   2.402   1.204   4.207 -0.0456  0.6080  0.1220
13016TIP3    H160463   2.480   1.259   4.199  0.6905 -0.0058  2.7109
13016TIP3    H260464   2.334   1.262   4.241 -0.1381  0.6283 -0.0919
13017TIP3   OH260465   4.396   0.028  14.495  0.0798 -0.1991  0.3569
13017TIP3    H160466   4.350  -0.048  14.461  0.2177 -0.0402 -0.1881
13017TIP3    H260467   4.438   0.067  14.418 -0.1372  0.5309  0.6041
13018TIP3   OH260468   5.967   5.174  14.643 -0.2048  0.1334 -0.0031
13018TIP3    H160469   5.916   5.254  14.633  0.9311  0.8039 -0.5454
13018TIP3    H260470   5.975   5.139  14.554  0.3934  0.1001  0.0637
13019TIP3   OH260471   4.041   3.785  13.124  0.8498 -1.0765  0.1245
13019TIP3    H160472   4.076   3.841  13.055  1.6491 -0.2336  1.1963
13019TIP3    H260473   3.989   3.720  13.078  1.4041 -0.5443 -1.2757
13020TIP3   OH260474   5.021   0.718   4.664  0.1066  0.3943  0.0246
13020TIP3    H160475   5.042   0.779   4.593 -0.6372 -1.3027 -1.6918
13020TIP3    H260476   5.041   0.632   4.628 -0.7154 -0.5218  1.7216
13021TIP3   OH260477   0.462   4.509   1.711 -0.0947 -0.7107 -0.0489
13021TIP3    H160478   0.395   4.465   1.659 -0.1371  0.3501 -0.9067
13021TIP3    H260479   0.433   4.497   1.802 -2.1027  0.7653 -0.4572
13022TIP3   OH260480   2.972   2.820   0.196  0.4383 -0.7870 -0.1271
13022TIP3    H160481   2.924   2.896   0.164 -0.4948 -1.9334 -1.5209
13022TIP3    H260482   2.962   2.823   0.291 -2.8078 -1.2680 -0.4048
13023TIP3   OH260483   1.019   5.769  10.890  0.3786  0.2902  0.3301
13023TIP3    H160484   1.106   5.737  10.866  0.4157 -0.7900  1.8835
13023TIP3    H260485   1.004   5.843  10.830  1.9544 -0.1028 -0.5869
13024TIP3   OH260486   4.918   6.143  12.620 -0.1947  0.3027  0.7387
13024TIP3    H160487   4.896   6.206  12.551 -2.0511  0.6145  1.5877
13024TIP3    H260488   4.991   6.183  12.667  0.3461  0.6032 -0.3262
13025TIP3   OH260489   1.556   0.587   0.349  0.4066  0.4249 -0.4884
13025TIP3    H160490   1.639   0.620   0.315  0.0759  0.4936 -1.2482
13025TIP3    H260491   1.563   0.492   0.341 -0.4669  0.5223 -2.6841
13026TIP3   OH260492   0.846   6.076   0.119  0.4114  0.2253  0.4828
13026TIP3    H160493   0.827   6.050   0.209 -0.6948 -3.1798 -0.6417
13026TIP3    H260494   0.914   6.014   0.090  0.7183  1.2544 -1.0295
13027TIP3   OH260495   0.041   0.686  13.198  0.2317  0.8876 -0.7597
13027TIP3    H160496  -0.012   0.722  13.128 -0.4920  0.7656 -0.2779
13027TIP3    H260497   0.131   0.706  13.173 -0.0792  1.7160 -1.2241
13028TIP3   OH260498   6.730   1.322   4.332  0.2201 -0.8663 -0.1525
13028TIP3    H160499   6.791   1.251   4.311  1.3254 -0.0592  0.2770
13028TIP3    H260500   6.714   1.365   4.248  1.1934 -0.3345 -0.0664
13029TIP3   OH260501   5.928   4.504   2.798  0.5152  0.1027  0.3692
13029TIP3    H160502   6.015   4.492   2.835  1.2038 -0.7782 -1.4420
13029TIP3    H260503   5.942   4.551   2.716 -0.5993 -0.8638 -0.4066
13030TIP3   OH260504   5.523   5.111  16.061 -0.1386  0.4485 -0.0270
13030TIP3    H160505   5.435   5.135  16.030 -0.2970  0.7111  0.6021
13030TIP3    H260506   5.564   5.067  15.987 -1.0787 -0.3555 -0.0782
13031TIP3   OH260507   3.661   1.977  10.776 -0.1476  0.0394 -0.0352
13031TIP3    H160508   3.580   1.929  10.791 -0.1731  0.2386  0.4686
13031TIP3    H260509   3.693   1.945  10.692 -1.0170  0.3367 -0.4795
13032TIP3   OH260510   5.729   5.842  14.456  0.1506 -0.1462  0.0089
13032TIP3    H160511   5.683   5.759  14.462  0.7737 -0.3486  2.2959
13032TIP3    H260512   5.821   5.819  14.458  0.3392  0.5536 -0.3425
13033TIP3   OH260513   3.513   4.812  13.263  0.3043 -0.6934  0.4186
13033TIP3    H160514   3.490   4.839  13.352  0.9427 -0.8747  0.6437
13033TIP3    H260515   3.552   4.890  13.224 -1.5858 -0.0821 -0.3003
13034TIP3   OH260516   5.334   0.582   6.245 -0.3520 -0.0910  0.2591
13034TIP3    H160517   5.336   0.490   6.218  0.1260 -0.1737  0.5770
13034TIP3    H260518   5.352   0.580   6.339  1.5617  0.4804 -0.0849
13035TIP3   OH260519   2.408   3.074   4.933  0.3755 -0.2068  0.3857
13035TIP3    H160520   2.406   3.126   5.014 -1.3849 -0.0215  0.2533
13035TIP3    H260521   2.369   3.131   4.867 -1.3283 -1.5612  0.1793
13036TIP3   OH260522   1.952   2.379   4.123  0.1955 -0.1897 -0.1466
13036TIP3    H160523   1.875   2.344   4.168 -2.0136  3.4455 -0.9081
13036TIP3    H260524   2.006   2.416   4.193 -0.3104  0.1155  0.0813
13037TIP3   OH260525   2.481   5.710  11.002  0.3826  0.0355 -0.7638
13037TIP3    H160526   2.498   5.671  10.917 -1.3631  0.6018 -1.4004
13037TIP3    H260527   2.443   5.796  10.982  1.3051  0.7763  0.5876
13038TIP3   OH260528   4.730   3.244  12.303 -0.3229  0.2852  0.3243
13038TIP3    H160529   4.760   3.318  12.356  1.5986  1.6500 -2.5285
13038TIP3    H260530   4.774   3.168  12.343  3.6127  1.6915 -1.0636
13039TIP3   OH260531   2.264   6.465   2.940 -0.6152  0.0901  0.2953
13039TIP3    H160532   2.317   6.499   3.013  0.5998  1.6178 -1.2534
13039TIP3    H260533   2.211   6.540   2.912 -1.2693 -0.5601 -0.2347
13040TIP3   OH260534   1.992   2.923   3.505 -0.5400  0.6006 -0.4601
13040TIP3    H160535   2.057   2.868   3.549 -1.4823 -0.8277 -0.7966
13040TIP3    H260536   1.909   2.880   3.523 -1.1458  1.1042 -1.9705
13041TIP3   OH260537   2.772   5.672  15.054  0.4545 -0.2433  0.3352
13041TIP3    H160538   2.806   5.584  15.032 -1.5064 -0.6679 -1.0754
13041TIP3    H260539   2.711   5.656  15.126  1.9656  0.3198  1.7769
13042TIP3   OH260540   2.750   5.314  15.921  0.7122  0.3229  0.3464
13042TIP3    H160541   2.748   5.391  15.977 -0.6639  0.8015 -0.3465
13042TIP3    H260542   2.759   5.348  15.833 -2.1362 -0.1568 -0.1882
13043TIP3   OH260543   5.569   3.844   3.168 -0.1376  0.0099  0.3837
13043TIP3    H160544   5.616   3.906   3.113 -0.2893  0.8822  1.2403
13043TIP3    H260545   5.627   3.828   3.242 -0.3563 -0.4064  0.4686
13044TIP3   OH260546   3.174   2.924   0.868  0.8705  0.1550  0.0423
13044TIP3    H160547   3.152   2.999   0.813  0.1153 -1.0880 -1.3989
13044TIP3    H260548   3.269   2.915   0.861  1.1493  1.7575  1.2986
13045TIP3   OH260549   3.572   3.465   3.704 -0.3442 -0.5830  0.5025
13045TIP3    H160550   3.540   3.375   3.709 -1.3191 -0.1933  1.4107
13045TIP3    H260551   3.568   3.486   3.610  1.3482 -1.9866  0.0799
13046TIP3   OH260552   1.597   3.914   4.065  0.0828 -0.4504  0.0647
13046TIP3    H160553   1.667   3.977   4.084 -0.1380 -0.6138  1.4753
13046TIP3    H260554   1.519   3.951   4.106 -0.5081 -0.6214 -0.8919
13047TIP3   OH260555   5.684   0.837  13.303 -0.0514 -0.6723  0.5110
13047TIP3    H160556   5.765   0.888  13.300  0.6861 -1.6971  2.1743
13047TIP3    H260557   5.647   0.844  13.215  2.5782 -1.3495 -0.7014
13048TIP3   OH260558   5.782   6.423  15.383 -0.2852  0.0392  1.0837
13048TIP3    H160559   5.821   6.414  15.470 -1.0527  0.7453  1.5114
13048TIP3    H260560   5.690   6.443  15.400 -0.0592  2.0509  0.1543
13049TIP3   OH260561   6.001   0.342  11.071  0.2963 -0.1539 -0.3709
13049TIP3    H160562   6.071   0.308  11.014  0.4685  0.7267 -0.6893
13049TIP3    H260563   5.979   0.427  11.033  0.0315  0.1957  0.5771
13050TIP3   OH260564   1.061   3.161   1.736 -0.4719  0.0745  0.6585
13050TIP3    H160565   1.112   3.240   1.717 -1.2564  0.1999 -1.1070
13050TIP3    H260566   1.042   3.167   1.829  3.8170 -0.6639  1.6629
13051TIP3   OH260567   4.777   4.839  14.642  0.0390 -0.1170 -0.1007
13051TIP3    H160568   4.810   4.925  14.670 -1.5971  1.2239 -2.1275
13051TIP3    H260569   4.837   4.812  14.572  0.6844 -0.7585  0.6865
13052TIP3   OH260570   4.586   1.720  11.693  0.1957  0.2635  0.0559
13052TIP3    H160571   4.624   1.688  11.776 -1.2317 -0.3920  0.4682
13052TIP3    H260572   4.493   1.733  11.712 -0.7658 -2.7312 -2.2188
13053TIP3   OH260573   2.892   5.106   0.828 -0.5812  0.4174 -0.0626
13053TIP3    H160574   2.888   5.032   0.768 -0.7753  1.0253 -0.8153
13053TIP3    H260575   2.810   5.103   0.876 -0.9155  0.5789 -0.6218
13054TIP3   OH260576   6.008   6.608  12.122  0.5838  0.2090  0.0676
13054TIP3    H160577   5.966   6.547  12.061  0.0600  1.4084 -0.8038
13054TIP3    H260578   5.937   6.637  12.179  0.4969  1.2391 -0.5625
13055TIP3   OH260579   1.907   1.184   2.179  0.0007  0.2308  0.6168
13055TIP3    H160580   1.856   1.169   2.258 -1.4451 -0.1332 -0.3643
13055TIP3    H260581   1.845   1.171   2.107  1.7172 -1.3953 -0.6468
13056TIP3   OH260582   0.359   2.512  14.367  0.1385  0.0221 -0.0311
13056TIP3    H160583   0.309   2.548  14.294 -2.9110  0.8082  2.3221
13056TIP3    H260584   0.409   2.440  14.329 -3.4220 -1.3450 -2.4051
13057TIP3   OH260585   4.218   3.791   1.074 -0.1825  0.5039  0.4367
13057TIP3    H160586   4.266   3.717   1.038 -1.8033 -1.0588  1.4213
13057TIP3    H260587   4.179   3.834   0.997 -1.6191 -1.3660  0.1127
13058TIP3   OH260588   1.833   3.728  11.469  0.3014  0.1282  0.3354
13058TIP3    H160589   1.780   3.653  11.441  1.1573 -0.1674 -0.5021
13058TIP3    H260590   1.836   3.785  11.393  1.9089 -0.2676  0.0887
13059TIP3   OH260591   3.056   5.131  13.170  0.1258 -0.4701  0.4444
13059TIP3    H160592   2.964   5.116  13.151  0.4477 -1.8530 -0.0149
13059TIP3    H260593   3.059   5.145  13.265 -0.4718 -0.9700  0.5351
13060TIP3   OH260594   1.446   0.505  14.198  0.2345 -0.0596  0.7286
13060TIP3    H160595   1.527   0.498  14.248  0.1603 -2.2016  0.5748
13060TIP3    H260596   1.408   0.417  14.199 -0.1377 -0.0188 -2.4529
13061TIP3   OH260597   1.940   2.133   3.388  0.0683 -0.2496 -0.3728
13061TIP3    H160598   1.981   2.126   3.474 -1.7538  1.1359  0.6587
13061TIP3    H260599   2.007   2.172   3.332  0.7626  0.2502  0.7922
13062TIP3   OH260600   6.280   0.564   1.346  0.1719 -0.5863 -0.5048
13062TIP3    H160601   6.271   0.483   1.396 -0.3287  0.7294  1.5808
13062TIP3    H260602   6.201   0.568   1.292 -1.7857  0.4499  2.3113
13063TIP3   OH260603   1.911   5.023  14.059 -0.7324 -0.2046  0.1541
13063TIP3    H160604   1.830   5.050  14.016 -0.4686 -1.1735 -0.9580
13063TIP3    H260605   1.971   5.001  13.987  0.2783 -0.2028  0.9780
13064TIP3   OH260606   5.687   2.602   3.735  0.1450 -0.0136 -0.2843
13064TIP3    H160607   5.713   2.512   3.717 -0.8873  0.0162 -2.1340
13064TIP3    H260608   5.638   2.597   3.817  0.3263 -1.0959 -0.2324
13065TIP3   OH260609   4.738   3.811   5.734 -0.1871 -0.4499 -0.4584
13065TIP3    H160610   4.751   3.882   5.672 -1.3835 -1.0628 -1.4414
13065TIP3    H260611   4.812   3.753   5.721  0.9278  0.7342  0.5261
13066TIP3   OH260612   0.857   5.132  12.731 -0.4072 -0.2641  0.6245
13066TIP3    H160613   0.889   5.088  12.810  0.4774 -1.1034 -0.1857
13066TIP3    H260614   0.920   5.108  12.663 -1.6761 -0.3223 -0.5518
13067TIP3   OH260615   3.975   2.818  17.200  0.5260 -0.5009 -0.6454
13067TIP3    H160616   3.984   2.901  17.154 -0.5371  0.8461  1.5096
13067TIP3    H260617   3.888   2.786  17.174 -0.2022  0.4079  0.6092
13068TIP3   OH260618   2.043   6.482   1.307 -0.9401 -0.1822  0.7167
13068TIP3    H160619   2.053   6.545   1.379 -0.1327 -0.4566  0.8559
13068TIP3    H260620   2.098   6.408   1.333 -1.0066 -0.4734  0.0256
13069TIP3   OH260621   5.874   2.703   5.322  0.5192 -0.1871 -0.0122
13069TIP3    H160622   5.970   2.692   5.321  0.5945  0.4799 -1.3891
13069TIP3    H260623   5.841   2.621   5.285  0.5760 -0.2478  0.0705
13070TIP3   OH260624   6.784   4.481   5.241  0.2442 -0.4908  0.3837
13070TIP3    H160625   6.741   4.411   5.192 -2.7910  0.4414  1.5494
13070TIP3    H260626   6.718   4.551   5.244  1.6027  0.7374  2.9067
13071TIP3   OH260627   5.313   0.378  12.864 -0.2959  0.2999  0.4060
13071TIP3    H160628   5.385   0.393  12.802 -0.9239  0.7799 -0.2108
13071TIP3    H260629   5.244   0.338  12.811 -0.5808  0.0933  0.9397
13072TIP3   OH260630   0.224   3.146   0.725  0.6264  0.0411 -0.1004
13072TIP3    H160631   0.153   3.126   0.785  0.6059  0.5679  0.0535
13072TIP3    H260632   0.180   3.163   0.641  0.3733  2.3594  0.4517
13073TIP3   OH260633   2.712   4.092  13.235  0.4954  0.2459  0.8385
13073TIP3    H160634   2.730   4.150  13.161 -1.6520 -0.6212 -0.4257
13073TIP3    H260635   2.795   4.084  13.281  1.5861  1.7224 -0.8309
13074TIP3   OH260636   5.884   6.386   6.047  0.0784 -0.1669  0.0797
13074TIP3    H160637   5.975   6.414   6.042  0.5338 -1.4195  1.4442
13074TIP3    H260638   5.885   6.293   6.025 -0.8673 -0.2156  0.2021
13075TIP3   OH260639   2.680   3.623   5.184 -0.1877  0.0692 -0.2984
13075TIP3    H160640   2.684   3.686   5.112 -0.4467 -0.4607 -0.7779
13075TIP3    H260641   2.750   3.650   5.243 -0.2975  0.8056 -0.5054
13076TIP3   OH260642   6.584   1.039   3.028 -0.2186 -0.4284  0.0215
13076TIP3    H160643   6.614   1.027   2.938 -1.2259  0.4962 -0.4570
13076TIP3    H260644   6.504   0.986   3.034  0.7120 -1.7542  0.8560
13077TIP3   OH260645   3.261   6.622  14.499  0.1951 -0.6054  0.5729
13077TIP3    H160646   3.301   6.708  14.511  0.5378 -0.5662 -0.7659
13077TIP3    H260647   3.253   6.587  14.588  2.1428 -0.1518  0.9564
13078TIP3   OH260648   4.999   1.747  15.859 -0.0777  0.1931  0.1903
13078TIP3    H160649   5.037   1.832  15.882  1.2211 -0.1244 -0.7127
13078TIP3    H260650   4.910   1.751  15.893 -0.4616  2.4279 -0.9510
13079TIP3   OH260651   4.650   4.841  14.066 -0.2435 -0.2958  0.2296
13079TIP3    H160652   4.712   4.772  14.046  0.8477  0.9075 -0.6705
13079TIP3    H260653   4.651   4.849  14.162 -0.3943 -1.5203  0.3317
13080TIP3   OH260654   6.443   6.030   4.397 -0.3001  0.8337  0.0872
13080TIP3    H160655   6.357   6.000   4.426  0.2953  0.2293  1.2649
13080TIP3    H260656   6.430   6.057   4.307 -1.4941 -0.2775 -0.0868
13081TIP3   OH260657   6.228   1.574  16.412 -0.5836 -0.1063 -0.0729
13081TIP3    H160658   6.146   1.545  16.372 -1.0235  1.2683 -0.2243
13081TIP3    H260659   6.283   1.598  16.338  0.3486 -1.9825 -0.0110
13082TIP3   OH260660   1.139   6.227  12.121  0.0101 -0.4841 -0.0183
13082TIP3    H160661   1.048   6.254  12.131 -0.0820 -1.2586  1.3286
13082TIP3    H260662   1.137   6.162  12.051 -0.3064  0.2691 -0.7193
13083TIP3   OH260663   6.042   1.209   5.203 -0.1666  0.0699 -0.2639
13083TIP3    H160664   6.086   1.233   5.285 -0.0710  2.5170 -0.9907
13083TIP3    H260665   6.112   1.180   5.145  0.2366  1.8622 -0.6879
13084TIP3   OH260666   0.430   5.453   3.057  0.1358  0.3993 -0.4190
13084TIP3    H160667   0.407   5.376   3.005  1.1813  0.6058 -1.1809
13084TIP3    H260668   0.357   5.462   3.119  1.4613 -3.0779  1.7996
13085TIP3   OH260669   3.447   1.119  10.949 -0.5959 -0.0880 -0.0229
13085TIP3    H160670   3.466   1.054  10.881 -3.2883  1.5234 -2.4459
13085TIP3    H260671   3.491   1.199  10.918 -0.8516  0.3557  0.7521
13086TIP3   OH260672   3.690   4.869   4.586 -0.2122  0.7416  0.5448
13086TIP3    H160673   3.599   4.856   4.612 -1.1344  2.9212 -1.3848
13086TIP3    H260674   3.730   4.919   4.657 -1.3050  2.1890  0.1576
13087TIP3   OH260675   3.600   2.816  16.354 -0.3464 -0.0833  0.7782
13087TIP3    H160676   3.558   2.749  16.300  0.3478 -0.2851  0.4741
13087TIP3    H260677   3.541   2.891  16.352 -0.4830 -0.2131  0.0157
13088TIP3   OH260678   3.043   3.530  12.733 -0.7321  0.1072  0.2517
13088TIP3    H160679   3.039   3.576  12.817 -0.2953 -0.4273  0.5700
13088TIP3    H260680   3.127   3.557  12.695 -0.6835 -0.0718  0.2325
13089TIP3   OH260681   2.598   0.893  12.360  0.2630 -0.2894  0.1379
13089TIP3    H160682   2.667   0.847  12.312 -0.6667 -1.8037  0.1951
13089TIP3    H260683   2.525   0.896  12.298  0.2280  0.8714  0.2420
13090TIP3   OH260684   6.559   1.852  14.754 -0.6170  0.6692  0.0633
13090TIP3    H160685   6.473   1.814  14.772  0.1797 -0.4110  1.7678
13090TIP3    H260686   6.577   1.830  14.663 -1.9934  0.6049 -0.2021
13091TIP3   OH260687   6.241   5.411   5.834  0.0428  0.5883 -0.4516
13091TIP3    H160688   6.306   5.381   5.770  1.2602  1.2928  0.4373
13091TIP3    H260689   6.194   5.331   5.858  0.3878  0.1104 -1.3040
13092TIP3   OH260690   4.934   3.266   0.220  0.0932 -0.2171  0.0987
13092TIP3    H160691   4.869   3.326   0.257  1.6881  1.0405  0.9345
13092TIP3    H260692   5.018   3.305   0.243  1.1523 -1.4051 -1.6454
13093TIP3   OH260693   5.411   3.751  13.982  0.0643  0.1663  0.1673
13093TIP3    H160694   5.402   3.675  13.924  3.0377  0.2352 -0.4746
13093TIP3    H260695   5.498   3.741  14.020 -0.2966  2.2429  1.6002
13094TIP3   OH260696   2.113   2.135  13.514  0.1662 -0.2796 -0.3649
13094TIP3    H160697   2.186   2.075  13.497  0.9853  0.3853  0.7296
13094TIP3    H260698   2.134   2.174  13.599 -1.4013  0.0268 -0.1094
13095TIP3   OH260699   4.692   6.321  14.396  0.7864  0.1560 -0.0749
13095TIP3    H160700   4.697   6.338  14.490 -0.3905  1.4993 -0.2443
13095TIP3    H260701   4.605   6.350  14.371  1.2228  0.1268 -1.6514
13096TIP3   OH260702   2.325   4.332   2.754  0.2006 -0.8206 -0.4197
13096TIP3    H160703   2.243   4.351   2.709  0.2475  0.5977  0.0690
13096TIP3    H260704   2.299   4.281   2.831  0.0182 -2.3249 -1.4680
13097TIP3   OH260705   0.401   0.811  14.957 -0.1162 -0.0048 -0.3009
13097TIP3    H160706   0.475   0.869  14.976 -0.4069 -0.1612  1.3898
13097TIP3    H260707   0.409   0.791  14.864  1.8279  0.1693 -0.1856
13098TIP3   OH260708   5.204   2.674   5.484 -0.3877  0.5541  0.1150
13098TIP3    H160709   5.235   2.595   5.527 -0.3474  0.8305  0.5932
13098TIP3    H260710   5.137   2.644   5.423 -0.0235  0.0951 -0.0661
13099TIP3   OH260711   5.588   0.714   0.373 -0.3083  0.2911  0.0381
13099TIP3    H160712   5.544   0.730   0.457  0.5899 -0.1426  0.6025
13099TIP3    H260713   5.525   0.743   0.307 -1.0923  0.4855  0.8576
13100TIP3   OH260714   1.254   3.120   4.928 -0.0465 -0.2646 -0.6682
13100TIP3    H160715   1.247   3.149   5.019  1.4849 -0.0549 -0.5967
13100TIP3    H260716   1.222   3.029   4.929  1.2956 -0.7560  0.3736
13101TIP3   OH260717   4.036   4.578   2.571 -0.8124  0.1655  0.2719
13101TIP3    H160718   4.114   4.627   2.597 -1.5103  0.9354  0.9551
13101TIP3    H260719   3.992   4.558   2.654 -1.0388 -0.7721 -0.0696
13102TIP3   OH260720   5.493   5.810  12.567 -0.0481  0.3655 -0.0911
13102TIP3    H160721   5.463   5.735  12.618 -0.8615 -0.3220 -1.5617
13102TIP3    H260722   5.541   5.772  12.493 -1.5499  1.2246 -1.5424
13103TIP3   OH260723   5.931   5.076   3.433 -0.0246 -0.2220  0.3014
13103TIP3    H160724   6.009   5.022   3.419 -0.1038 -0.0336 -0.9215
13103TIP3    H260725   5.907   5.107   3.346 -1.2227  0.0730  0.7226
13104TIP3   OH260726   5.778   3.030  17.088 -0.2184  0.2794  0.5332
13104TIP3    H160727   5.717   3.096  17.120  0.0885  0.7372  0.1653
13104TIP3    H260728   5.772   2.959  17.153 -2.4151 -0.4348 -0.3875
13105TIP3   OH260729   4.857   1.472   5.302  0.2296  0.2915  0.4578
13105TIP3    H160730   4.945   1.509   5.296  0.2394  0.1754 -0.2671
13105TIP3    H260731   4.814   1.522   5.371  0.7055  0.6909  0.4682
13106TIP3   OH260732   6.640   5.909   0.999 -0.5054 -0.1317 -0.2520
13106TIP3    H160733   6.636   5.814   1.015  1.0116 -0.3408 -1.0719
13106TIP3    H260734   6.596   5.948   1.074  0.2009 -1.4147  0.8322
13107TIP3   OH260735   0.138   5.814   2.642  0.1136 -0.3362  0.1155
13107TIP3    H160736   0.214   5.865   2.672  1.0052  0.0124 -2.5777
13107TIP3    H260737   0.163   5.723   2.655 -0.0758 -0.1859  1.6541
13108TIP3   OH260738   1.161   5.235   3.420 -0.7690 -0.2947  0.7245
13108TIP3    H160739   1.181   5.287   3.341 -1.3818  0.4349  1.0419
13108TIP3    H260740   1.140   5.300   3.487 -1.9170 -0.9573  1.0304
13109TIP3   OH260741   1.440   0.358   1.112 -0.3540  0.2626 -0.2308
13109TIP3    H160742   1.449   0.328   1.203  0.1148  0.5062 -0.1953
13109TIP3    H260743   1.387   0.437   1.117 -0.4564  0.1911 -0.1856
13110TIP3   OH260744   4.385   4.224  12.232  0.2878  0.6236 -0.0774
13110TIP3    H160745   4.393   4.131  12.249  0.3702  0.6236 -0.1161
13110TIP3    H260746   4.441   4.266  12.297 -1.9419  0.7996  1.7981
13111TIP3   OH260747   2.054   0.362   3.235 -0.4393 -0.1137 -0.6033
13111TIP3    H160748   2.144   0.331   3.246  0.0744  0.4336 -2.9699
13111TIP3    H260749   2.051   0.444   3.285  0.2327 -0.3759 -0.1224
13112TIP3   OH260750   3.997   4.537  13.049  0.1042 -0.8228  0.2491
13112TIP3    H160751   3.943   4.521  12.971  0.1802 -0.4105  0.1107
13112TIP3    H260752   3.943   4.596  13.103  1.1423  1.0502 -0.7032
13113TIP3   OH260753   2.289   4.678  12.358 -0.0024 -0.4155  0.2712
13113TIP3    H160754   2.223   4.652  12.294  0.2934 -0.1235 -0.1519
13113TIP3    H260755   2.368   4.632  12.331  0.0830 -0.4188  0.5251
13114TIP3   OH260756   3.460   3.646   0.059  0.2687  0.4415  0.5527
13114TIP3    H160757   3.546   3.617   0.030  0.0856  0.6988 -0.2586
13114TIP3    H260758   3.409   3.565   0.069  0.4090  0.3357  0.4060
13115TIP3   OH260759   6.112   4.786  13.968  0.4201  0.0478 -0.9435
13115TIP3    H160760   6.079   4.829  13.889 -1.8028 -0.0891 -0.1389
13115TIP3    H260761   6.036   4.738  14.002  1.8965 -1.5350  0.1687
13116TIP3   OH260762   3.148   4.608  13.894 -0.0513  0.5020  0.0690
13116TIP3    H160763   3.109   4.665  13.960 -1.7846 -1.6962  1.0145
13116TIP3    H260764   3.080   4.597  13.828  0.1156 -0.7415  0.0845
13117TIP3   OH260765   2.430   2.163   3.300 -0.0384 -0.2860  0.1817
13117TIP3    H160766   2.523   2.157   3.281  0.1187 -2.4202  1.4136
13117TIP3    H260767   2.423   2.229   3.369  0.8423 -1.6605  1.6311
13118TIP3   OH260768   6.354   2.730   1.500 -0.1919 -0.0247 -0.0822
13118TIP3    H160769   6.319   2.664   1.440  1.9188 -0.2759 -1.0886
13118TIP3    H260770   6.385   2.800   1.443  1.0648  0.1255  0.7660
13119TIP3   OH260771   6.512   3.196  14.294 -0.9433 -0.1734 -0.2312
13119TIP3    H160772   6.517   3.225  14.386 -0.4396  0.7910 -0.5499
13119TIP3    H260773   6.573   3.254  14.248  1.1365 -2.6221 -0.6952
13120TIP3   OH260774   4.414   1.861  13.024  0.1190  0.6277 -0.0333
13120TIP3    H160775   4.433   1.941  13.074  1.0924  0.7394 -0.5593
13120TIP3    H260776   4.482   1.859  12.956 -0.7310  0.0785 -0.8796
13121TIP3   OH260777   6.232   4.023  13.887  0.3911 -0.3484 -0.1891
13121TIP3    H160778   6.284   3.943  13.889  0.6896 -0.1378  0.3478
13121TIP3    H260779   6.296   4.094  13.878  0.1647 -0.1269 -0.0779
13122TIP3   OH260780   3.700   2.039   0.929  0.1900  0.8149  0.0067
13122TIP3    H160781   3.672   2.053   0.839 -0.3510 -0.7690 -0.0868
13122TIP3    H260782   3.788   2.075   0.933 -0.0317  1.4855 -0.9744
13123TIP3   OH260783   0.645   3.954  15.168 -0.5488 -0.5501 -0.0035
13123TIP3    H160784   0.646   3.961  15.264  0.4000 -0.8228  0.0142
13123TIP3    H260785   0.700   4.027  15.138 -1.2082 -0.2015 -0.3563
13124TIP3   OH260786   3.924   6.517  16.789  0.0630  0.0141  0.0909
13124TIP3    H160787   3.882   6.551  16.710  1.9863  1.8209 -0.1869
13124TIP3    H260788   4.018   6.532  16.775  0.4313  0.3742  2.7356
13125TIP3   OH260789   5.679   0.510  14.746 -0.1365  0.5900  0.2103
13125TIP3    H160790   5.741   0.535  14.678 -1.0517  0.6587 -0.5955
13125TIP3    H260791   5.715   0.429  14.783  1.0441  1.2499  0.5419
13126TIP3   OH260792   4.435   1.423   4.404 -0.5006 -0.0192 -0.3945
13126TIP3    H160793   4.346   1.457   4.404 -0.6431 -0.3874 -0.3522
13126TIP3    H260794   4.428   1.338   4.449  0.1088  0.5821  0.8618
13127TIP3   OH260795   1.332   5.805  15.380 -0.5158 -0.0475  0.0887
13127TIP3    H160796   1.409   5.774  15.427 -0.3302 -1.1178 -0.8925
13127TIP3    H260797   1.368   5.857  15.307 -0.8278  3.0056  2.0064
13128TIP3   OH260798   3.515   6.605  16.715  0.2676  0.5337  0.2124
13128TIP3    H160799   3.443   6.573  16.769 -0.1060  2.5879  0.9959
13128TIP3    H260800   3.488   6.694  16.691  0.1590 -0.5417 -3.8844
13129TIP3   OH260801   4.680   2.358   3.438  0.1924  0.6663  0.2853
13129TIP3    H160802   4.608   2.320   3.488  0.5401  0.1975  0.4365
13129TIP3    H260803   4.669   2.453   3.447 -0.4865  0.5969  0.1863
13130TIP3   OH260804   6.011   1.709  15.097 -0.1916 -0.2686 -0.3468
13130TIP3    H160805   6.104   1.714  15.074  0.2402  1.3225  1.6201
13130TIP3    H260806   5.966   1.718  15.013  1.4025 -0.5601 -1.2771
13131TIP3   OH260807   1.737   2.953   1.446 -0.7018  0.2596  0.1464
13131TIP3    H160808   1.806   3.019   1.444 -1.0212  0.6305  1.1662
13131TIP3    H260809   1.662   2.998   1.485 -1.3246 -0.3247 -0.3524
13132TIP3   OH260810   2.040   6.210  13.370  0.0628  0.1099 -0.3046
13132TIP3    H160811   2.040   6.170  13.283  0.0120 -0.6969  0.0590
13132TIP3    H260812   2.039   6.136  13.430 -2.6142  0.6622  0.3816
13133TIP3   OH260813   4.121   5.287   4.679 -0.3750 -0.1669  0.6102
13133TIP3    H160814   4.161   5.347   4.616 -0.3716 -0.5945  0.1978
13133TIP3    H260815   4.157   5.313   4.763 -0.3516  0.3925  0.4283
13134TIP3   OH260816   4.749   2.544  14.328 -0.1240  0.3050 -0.0057
13134TIP3    H160817   4.720   2.507  14.412  0.5206 -0.7227 -0.2220
13134TIP3    H260818   4.836   2.506  14.314  0.2290  1.3153 -0.6248
13135TIP3   OH260819   0.466   2.642  14.851  0.3945  0.1379  0.1040
13135TIP3    H160820   0.516   2.657  14.771  1.1690 -4.1596 -0.3147
13135TIP3    H260821   0.375   2.633  14.821  0.1180  2.3473  0.2098
13136TIP3   OH260822   0.003   3.514  15.472 -0.5217  0.4553 -0.4599
13136TIP3    H160823   0.036   3.485  15.557 -0.1632  0.6148 -0.5429
13136TIP3    H260824  -0.083   3.473  15.464 -0.5889  0.5018  0.0163
13137TIP3   OH260825   3.854   6.245  11.977  0.2375  0.8010  0.1498
13137TIP3    H160826   3.830   6.251  12.069 -0.4469  0.5650 -0.0166
13137TIP3    H260827   3.885   6.155  11.966  1.1416  1.0790  0.3462
13138TIP3   OH260828   4.865   2.198  13.497  0.1598 -0.0799 -0.1406
13138TIP3    H160829   4.924   2.203  13.422  0.3341 -0.3954 -0.0241
13138TIP3    H260830   4.893   2.270  13.554  0.1475  0.0447 -0.2920
13139TIP3   OH260831   4.820   1.244   1.790 -0.6565 -0.7685  0.3960
13139TIP3    H160832   4.755   1.313   1.797 -1.6963 -1.4940 -1.6811
13139TIP3    H260833   4.893   1.284   1.743  0.4217  0.0343  2.6927
13140TIP3   OH260834   3.193   0.777  12.159 -0.2482  0.0168  0.6117
13140TIP3    H160835   3.199   0.690  12.199  0.9559 -0.1517  0.0999
13140TIP3    H260836   3.180   0.759  12.065  2.2072  0.3391  0.1706
13141TIP3   OH260837   5.345   3.767   1.196 -0.3537  0.0781 -0.1882
13141TIP3    H160838   5.438   3.750   1.178 -0.5502 -1.0654 -0.1386
13141TIP3    H260839   5.346   3.841   1.256  0.5660 -0.5074  0.5272
13142TIP3   OH260840   5.873   5.117   0.498 -0.7616 -0.6449 -0.3213
13142TIP3    H160841   5.782   5.092   0.480 -1.2486  0.3486  0.6473
13142TIP3    H260842   5.891   5.078   0.584 -0.4287 -0.4766 -0.3149
13143TIP3   OH260843   5.853   3.248  14.230  0.7953  0.0156  0.0608
13143TIP3    H160844   5.815   3.335  14.222  0.1688 -0.2528  0.1193
13143TIP3    H260845   5.829   3.219  14.318 -0.7876 -1.0594 -0.6954
13144TIP3   OH260846   1.854   2.208  12.298 -0.0087  0.4928 -0.5575
13144TIP3    H160847   1.902   2.131  12.265  0.5324  1.3386 -1.7761
13144TIP3    H260848   1.918   2.279  12.297 -0.4415  0.9274  0.7908
13145TIP3   OH260849   2.978   2.026   5.351  0.3745 -0.9058  0.0294
13145TIP3    H160850   2.943   2.081   5.421  0.9710 -0.8932  0.3227
13145TIP3    H260851   2.923   2.045   5.276  1.0712  0.6968 -0.0899
13146TIP3   OH260852   4.917   1.299   3.440 -0.2745 -0.0867 -0.2456
13146TIP3    H160853   4.883   1.387   3.453 -1.6178 -0.7428  0.8315
13146TIP3    H260854   4.987   1.309   3.376 -0.7291  1.6854 -0.4800
13147TIP3   OH260855   1.689   4.295   5.110  0.3883 -0.6624 -0.2868
13147TIP3    H160856   1.702   4.314   5.203 -0.1969  1.6823 -0.6488
13147TIP3    H260857   1.595   4.279   5.101  0.3483 -0.2896 -0.5637
13148TIP3   OH260858   1.941   2.521   2.126 -0.5317  0.3510  0.6237
13148TIP3    H160859   1.879   2.592   2.141 -0.3109  1.0121 -1.3931
13148TIP3    H260860   1.896   2.463   2.064  0.2946  0.0882  0.2681
13149TIP3   OH260861   2.304   3.432  11.464  0.0704 -0.4675 -0.0124
13149TIP3    H160862   2.220   3.455  11.426 -0.6569 -1.5739  0.9130
13149TIP3    H260863   2.307   3.479  11.547  1.1735  1.0493 -0.8840
13150TIP3   OH260864   0.471   4.419  13.819 -0.5940 -0.0402  0.0505
13150TIP3    H160865   0.407   4.453  13.881 -0.1846 -0.7442  0.8875
13150TIP3    H260866   0.554   4.459  13.846  0.1250 -2.5771  1.8485
13151TIP3   OH260867   3.473   0.728  13.392 -0.1069  0.0187  0.0353
13151TIP3    H160868   3.541   0.706  13.456 -1.2466  0.0938  1.2913
13151TIP3    H260869   3.520   0.770  13.320  1.2848 -0.7304  0.4933
13152TIP3   OH260870   0.308   4.414  11.528 -0.0847  0.4667 -0.1142
13152TIP3    H160871   0.249   4.488  11.514  1.9427  2.3066  0.8788
13152TIP3    H260872   0.283   4.379  11.613 -0.4151  0.5891 -0.1583
13153TIP3   OH260873   4.212   0.724   3.898  0.7733  0.1893  0.1255
13153TIP3    H160874   4.175   0.637   3.886  1.0399 -0.0620  1.0336
13153TIP3    H260875   4.157   0.782   3.846 -0.0892 -0.3641  0.4050
13154TIP3   OH260876   5.296   3.985   2.256 -0.7343 -0.1269 -0.1895
13154TIP3    H160877   5.361   4.048   2.286 -0.9026  0.9374 -1.9574
13154TIP3    H260878   5.348   3.911   2.224 -0.5622 -1.4009  2.8554
13155TIP3   OH260879   4.378   1.000   1.832 -0.1235 -0.1867 -0.5216
13155TIP3    H160880   4.471   0.980   1.846  0.0818  0.5511 -0.8017
13155TIP3    H260881   4.332   0.945   1.896  0.6566  1.3225  1.4101
13156TIP3   OH260882   4.667   0.797  15.682 -0.0093  0.6178 -0.2924
13156TIP3    H160883   4.723   0.853  15.736 -2.1193  1.2140  1.3447
13156TIP3    H260884   4.719   0.781  15.602  2.3117  1.4310  1.0012
13157TIP3   OH260885   1.601   6.646   2.932 -0.4726 -0.0529  0.3443
13157TIP3    H160886   1.633   6.577   2.873 -1.3590 -0.0116 -0.1920
13157TIP3    H260887   1.544   6.700   2.877 -0.2726  0.7424  0.9225
13158TIP3   OH260888   5.748   4.749  11.261  0.1189 -0.3267  0.1130
13158TIP3    H160889   5.743   4.655  11.279 -1.3996 -0.0729  1.0719
13158TIP3    H260890   5.710   4.791  11.339  3.3159  1.2048  0.9294
13159TIP3   OH260891   1.824   4.716  14.635  0.4502 -0.3539  0.4365
13159TIP3    H160892   1.749   4.716  14.576  2.7525  1.7036 -2.6194
13159TIP3    H260893   1.808   4.790  14.695 -0.2734 -0.3536  0.2370
13160TIP3   OH260894   6.366   2.609  12.243 -0.1572 -0.0927 -0.1108
13160TIP3    H160895   6.282   2.651  12.263  0.0322 -0.0137  0.5102
13160TIP3    H260896   6.425   2.639  12.312  0.5502  0.3456 -0.9000
13161TIP3   OH260897   1.595   2.586  16.898  0.4713  0.3802 -0.2978
13161TIP3    H160898   1.654   2.661  16.901 -0.4909  1.1279  0.2235
13161TIP3    H260899   1.585   2.559  16.989 -0.5103  0.6798 -0.3044
13162TIP3   OH260900   2.706   6.145   3.432 -0.1875 -0.1633 -0.2559
13162TIP3    H160901   2.627   6.152   3.378 -0.4540 -0.1157  0.1367
13162TIP3    H260902   2.775   6.118   3.371  0.0733  2.3600 -1.1304
13163TIP3   OH260903   3.147   0.120   5.649 -0.2947  0.0011 -0.4401
13163TIP3    H160904   3.119   0.122   5.741  1.1971 -1.2330  0.0659
13163TIP3    H260905   3.167   0.028   5.633  0.3200  0.3640 -1.7447
13164TIP3   OH260906   4.737   0.813  17.050 -0.3963 -0.1515 -0.3685
13164TIP3    H160907   4.718   0.859  16.968  1.7013  1.0605 -0.2020
13164TIP3    H260908   4.771   0.728  17.022 -0.4279 -0.0484 -0.7282
13165TIP3   OH260909   0.754   0.666  11.735  0.3411 -0.3004 -0.4743
13165TIP3    H160910   0.698   0.646  11.660 -2.0582  3.0790  0.2621
13165TIP3    H260911   0.717   0.616  11.807 -0.4378  0.2588 -0.4770
13166TIP3   OH260912   1.892   5.138  16.368  0.3861  0.0548  0.4843
13166TIP3    H160913   1.982   5.107  16.377  0.2175 -0.4167  0.5288
13166TIP3    H260914   1.841   5.060  16.347 -0.1802  0.1392  1.4926
13167TIP3   OH260915   5.578   2.455  14.446 -0.0365 -0.6869  0.2815
13167TIP3    H160916   5.564   2.516  14.374 -1.5627  0.5543  1.5847
13167TIP3    H260917   5.490   2.429  14.473  0.5677 -4.1604 -0.7748
13168TIP3   OH260918   2.845   1.551   6.129  0.1126 -0.2071 -0.0189
13168TIP3    H160919   2.904   1.602   6.073  0.5952  0.0646  0.7324
13168TIP3    H260920   2.860   1.585   6.217 -0.7338 -0.5508  0.2643
13169TIP3   OH260921   1.642   4.493  15.102  0.4980 -0.1933  0.4555
13169TIP3    H160922   1.692   4.443  15.039  1.2163  1.0640  0.0048
13169TIP3    H260923   1.684   4.580  15.103 -1.1416  0.6160  0.6913
13170TIP3   OH260924   3.551   5.654   3.801 -0.6213 -0.1697 -0.0599
13170TIP3    H160925   3.497   5.661   3.879  1.0901  1.4815  1.0219
13170TIP3    H260926   3.555   5.560   3.782 -4.2530 -0.2841 -0.4904
13171TIP3   OH260927   3.950   2.121  12.919 -0.3619 -0.3879 -0.5262
13171TIP3    H160928   3.923   2.089  12.832  1.7080 -1.3160 -0.8685
13171TIP3    H260929   3.972   2.041  12.967 -1.5218  0.1264  0.8899
13172TIP3   OH260930   6.056   3.363   1.972 -0.2783 -0.0711 -0.2055
13172TIP3    H160931   6.123   3.395   1.911  0.1888  0.4698  0.5791
13172TIP3    H260932   6.070   3.268   1.975  0.1233 -0.0211 -0.4363
13173TIP3   OH260933   5.122   0.941   2.425  0.1056 -0.2221  0.1838
13173TIP3    H160934   5.160   0.983   2.502  1.5495  0.4523 -0.8812
13173TIP3    H260935   5.089   1.013   2.372  0.1441 -0.6164 -0.3806
13174TIP3   OH260936   1.345   2.205  12.015  0.2918 -0.1513 -0.1974
13174TIP3    H160937   1.288   2.251  12.076 -1.1538 -0.2119 -1.4571
13174TIP3    H260938   1.425   2.258  12.012 -0.1283  0.5531  0.7458
13175TIP3   OH260939   2.232   5.322   3.162 -0.0838  0.5268 -0.5598
13175TIP3    H160940   2.221   5.362   3.248 -2.5698  1.0059 -1.0602
13175TIP3    H260941   2.219   5.228   3.177  1.5233  0.3596 -0.1007
13176TIP3   OH260942   3.228   1.163  16.816  0.2705  0.0538 -0.4103
13176TIP3    H160943   3.171   1.143  16.741  0.7641  1.7505 -1.2557
13176TIP3    H260944   3.227   1.083  16.868 -1.6372 -0.4943 -1.2250
13177TIP3   OH260945   5.438   4.418   4.304  0.0400  0.4607 -0.0221
13177TIP3    H160946   5.378   4.375   4.365  0.2418 -0.2873 -0.3478
13177TIP3    H260947   5.525   4.406   4.343  0.1585  0.0645 -0.4038
13178TIP3   OH260948   2.718   1.459  13.737 -0.0219  0.0920  0.3194
13178TIP3    H160949   2.784   1.525  13.760 -0.0994  0.4844 -0.5704
13178TIP3    H260950   2.634   1.505  13.744 -0.0798  0.0795 -0.2498
13179TIP3   OH260951   4.772   2.673   0.580  0.1897 -0.2387  0.5437
13179TIP3    H160952   4.684   2.711   0.590  0.0762 -0.8480  2.0556
13179TIP3    H260953   4.782   2.659   0.486 -0.9943  0.6525  0.2792
13180TIP3   OH260954   3.022   5.092   1.521 -0.1303  0.2904  0.3719
13180TIP3    H160955   3.017   5.060   1.611  0.3913  1.4475  0.8220
13180TIP3    H260956   2.931   5.111   1.498 -0.3072 -0.3411  0.5253
13181TIP3   OH260957   5.712   0.353   5.985 -0.2781  0.7121 -0.6691
13181TIP3    H160958   5.737   0.347   5.893 -0.0858  1.5111 -0.6736
13181TIP3    H260959   5.737   0.442   6.011  1.8402 -0.2409  0.7739
13182TIP3   OH260960   5.656   1.307   2.722  0.5470  0.1506 -0.0514
13182TIP3    H160961   5.721   1.373   2.748 -1.4674  2.1914 -0.0349
13182TIP3    H260962   5.581   1.324   2.779 -0.5103 -1.2788 -0.9911
13183TIP3   OH260963   3.828   5.851   5.604 -0.9901  0.6478  0.0701
13183TIP3    H160964   3.793   5.775   5.556  0.0859 -0.1197  0.4765
13183TIP3    H260965   3.783   5.848   5.689 -1.6723  1.0445 -0.2711
13184TIP3   OH260966   3.784   0.404   5.716  0.1068  0.1723 -0.0186
13184TIP3    H160967   3.731   0.345   5.662 -1.5092 -0.2522  1.9877
13184TIP3    H260968   3.858   0.427   5.659 -0.7748 -1.4087 -1.8971
13185TIP3   OH260969   0.992   5.512   1.808 -0.3537 -0.3918  0.2253
13185TIP3    H160970   1.075   5.467   1.825 -0.0178 -0.9682 -2.7490
13185TIP3    H260971   0.953   5.524   1.895  2.5138 -0.7078  1.6035
13186TIP3   OH260972   5.427   5.084   3.809 -0.9966  0.2966  0.1255
13186TIP3    H160973   5.410   4.993   3.837 -0.6387  0.5076  1.0417
13186TIP3    H260974   5.395   5.137   3.882 -0.3509  0.8733 -0.0171
13187TIP3   OH260975   3.331   3.512  15.241 -0.5700  0.0246  0.2480
13187TIP3    H160976   3.426   3.509  15.229 -0.5716  0.2145  0.1813
13187TIP3    H260977   3.318   3.565  15.319 -0.5984 -0.4850  0.5901
13188TIP3   OH260978   3.279   6.233  15.303 -0.1700 -0.4403  0.0707
13188TIP3    H160979   3.254   6.237  15.395 -1.3468  0.0915 -0.2576
13188TIP3    H260980   3.199   6.256  15.255  0.7426  0.5532 -1.0431
13189TIP3   OH260981   3.829   4.355  11.310 -0.3364 -0.2303  0.1159
13189TIP3    H160982   3.776   4.281  11.339 -1.1543  0.2048 -0.2472
13189TIP3    H260983   3.853   4.332  11.220  0.4759 -0.6372  0.4374
13190TIP3   OH260984   6.745   3.716   2.863 -0.5779 -0.1512  0.0810
13190TIP3    H160985   6.773   3.667   2.940 -0.9467 -1.2334 -0.4720
13190TIP3    H260986   6.732   3.650   2.795  0.3792  0.8674 -1.1141
13191TIP3   OH260987   0.078   6.586  13.346  0.4265  0.6665 -0.5722
13191TIP3    H160988   0.084   6.591  13.251 -2.0945 -0.3029 -0.8229
13191TIP3    H260989  -0.002   6.633  13.368 -1.5009 -2.9916  0.6288
13192TIP3   OH260990   6.565   5.920   6.153  0.1610  0.3718  0.2384
13192TIP3    H160991   6.638   5.904   6.094  0.1474  0.7528  0.1175
13192TIP3    H260992   6.576   5.857   6.223  0.6638  0.4998  0.2732
13193TIP3   OH260993   0.759   3.282  15.867  0.0582 -0.1813  0.3019
13193TIP3    H160994   0.736   3.192  15.843  1.4654 -0.3329 -0.4920
13193TIP3    H260995   0.675   3.322  15.891 -0.6930 -1.4696 -0.1240
13194TIP3   OH260996   0.558   0.211  13.934  0.2711  0.3465 -0.2996
13194TIP3    H160997   0.620   0.247  13.871 -2.1013 -2.3427 -4.4289
13194TIP3    H260998   0.482   0.269  13.929  0.0793  0.1363  0.0956
13195TIP3   OH260999   4.470   4.987  11.950  0.0325  0.1846 -0.1947
13195TIP3    H161000   4.560   5.018  11.938  0.1594  0.1295  0.5958
13195TIP3    H261001   4.430   4.996  11.864  0.7720  0.2888 -0.5329
13196TIP3   OH261002   3.548   2.065  13.599 -0.0181 -0.1725 -0.4092
13196TIP3    H161003   3.510   2.086  13.513 -0.3247  1.3264  0.0786
13196TIP3    H261004   3.532   1.971  13.610 -2.1856  0.1068 -0.9004
13197TIP3   OH261005   2.886   5.561  14.355 -0.6780 -0.2591 -0.0314
13197TIP3    H161006   2.879   5.528  14.266 -1.1756 -2.1250  0.6713
13197TIP3    H261007   2.871   5.655  14.348 -0.6892 -0.3938 -1.9062
13198TIP3   OH261008   2.131   2.056  17.107 -0.0782 -0.4664 -0.2445
13198TIP3    H161009   2.067   1.988  17.087 -1.0006 -0.3691  2.2107
13198TIP3    H261010   2.199   2.012  17.159 -1.1026  0.5905  2.0741
13199TIP3   OH261011   3.101   4.632   0.257  0.3423  0.2514 -0.4585
13199TIP3    H161012   3.073   4.570   0.190  2.3957  0.9750 -2.0364
13199TIP3    H261013   3.058   4.601   0.337  0.9390 -2.9374 -1.2758
13200TIP3   OH261014   3.675   4.173   2.207  0.1237 -0.5075 -0.1695
13200TIP3    H161015   3.616   4.121   2.152  1.1146 -0.6153 -1.1452
13200TIP3    H261016   3.630   4.256   2.219  0.0283 -0.3636 -1.4251
13201TIP3   OH261017   0.380   4.814  13.200  0.1558  0.1815 -0.3944
13201TIP3    H161018   0.403   4.799  13.292  0.3274  0.2031 -0.4329
13201TIP3    H261019   0.311   4.880  13.203 -0.1104 -0.1060 -0.2624
13202TIP3   OH261020   3.274   6.139   5.261  0.0333  0.4113 -0.5243
13202TIP3    H161021   3.201   6.199   5.244 -0.7443 -0.8023 -1.5273
13202TIP3    H261022   3.268   6.119   5.354 -0.3279  1.0575 -0.4030
13203TIP3   OH261023   1.514   2.614  14.339 -0.2016 -0.0372 -0.5385
13203TIP3    H161024   1.560   2.576  14.264  1.0839  0.1159  0.1571
13203TIP3    H261025   1.580   2.620  14.407 -1.2857  0.1089  0.5221
13204TIP3   OH261026   1.937   5.262  10.949  0.3127 -0.1650  0.6582
13204TIP3    H161027   1.987   5.226  11.022  2.8353 -1.0281 -1.3757
13204TIP3    H261028   1.989   5.337  10.919 -1.2589  0.8487  0.4390
13205TIP3   OH261029   5.952   5.639  12.465  0.5344 -0.4659 -0.0190
13205TIP3    H161030   5.975   5.715  12.518  0.2867 -0.6985  0.4236
13205TIP3    H261031   5.957   5.671  12.375  0.3939  0.0870  0.1658
13206TIP3   OH261032   2.744   4.125   6.637 -0.4910 -0.0480  0.2448
13206TIP3    H161033   2.784   4.092   6.718  0.6660  1.0168  0.1320
13206TIP3    H261034   2.764   4.059   6.571  0.5515  0.1542  0.3437
13207TIP3   OH261035   0.161   3.622  12.926  0.4968  0.4013  0.6681
13207TIP3    H161036   0.249   3.651  12.903  0.7763 -0.0053  1.1975
13207TIP3    H261037   0.139   3.673  13.005  0.3634  0.3205  0.6831
13208TIP3   OH261038   0.848   2.072   4.426  0.1112 -0.0845  0.2972
13208TIP3    H161039   0.922   2.127   4.453  0.6828 -0.0829 -1.1945
13208TIP3    H261040   0.869   2.048   4.336 -2.1627  0.6938 -0.4710
13209TIP3   OH261041   3.580   4.208   1.262 -0.7425 -0.3456  0.8981
13209TIP3    H161042   3.620   4.280   1.310  0.2558 -0.9651  1.0098
13209TIP3    H261043   3.517   4.250   1.203  2.0245  0.9203 -1.2883
13210TIP3   OH261044   5.600   6.414   4.377  0.3564 -0.5450 -0.1225
13210TIP3    H161045   5.527   6.364   4.339  0.9895 -1.9486  0.4595
13210TIP3    H261046   5.587   6.503   4.345 -1.1927 -0.9290 -0.6393
13211TIP3   OH261047   1.312   4.079  14.296 -0.1680  0.1278  0.3940
13211TIP3    H161048   1.405   4.056  14.298 -0.6028 -1.7118  0.1340
13211TIP3    H261049   1.301   4.127  14.214  0.6842  0.9685  0.7645
13212TIP3   OH261050   1.797   4.409  15.785  0.2577  0.3507 -0.2668
13212TIP3    H161051   1.781   4.374  15.873  2.2480  3.2015  1.3353
13212TIP3    H261052   1.878   4.367  15.757  1.1072  1.4495  0.4671
13213TIP3   OH261053   0.209   5.799   4.708 -0.3108 -0.2355  0.4813
13213TIP3    H161054   0.161   5.723   4.743 -0.8435  0.2056  0.7133
13213TIP3    H261055   0.289   5.802   4.760  0.2101 -1.2681 -0.2313
13214TIP3   OH261056   6.058   3.529  13.045  0.1021 -0.1682 -0.3407
13214TIP3    H161057   5.986   3.501  12.988 -0.8441 -0.1249  0.8303
13214TIP3    H261058   6.046   3.624  13.054 -0.4057 -0.3397  0.8288
13215TIP3   OH261059   4.719   1.765   6.167 -0.6212  0.4491 -0.2842
13215TIP3    H161060   4.660   1.838   6.150 -3.2635 -1.4158  0.5321
13215TIP3    H261061   4.804   1.806   6.187 -1.8747  3.2150 -0.4578
13216TIP3   OH261062   0.760   3.509  14.004 -0.2891 -0.3532  0.1684
13216TIP3    H161063   0.822   3.518  14.076  0.8595 -0.8639 -0.7425
13216TIP3    H261064   0.684   3.560  14.031 -0.3198 -1.4436  2.2379
13217TIP3   OH261065   6.595   3.580   3.455 -0.7078  0.3076  0.1394
13217TIP3    H161066   6.583   3.585   3.360 -1.4913 -0.9279  0.1723
13217TIP3    H261067   6.559   3.662   3.488 -1.3258  0.3093 -0.5399
13218TIP3   OH261068   4.018   4.060   1.838 -0.0633  0.1003 -0.5683
13218TIP3    H161069   4.054   4.077   1.925  0.6873  0.3561 -0.9215
13218TIP3    H261070   3.964   4.136   1.819  1.6522  1.1528 -1.2963
13219TIP3   OH261071   0.340   2.352  16.078 -0.2615  0.0002 -0.2638
13219TIP3    H161072   0.391   2.322  16.002 -1.7040 -0.5483 -1.0246
13219TIP3    H261073   0.393   2.326  16.153 -0.3139 -2.3224 -0.9851
13220TIP3   OH261074   0.646   5.474  14.072  0.5582  0.4526 -0.6418
13220TIP3    H161075   0.658   5.410  14.143 -1.8542 -0.1005 -0.7043
13220TIP3    H261076   0.671   5.558  14.111 -0.1596  0.0669  0.6954
13221TIP3   OH261077   0.526   3.958  11.516  0.1519  0.1982 -0.1120
13221TIP3    H161078   0.446   4.004  11.542  0.3589  0.0947  0.7150
13221TIP3    H261079   0.524   3.877  11.566 -0.0009 -0.5095 -1.2528
13222TIP3   OH261080   2.917   2.673   3.115 -0.4260  0.2318 -0.1426
13222TIP3    H161081   2.913   2.577   3.118 -0.0486  0.2379  1.2187
13222TIP3    H261082   2.984   2.692   3.049  0.6914 -0.4999  0.7342
13223TIP3   OH261083   1.945   6.391   6.181  0.6185 -0.5509 -0.4987
13223TIP3    H161084   1.873   6.328   6.180 -0.9598  1.2076 -1.6172
13223TIP3    H261085   1.962   6.406   6.274 -1.6894  0.3359 -0.1917
13224TIP3   OH261086   0.840   3.146   4.406  0.4319 -0.1130  0.2749
13224TIP3    H161087   0.927   3.156   4.366  0.5882  1.4140  0.9389
13224TIP3    H261088   0.814   3.236   4.429 -1.3861 -0.5395 -0.0374
13225TIP3   OH261089   1.599   2.982  13.031  0.6414 -0.9721  0.3601
13225TIP3    H161090   1.552   2.957  13.111  1.6955 -1.0571  0.9581
13225TIP3    H261091   1.566   2.922  12.964 -0.0374 -1.0867  0.7879
13226TIP3   OH261092   0.745   3.361   1.859  0.3105 -0.6887 -0.6289
13226TIP3    H161093   0.650   3.349   1.860  0.4348 -1.6422  0.1716
13226TIP3    H261094   0.767   3.390   1.947  0.9432 -1.9200 -0.3791
13227TIP3   OH261095   1.772   5.896   3.033 -0.6118  0.1182 -0.0384
13227TIP3    H161096   1.781   5.879   3.127 -1.4715 -1.3450 -0.2123
13227TIP3    H261097   1.765   5.992   3.027 -0.4929  0.2257  1.3778
13228TIP3   OH261098   1.241   6.335   4.444  0.1401  0.0567  0.5847
13228TIP3    H161099   1.259   6.309   4.534  0.6829 -0.7156  0.2601
13228TIP3    H261100   1.313   6.393   4.421 -0.2515  0.6314  0.8036
13229TIP3   OH261101   5.860   5.665   0.231  0.5722  0.0667 -0.4224
13229TIP3    H161102   5.938   5.620   0.263 -0.2463  0.0673  1.6218
13229TIP3    H261103   5.891   5.751   0.203  0.8373  1.2454  3.3260
13230TIP3   OH261104   0.179   4.074  12.618 -0.0509 -0.4449  0.4926
13230TIP3    H161105   0.118   4.133  12.576  1.0661  0.7659  0.5465
13230TIP3    H261106   0.254   4.129  12.641  2.1598 -2.3729 -1.8485
13231TIP3   OH261107   5.206   3.426  15.910 -0.0584 -0.1156  0.3018
13231TIP3    H161108   5.181   3.355  15.852 -0.8240 -0.0782  0.5762
13231TIP3    H261109   5.223   3.500  15.852  0.0213 -0.3226  0.0635
13232TIP3   OH261110   0.307   3.345   1.996  0.2776  1.2538 -0.1537
13232TIP3    H161111   0.354   3.360   2.078  0.8127  1.2267 -0.4525
13232TIP3    H261112   0.375   3.342   1.929  0.0777 -1.0616 -0.3014
13233TIP3   OH261113   5.126   0.237   1.566  0.0132 -0.1976  0.1282
13233TIP3    H161114   5.147   0.296   1.494  1.0323  0.3768  0.8698
13233TIP3    H261115   5.076   0.291   1.628  0.9584 -0.0921  0.8153
13234TIP3   OH261116   1.656   4.814  15.883  0.0030  0.5469 -0.1935
13234TIP3    H161117   1.642   4.763  15.962  0.7451  1.8323  0.7844
13234TIP3    H261118   1.702   4.893  15.912 -1.2392  1.8541 -1.6350
13235TIP3   OH261119   4.091   4.404   1.742  0.0651  0.2548  0.4895
13235TIP3    H161120   4.026   4.410   1.812  0.0492  1.1509  0.4112
13235TIP3    H261121   4.050   4.346   1.677 -0.1234 -0.1824  0.9944
13236TIP3   OH261122   5.172   1.729  15.428  0.4238 -0.3538 -0.0760
13236TIP3    H161123   5.225   1.756  15.353 -0.1715 -1.9863 -1.1181
13236TIP3    H261124   5.235   1.695  15.491  1.3008  4.1631  1.6692
13237TIP3   OH261125   1.968   0.420   5.869  0.2125 -0.1208 -0.4243
13237TIP3    H161126   1.903   0.358   5.836  0.3655 -0.7891  0.5290
13237TIP3    H261127   1.918   0.478   5.928  0.2865 -0.0025 -0.4777
13238TIP3   OH261128   3.597   0.254   5.583  0.3512 -0.1183  0.0959
13238TIP3    H161129   3.513   0.212   5.564  1.0860 -1.5727 -0.0378
13238TIP3    H261130   3.657   0.216   5.520  1.3498  0.0681  0.9226
13239TIP3   OH261131   1.833   0.528  13.015 -0.1123 -0.4825 -0.5879
13239TIP3    H161132   1.809   0.524  13.107  0.2423  1.1902 -0.4011
13239TIP3    H261133   1.831   0.622  12.994 -0.4659 -0.8655 -2.3480
13240TIP3   OH261134   6.048   2.875   1.189  0.1476  0.4293  0.7237
13240TIP3    H161135   6.075   2.865   1.280  1.8766 -0.2334  0.1619
13240TIP3    H261136   6.121   2.920   1.147 -0.2042 -0.1560 -0.5467
13241TIP3   OH261137   5.291   2.885  13.630 -0.3958  0.2845 -0.0162
13241TIP3    H161138   5.232   2.879  13.705  0.7351 -0.9000  0.8055
13241TIP3    H261139   5.364   2.939  13.662 -1.2179  2.0788 -1.1494
13242TIP3   OH261140   4.597   1.285  16.136 -0.2792 -0.4094 -0.1923
13242TIP3    H161141   4.576   1.210  16.080  0.5213 -0.3163 -0.6293
13242TIP3    H261142   4.683   1.263  16.173  0.2458  0.5682 -0.8154
13243TIP3   OH261143   5.485   5.998  14.831  0.3222 -0.1492 -0.0381
13243TIP3    H161144   5.424   5.925  14.830 -1.2450  1.1144  0.5617
13243TIP3    H261145   5.560   5.968  14.779 -0.5083 -1.9726 -0.2123
13244TIP3   OH261146   5.270   4.719   4.840 -0.2627  0.3605  0.9585
13244TIP3    H161147   5.355   4.686   4.868 -0.1654  0.1367  0.4123
13244TIP3    H261148   5.289   4.803   4.798 -0.0594 -0.5925 -0.9165
13245TIP3   OH261149   4.145   2.984  11.961 -0.6249 -0.1561 -0.0792
13245TIP3    H161150   4.141   3.031  12.044  0.2580  2.2595 -1.3685
13245TIP3    H261151   4.058   2.943  11.953 -1.3303  1.0425  1.1812
13246TIP3   OH261152   6.140   5.681  15.948 -0.4220  0.3252 -0.5813
13246TIP3    H161153   6.091   5.637  16.017  0.4444  1.6107  0.8835
13246TIP3    H261154   6.225   5.637  15.948 -0.5322  0.1126 -1.0508
13247TIP3   OH261155   4.719   1.315   5.838 -0.3071  0.1611  0.7099
13247TIP3    H161156   4.814   1.328   5.833 -0.5894  2.4473  1.0437
13247TIP3    H261157   4.689   1.379   5.903 -2.3501  0.9557 -0.9561
13248TIP3   OH261158   4.241   1.524   0.649  0.4179  0.4636 -0.0882
13248TIP3    H161159   4.191   1.557   0.723 -0.8009 -0.0237 -0.6936
13248TIP3    H261160   4.241   1.429   0.659  0.2336  0.3909 -0.7107
13249TIP3   OH261161   4.431   0.317  13.481 -0.1211  0.6210  0.6060
13249TIP3    H161162   4.362   0.356  13.426  0.9146 -0.6817 -1.6752
13249TIP3    H261163   4.502   0.381  13.478  0.0560  0.4081  0.1368
13250TIP3   OH261164   0.515   1.337  16.005  0.6194  0.3451 -0.3398
13250TIP3    H161165   0.509   1.378  15.919 -0.8603 -0.9259 -0.8692
13250TIP3    H261166   0.541   1.408  16.064 -3.1066  2.4057 -0.9956
13251TIP3   OH261167   0.507   0.390  15.072 -0.0491  0.3089 -0.4995
13251TIP3    H161168   0.426   0.341  15.086 -0.3568  0.5649 -1.3606
13251TIP3    H261169   0.575   0.324  15.071 -0.1898  0.1348  0.6767
13252TIP3   OH261170   4.527   5.507  17.173 -0.2806 -0.6830 -0.0595
13252TIP3    H161171   4.491   5.483  17.258 -2.0194  1.8262 -0.0480
13252TIP3    H261172   4.492   5.442  17.112  0.7706 -2.3407  1.0625
13253TIP3   OH261173   0.645   3.374   0.031  0.8318  0.3528 -0.0308
13253TIP3    H161174   0.597   3.296   0.059 -1.7082  1.5375 -0.9163
13253TIP3    H261175   0.733   3.362   0.066  0.1814 -2.3776  0.7850
13254TIP3   OH261176   3.694   4.512   0.783 -0.1753  0.0273 -0.3836
13254TIP3    H161177   3.688   4.453   0.708  3.4516 -0.3116 -0.4671
13254TIP3    H261178   3.717   4.454   0.856  0.1080  0.9054  0.2215
13255TIP3   OH261179   4.110   5.179   4.344  0.1051 -0.4814 -0.3967
13255TIP3    H161180   4.140   5.122   4.273 -0.9330  1.5334 -2.5154
13255TIP3    H261181   4.086   5.261   4.301  0.2272  1.1014  2.4016
13256TIP3   OH261182   2.133   3.166  15.153  0.2865 -0.6639 -0.2048
13256TIP3    H161183   2.038   3.165  15.137  0.0477 -0.1178  1.1044
13256TIP3    H261184   2.170   3.117  15.079 -0.8049  1.3193 -2.1242
13257TIP3   OH261185   3.417   4.389  13.669 -0.6454 -0.1835 -0.2521
13257TIP3    H161186   3.351   4.324  13.695 -0.4341 -0.0893  0.5213
13257TIP3    H261187   3.367   4.456  13.623 -0.9766 -0.5182 -0.3842
13258TIP3   OH261188   6.730   4.194   3.645 -0.1893 -0.3857 -0.1766
13258TIP3    H161189   6.645   4.186   3.601 -0.1025 -1.9152 -0.0799
13258TIP3    H261190   6.754   4.105   3.668  0.2463  0.2688  2.0663
13259TIP3   OH261191   0.788   6.396  15.300  0.4063  0.6498 -0.1186
13259TIP3    H161192   0.870   6.347  15.296 -0.5176 -0.9249 -0.1980
13259TIP3    H261193   0.814   6.487  15.288  2.2120  0.2419  0.5932
13260TIP3   OH261194   6.109   5.079   6.506 -0.4234 -0.7954  0.1106
13260TIP3    H161195   6.123   5.004   6.447 -0.7929 -0.5284 -0.3246
13260TIP3    H261196   6.093   5.152   6.447 -1.2708 -0.6173  0.5498
13261TIP3   OH261197   0.443   0.513  13.573 -0.4527 -0.2775 -0.1122
13261TIP3    H161198   0.355   0.498  13.539 -1.1696  0.5186  1.3250
13261TIP3    H261199   0.480   0.581  13.517 -0.6872 -0.7268 -0.8153
13262TIP3   OH261200   0.977   1.669   1.883  0.4686  0.3943  0.0510
13262TIP3    H161201   1.050   1.697   1.938 -0.3522  1.8289  0.4342
13262TIP3    H261202   0.998   1.578   1.859  2.3010  0.7494  0.2509
13263TIP3   OH261203   0.445   6.474  11.712  0.4834  0.1489 -0.3993
13263TIP3    H161204   0.457   6.470  11.617 -3.5804  0.0289 -1.0265
13263TIP3    H261205   0.459   6.566  11.734  0.4244  0.3811 -1.3166
13264TIP3   OH261206   4.204   6.632  12.163 -0.0005  0.3834  0.0980
13264TIP3    H161207   4.154   6.692  12.217 -1.2767 -0.0217 -0.6058
13264TIP3    H261208   4.248   6.688  12.099  0.3579  0.7313  0.6431
13265TIP3   OH261209   0.892   3.171  13.618 -0.8696 -0.1622  0.5002
13265TIP3    H161210   0.940   3.253  13.613 -3.1068  1.1685 -0.1475
13265TIP3    H261211   0.914   3.125  13.537  1.0505 -0.6119  1.2542
13266TIP3   OH261212   2.376   3.227   1.434  0.4534  0.3313 -0.0578
13266TIP3    H161213   2.444   3.283   1.471 -0.6834  1.4561  0.3868
13266TIP3    H261214   2.373   3.252   1.341 -0.6790  1.7256  0.3191
13267TIP3   OH261215   0.037   1.616   2.373 -0.8735 -0.4766  0.0505
13267TIP3    H161216   0.051   1.705   2.407 -0.9751 -0.4655  0.0634
13267TIP3    H261217   0.033   1.561   2.451 -0.6400 -0.5151  0.0337
13268TIP3   OH261218   6.460   0.028   1.627 -0.0235  0.5192  0.8302
13268TIP3    H161219   6.443   0.121   1.612 -0.3338  0.6515  1.9691
13268TIP3    H261220   6.555   0.019   1.614  0.0691  1.0720  1.1070
13269TIP3   OH261221   4.590   6.709   1.065 -0.6284 -0.2396 -0.2513
13269TIP3    H161222   4.585   6.624   1.108 -0.1571 -1.0611 -1.7727
13269TIP3    H261223   4.581   6.688   0.972 -0.1760  1.3484 -0.6551
13270TIP3   OH261224   0.655   4.811   2.697 -0.2738  0.4031  0.1829
13270TIP3    H161225   0.629   4.889   2.648  0.1848 -0.2540 -1.1549
13270TIP3    H261226   0.574   4.778   2.735 -0.7080  0.7354 -0.4337
13271TIP3   OH261227   3.003   0.451  12.595  0.5784  0.0261  0.0732
13271TIP3    H161228   3.026   0.406  12.513  2.1897 -0.8197  0.9527
13271TIP3    H261229   2.956   0.529  12.567  1.0894 -0.2603 -1.6709
13272TIP3   OH261230   3.853   5.178  16.814 -0.2594  0.2763 -0.1295
13272TIP3    H161231   3.861   5.083  16.803 -0.2693  0.4273 -1.5557
13272TIP3    H261232   3.777   5.189  16.871 -0.0591 -0.5738  0.3287
13273TIP3   OH261233   2.577   5.093  15.412  0.1432  0.2827 -0.6085
13273TIP3    H161234   2.525   5.164  15.374  0.1937 -0.1979 -1.5722
13273TIP3    H261235   2.667   5.111  15.384 -0.0564 -0.9945 -2.1261
13274TIP3   OH261236   5.434   3.472  13.843  0.0336 -0.7663 -0.4716
13274TIP3    H161237   5.521   3.465  13.806  0.6485 -1.7616  1.1293
13274TIP3    H261238   5.375   3.471  13.767  1.3031 -1.9356 -1.4526
13275TIP3   OH261239   6.631   6.636   0.379 -0.2593 -0.0124  0.0843
13275TIP3    H161240   6.631   6.582   0.458  1.7966 -0.5030 -0.2154
13275TIP3    H261241   6.573   6.709   0.400 -0.9504 -0.9336  1.4816
13276TIP3   OH261242   3.984   2.396  14.318  0.5299  0.0197  0.0093
13276TIP3    H161243   3.959   2.442  14.238  0.2349 -1.1605 -0.5767
13276TIP3    H261244   3.933   2.438  14.387  0.4831  0.7661 -0.4718
13277TIP3   OH261245   6.432   3.171   5.118  0.0953 -0.3921  0.3373
13277TIP3    H161246   6.516   3.212   5.140 -0.7725  1.9369 -0.5370
13277TIP3    H261247   6.413   3.201   5.029 -2.1077 -0.1298  0.8646
13278TIP3   OH261248   6.179   2.355  16.375  0.0823  0.0143  0.0872
13278TIP3    H161249   6.108   2.296  16.397  0.7073 -0.4014  1.0249
13278TIP3    H261250   6.253   2.326  16.430  0.6958  1.0021 -0.1946
13279TIP3   OH261251   1.363   4.813   3.017  0.8395  0.1060 -0.5588
13279TIP3    H161252   1.376   4.725   2.983  1.5520 -0.2906  0.6819
13279TIP3    H261253   1.334   4.865   2.942  1.7221 -0.8776 -1.5907
13280TIP3   OH261254   1.032   2.280  12.484 -0.2450 -0.0459  0.1539
13280TIP3    H161255   0.989   2.234  12.412  0.5909  2.7304 -2.2321
13280TIP3    H261256   1.122   2.248  12.483 -0.2682 -0.1073  0.0406
13281TIP3   OH261257   5.646   3.115  13.911 -0.2236  0.2253  0.3374
13281TIP3    H161258   5.706   3.128  13.837 -1.6618  0.6904 -0.7690
13281TIP3    H261259   5.672   3.181  13.975  0.6565  0.2064  0.0055
13282TIP3   OH261260   2.464   0.187  14.651 -0.3662 -0.1727  0.2812
13282TIP3    H161261   2.392   0.129  14.627 -1.8338  1.0639  1.6047
13282TIP3    H261262   2.463   0.256  14.585 -0.4344 -0.1150  0.3428
13283TIP3   OH261263   0.846   2.417  14.091  0.2689 -0.4903 -0.5451
13283TIP3    H161264   0.900   2.341  14.113 -0.2430 -0.9592 -0.8800
13283TIP3    H261265   0.770   2.380  14.046 -0.8557  0.0593  0.8381
13284TIP3   OH261266   4.521   0.549   5.004  0.3220 -0.0808  0.5757
13284TIP3    H161267   4.506   0.455   4.999  0.7659 -0.1349  0.2598
13284TIP3    H261268   4.523   0.568   5.098 -1.1257 -0.1643  0.6231
13285TIP3   OH261269   0.888   4.665  13.539  0.2612 -0.5820 -0.5574
13285TIP3    H161270   0.970   4.662  13.490 -0.0325  0.3128 -1.1232
13285TIP3    H261271   0.822   4.630  13.479  0.4251 -2.5105  0.3446
13286TIP3   OH261272   5.168   2.119  10.501 -0.6694 -0.1183  0.1708
13286TIP3    H161273   5.170   2.069  10.419 -2.9590 -0.6236  0.4057
13286TIP3    H261274   5.103   2.075  10.555 -0.3697  1.1922  1.6469
13287TIP3   OH261275   3.906   5.799  11.513 -0.6356  0.0207  0.1137
13287TIP3    H161276   3.958   5.864  11.466  3.2756 -1.0509  2.7422
13287TIP3    H261277   3.878   5.843  11.593 -2.1812 -0.0479 -0.3664
13288TIP3   OH261278   0.226   0.550  14.225 -0.4555  0.1595  0.0107
13288TIP3    H161279   0.252   0.457  14.231 -1.2883 -0.0906 -0.2131
13288TIP3    H261280   0.303   0.598  14.255  0.4419 -0.5533 -1.1333
13289TIP3   OH261281   3.699   4.325   6.243  0.2366  0.3000 -0.6438
13289TIP3    H161282   3.735   4.306   6.330 -0.8995  0.8930 -0.0279
13289TIP3    H261283   3.723   4.416   6.227 -1.2475  0.8171 -0.0705
13290TIP3   OH261284   3.419   2.300   1.732 -0.2021  0.3660 -0.1038
13290TIP3    H161285   3.334   2.329   1.765 -0.6836 -2.3306  1.1170
13290TIP3    H261286   3.428   2.345   1.648 -3.3782 -0.1640 -0.8124
13291TIP3   OH261287   4.345   1.468  16.164  0.3981  0.4726  0.2787
13291TIP3    H161288   4.310   1.423  16.241 -0.3719  1.0364  0.2752
13291TIP3    H261289   4.433   1.434  16.154 -0.4757 -1.7112 -0.2627
13292TIP3   OH261290   3.855   2.499   3.412 -0.6065  0.0648  0.5613
13292TIP3    H161291   3.808   2.480   3.493 -0.7925  1.9840  0.9131
13292TIP3    H261292   3.789   2.537   3.354 -0.4976 -1.3610 -0.5571
13293TIP3   OH261293   6.531   2.930   6.053  0.4735  0.2495  0.6988
13293TIP3    H161294   6.612   2.955   6.009  0.4343  1.0547  1.0829
13293TIP3    H261295   6.539   2.966   6.141 -1.1363  2.0589  0.1458
13294TIP3   OH261296   1.996   1.469   5.378  1.0371  0.2368 -1.0734
13294TIP3    H161297   1.914   1.466   5.428  0.5201 -0.2864 -1.9510
13294TIP3    H261298   2.032   1.556   5.398  1.7276 -0.6023  1.6106
13295TIP3   OH261299   5.343   2.591  13.996  0.1158  0.1820 -0.4300
13295TIP3    H161300   5.433   2.607  14.025 -0.5715  0.9828  1.3890
13295TIP3    H261301   5.302   2.546  14.070 -1.8408  2.6832  0.0989
13296TIP3   OH261302   1.895   3.425  14.011 -0.0366 -0.4742  0.3764
13296TIP3    H161303   1.900   3.343  14.060  0.8933 -1.7352 -1.7567
13296TIP3    H261304   1.921   3.401  13.922 -1.3557  1.8115 -0.6654
13297TIP3   OH261305   4.399   3.531   5.471  0.1239 -0.2244  0.3449
13297TIP3    H161306   4.408   3.436   5.461  0.9449  0.0341 -1.5255
13297TIP3    H261307   4.435   3.549   5.558  0.6120 -1.5493  0.4272
13298TIP3   OH261308   2.860   5.899  11.304 -0.0344 -0.2477  0.1959
13298TIP3    H161309   2.784   5.849  11.333  0.0238 -0.4591 -0.0241
13298TIP3    H261310   2.899   5.847  11.235  0.6347 -0.4060  0.6877
13299TIP3   OH261311   0.308   4.708  15.559 -0.1168  0.0354  0.1270
13299TIP3    H161312   0.327   4.681  15.469 -0.4034  0.2210  0.0085
13299TIP3    H261313   0.371   4.660  15.613 -0.2918 -0.4774 -0.1265
13300TIP3   OH261314   4.014   1.926   5.115  0.2224 -0.1718 -0.0609
13300TIP3    H161315   4.046   1.921   5.025  0.5521  1.1074 -0.0211
13300TIP3    H261316   3.946   1.859   5.120 -1.4276  1.3325 -1.9477
13301TIP3   OH261317   0.351   1.438   5.697 -0.4001 -0.6076 -0.4333
13301TIP3    H161318   0.330   1.350   5.730 -0.2137 -0.6494 -0.4282
13301TIP3    H261319   0.404   1.422   5.619 -0.1662 -0.4964 -0.2965
13302TIP3   OH261320   0.768   4.035   0.229  0.4211  0.4671  0.6619
13302TIP3    H161321   0.799   3.986   0.153  1.9418  1.3202  0.7127
13302TIP3    H261322   0.830   4.013   0.298 -1.5723 -1.1611  2.0059
13303TIP3   OH261323   5.405   4.569  16.683 -0.4863  0.3355 -1.2900
13303TIP3    H161324   5.475   4.532  16.630  0.2413  0.0791 -0.1665
13303TIP3    H261325   5.408   4.520  16.765 -1.2917  1.0382 -0.8275
13304TIP3   OH261326   2.375   4.212  16.352 -0.1512 -0.3816  0.8005
13304TIP3    H161327   2.352   4.272  16.422  2.0207 -0.1171  1.3408
13304TIP3    H261328   2.402   4.131  16.397 -0.3530 -0.7859  0.2091
13305TIP3   OH261329   4.732   2.772  14.178 -0.1510 -0.2155  0.3356
13305TIP3    H161330   4.657   2.825  14.204  0.9678  1.2609  0.6347
13305TIP3    H261331   4.732   2.699  14.240 -0.5781  0.4774  1.1728
13306TIP3   OH261332   6.556   2.675  11.238 -0.2474 -0.1753  0.4887
13306TIP3    H161333   6.531   2.618  11.165 -0.2508 -1.9126  1.7996
13306TIP3    H261334   6.648   2.695  11.222 -0.2436 -0.5540  0.0129
13307TIP3   OH261335   4.177   3.300  13.152 -0.2344 -0.2135  0.3614
13307TIP3    H161336   4.088   3.278  13.180 -0.8372  3.3919  1.5020
13307TIP3    H261337   4.223   3.320  13.233  0.8229  0.6128 -0.4281
13308TIP3   OH261338   4.646   5.317   0.201  0.3932  0.3695 -0.2896
13308TIP3    H161339   4.705   5.253   0.242 -0.1154 -1.1314 -1.8379
13308TIP3    H261340   4.705   5.385   0.167  0.9966  0.3570  0.6951
13309TIP3   OH261341   4.559   4.578  16.265 -0.0206  0.0497 -0.0643
13309TIP3    H161342   4.625   4.514  16.236 -1.2259 -1.9229  1.4289
13309TIP3    H261343   4.608   4.640  16.319  0.6034 -1.5916  1.3067
13310TIP3   OH261344   4.093   3.779  16.282  0.0854 -0.3627  0.1287
13310TIP3    H161345   4.120   3.693  16.316  0.6489 -0.3879 -0.3742
13310TIP3    H261346   4.020   3.805  16.338 -1.9591 -2.4641 -1.4874
13311TIP3   OH261347   4.923   2.613  12.957  0.2157  0.6306 -0.4099
13311TIP3    H161348   5.010   2.627  12.993  0.5252 -0.4345 -0.7332
13311TIP3    H261349   4.937   2.557  12.881 -0.3433  3.4865 -2.6968
13312TIP3   OH261350   0.204   1.509   5.983 -0.1039  0.2753  1.0117
13312TIP3    H161351   0.152   1.574   6.031 -1.1442 -1.8527  2.8376
13312TIP3    H261352   0.139   1.456   5.938  0.6723 -0.4068  0.7031
13313TIP3   OH261353   0.248   0.313   5.884  0.5160  0.2652  0.1258
13313TIP3    H161354   0.317   0.263   5.929 -0.3002 -1.9030 -0.9324
13313TIP3    H261355   0.294   0.357   5.812  1.0402 -0.0000  0.2927
13314TIP3   OH261356   5.391   3.534  14.868 -0.2764 -0.4784 -0.1914
13314TIP3    H161357   5.395   3.446  14.830  0.1698 -0.0734 -1.1057
13314TIP3    H261358   5.430   3.590  14.801  0.0884  0.3186  0.6767
13315TIP3   OH261359   0.795   4.273  15.688 -0.2513 -0.2118  0.1291
13315TIP3    H161360   0.817   4.304  15.776 -0.1856  0.1165 -0.0018
13315TIP3    H261361   0.793   4.352  15.634 -1.6601 -0.2442  0.1155
13316TIP3   OH261362   3.410   0.863  14.520 -0.2154 -0.2122  0.6338
13316TIP3    H161363   3.317   0.856  14.541 -0.2116  0.9323  1.0786
13316TIP3    H261364   3.415   0.851  14.426 -0.6375 -1.8226  0.7969
13317TIP3   OH261365   5.997   5.935  10.918 -0.4780 -0.4983  0.1604
13317TIP3    H161366   5.906   5.904  10.917 -0.8070  0.4488 -0.7465
13317TIP3    H261367   6.049   5.855  10.924 -1.3604 -1.0859  0.1650
13318TIP3   OH261368   3.672   3.180   3.100 -0.2322 -0.5563 -0.1875
13318TIP3    H161369   3.665   3.272   3.128  1.6168 -0.1194 -1.0408
13318TIP3    H261370   3.627   3.178   3.016  0.4581 -0.2343 -0.5676
13319TIP3   OH261371   2.011   5.707  16.788  0.1632 -0.3889 -0.1458
13319TIP3    H161372   2.001   5.648  16.713  2.1914 -3.0127  1.5296
13319TIP3    H261373   1.930   5.696  16.838 -0.3629 -0.1587 -0.9603
13320TIP3   OH261374   0.568   6.565  17.072  0.3166  0.0609  0.1041
13320TIP3    H161375   0.623   6.544  16.997  1.2147  1.9082  0.2400
13320TIP3    H261376   0.528   6.649  17.050  0.6739  0.6659  1.7473
13321TIP3   OH261377   4.575   3.475   4.386 -0.2564 -0.4111  0.3256
13321TIP3    H161378   4.545   3.559   4.421  1.5214  0.9440 -1.2757
13321TIP3    H261379   4.621   3.498   4.305  2.2900 -2.6837  1.0436
13322TIP3   OH261380   0.086   0.827  15.205 -0.3824 -0.4381  0.3285
13322TIP3    H161381   0.154   0.761  15.220 -0.1006 -0.0154  0.9121
13322TIP3    H261382   0.059   0.813  15.114  1.5708  0.4171 -0.4012
13323TIP3   OH261383   6.497   1.175   2.789  0.2110 -0.6951  0.3810
13323TIP3    H161384   6.528   1.195   2.877 -0.8862 -1.1875  0.8986
13323TIP3    H261385   6.534   1.088   2.770 -1.5039 -1.6702  1.3447
13324TIP3   OH261386   3.882   2.346  13.049  0.3660  0.3657  0.0275
13324TIP3    H161387   3.831   2.317  13.124 -0.0512 -0.6282 -0.6298
13324TIP3    H261388   3.895   2.266  12.997  3.9128  0.2654  0.9525
13325TIP3   OH261389   1.574   5.252   3.373  0.2982  0.2968 -0.4493
13325TIP3    H161390   1.598   5.331   3.422 -0.2332  0.0488  0.2260
13325TIP3    H261391   1.501   5.215   3.423  0.0307 -0.1928 -1.2040
13326TIP3   OH261392   1.602   5.321  10.668 -0.1556 -0.0518 -0.1778
13326TIP3    H161393   1.565   5.364  10.745 -1.9140 -0.4161 -0.8118
13326TIP3    H261394   1.644   5.392  10.619  1.0690  0.1617  1.1535
13327TIP3   OH261395   1.169   2.503   0.235 -0.4034 -0.1849  0.1417
13327TIP3    H161396   1.213   2.568   0.180  0.7308 -1.2238 -0.2054
13327TIP3    H261397   1.118   2.555   0.297  0.0951  1.0293 -0.4388
13328TIP3   OH261398   5.256   6.069   5.850 -0.0216 -0.1600  0.0231
13328TIP3    H161399   5.304   6.031   5.777  0.8657 -1.1107  1.0905
13328TIP3    H261400   5.265   6.005   5.921 -0.6245  0.8818  1.0578
13329TIP3   OH261401   3.446   5.610   0.813  0.2251 -0.2159  0.7402
13329TIP3    H161402   3.370   5.616   0.755  0.2425 -2.3378  0.4586
13329TIP3    H261403   3.492   5.693   0.801 -0.5071 -0.0715 -1.2751
13330TIP3   OH261404   1.006   0.647  16.081  0.1054  0.2713  0.0748
13330TIP3    H161405   0.951   0.723  16.062  0.1108  0.5339  1.0809
13330TIP3    H261406   0.954   0.572  16.050 -0.2156  0.6293 -0.2551
13331TIP3   OH261407   2.015   1.564   2.038 -0.5359 -0.4883 -0.4715
13331TIP3    H161408   2.000   1.653   2.006  0.1035  0.1555  0.9561
13331TIP3    H261409   2.102   1.541   2.004  0.8807  0.8390  2.1204
13332TIP3   OH261410   5.961   0.870  15.425  0.4996 -0.6120  0.2321
13332TIP3    H161411   6.010   0.794  15.457 -0.2132 -0.1243  2.6465
13332TIP3    H261412   5.894   0.885  15.492  1.5884  3.0473  0.6674
13333TIP3   OH261413   3.905   4.530  12.139 -0.1863  0.0272 -0.6835
13333TIP3    H161414   3.972   4.522  12.206  1.8341 -0.5612 -2.7044
13333TIP3    H261415   3.950   4.572  12.065 -2.1540 -0.0198 -1.9444
13334TIP3   OH261416   0.281   0.974   4.421 -0.6577 -0.2694  0.4044
13334TIP3    H161417   0.279   0.939   4.332 -0.5141 -0.0150  0.3013
13334TIP3    H261418   0.369   0.955   4.452 -0.7309 -0.4227  0.5195
13335TIP3   OH261419   3.443   4.692  15.718 -0.7645 -0.0374 -0.1454
13335TIP3    H161420   3.423   4.704  15.626  1.2880 -0.5898 -0.6929
13335TIP3    H261421   3.411   4.604  15.739 -0.0225 -0.4395 -0.6868
13336TIP3   OH261422   1.972   1.604  15.761 -0.2411  0.0609  0.0643
13336TIP3    H161423   2.011   1.547  15.695 -1.4674  0.9848 -1.5195
13336TIP3    H261424   1.986   1.559  15.844  2.5601 -0.4837 -0.6535
13337TIP3   OH261425   5.342   2.155  13.192 -0.4412  0.1672 -0.1830
13337TIP3    H161426   5.399   2.226  13.221 -2.3088  2.5154 -2.0116
13337TIP3    H261427   5.392   2.109  13.124  0.9587 -0.6015  1.3353
13338TIP3   OH261428   0.512   5.371   4.532  0.5812 -0.6312 -0.6301
13338TIP3    H161429   0.486   5.405   4.446 -1.6910 -1.5986 -0.3603
13338TIP3    H261430   0.571   5.438   4.567 -0.6218  1.1114 -1.7978
13339TIP3   OH261431   4.937   5.118  12.957  0.0804  0.6724  0.0501
13339TIP3    H161432   5.027   5.152  12.952  0.5444 -0.5154  0.0548
13339TIP3    H261433   4.927   5.067  12.876 -0.2585 -0.0093  0.5251
13340TIP3   OH261434   3.878   4.637  15.238  0.4610  0.3747  0.4565
13340TIP3    H161435   3.937   4.705  15.204  0.6707  0.0715  0.2056
13340TIP3    H261436   3.791   4.664  15.210  0.4032  1.1641  1.3826
13341TIP3   OH261437   4.481   6.472  11.771 -0.4204  0.2116 -0.5096
13341TIP3    H161438   4.515   6.494  11.857  0.2334 -1.4085 -0.3256
13341TIP3    H261439   4.400   6.523  11.763  0.4411  1.7439  0.3034
13342TIP3   OH261440   4.068   5.644   0.238 -0.9000 -0.3316 -0.0720
13342TIP3    H161441   4.013   5.679   0.168  0.1988  0.4939 -0.5495
13342TIP3    H261442   4.150   5.694   0.231  0.5633 -2.7143 -0.5120
13343TIP3   OH261443   2.064   3.554   1.001 -0.1037 -0.8604 -0.2122
13343TIP3    H161444   2.096   3.535   1.090 -1.3120 -1.2656  0.1453
13343TIP3    H261445   2.108   3.489   0.946  1.1232 -0.2197 -0.0142
13344TIP3   OH261446   1.025   5.483  12.227 -0.6344  0.6108 -0.0596
13344TIP3    H161447   1.042   5.526  12.310 -2.2530  0.2215  0.4921
13344TIP3    H261448   0.947   5.430  12.243 -2.5727  2.5984 -2.5605
13345TIP3   OH261449   0.099   1.697  11.392  0.0225  0.2967 -0.6751
13345TIP3    H161450   0.065   1.702  11.303 -0.1511 -2.0521 -0.7714
13345TIP3    H261451   0.142   1.612  11.396 -0.4434  0.1566  1.6630
13346TIP3   OH261452   0.841   0.376  16.030  0.2443  0.5309 -0.3960
13346TIP3    H161453   0.789   0.301  16.001  0.3679  0.6981 -1.0538
13346TIP3    H261454   0.804   0.400  16.115 -1.2761  1.1362 -1.2099
13347TIP3   OH261455   5.308   3.311  12.633 -0.5324 -0.2182  0.0503
13347TIP3    H161456   5.360   3.386  12.603 -1.8572 -0.0755 -2.0483
13347TIP3    H261457   5.225   3.349  12.661 -0.3283 -0.6720  1.3061
13348TIP3   OH261458   1.553   0.638   3.770  0.1833  0.1044 -0.1989
13348TIP3    H161459   1.589   0.613   3.684  0.6129  1.1695 -0.3368
13348TIP3    H261460   1.460   0.652   3.754  0.1099 -0.4838 -0.3148
13349TIP3   OH261461   6.078   3.850   2.920  0.4400 -0.2828  0.3584
13349TIP3    H161462   6.031   3.849   2.837  1.1123 -1.2171 -0.0292
13349TIP3    H261463   6.130   3.931   2.918  0.6831 -0.4559 -0.2666
13350TIP3   OH261464   3.125   2.032  11.513 -0.6298 -1.0345  0.2042
13350TIP3    H161465   3.158   1.962  11.569 -2.5858 -2.4889 -0.4367
13350TIP3    H261466   3.046   2.063  11.558 -0.1473  0.3275  0.1456
13351TIP3   OH261467   5.739   2.603  14.865 -0.3061 -0.8792  0.4497
13351TIP3    H161468   5.823   2.596  14.819  0.0356 -0.1896  0.9673
13351TIP3    H261469   5.677   2.627  14.796 -0.2378 -2.1924 -0.0875
13352TIP3   OH261470   6.749   2.902  14.303  0.7128  0.0843  0.1512
13352TIP3    H161471   6.818   2.961  14.335 -0.0327  1.4425 -0.7128
13352TIP3    H261472   6.681   2.960  14.271 -0.3860 -1.2610  0.0027
13353TIP3   OH261473   0.004   3.762  10.676 -0.2916 -0.1634 -0.0947
13353TIP3    H161474   0.031   3.786  10.765 -0.5991  2.1281 -0.5856
13353TIP3    H261475  -0.091   3.760  10.679 -0.2918 -0.4532 -0.2741
13354TIP3   OH261476   4.934   6.553   5.581  0.4863 -0.4050 -0.3727
13354TIP3    H161477   4.981   6.511   5.653 -0.3292  0.4460  0.6576
13354TIP3    H261478   4.993   6.543   5.506  0.6677 -2.6686  0.0341
13355TIP3   OH261479   2.654   2.457  14.009 -0.1086 -0.8616 -0.1288
13355TIP3    H161480   2.660   2.368  14.042 -1.4041 -0.9614 -0.1149
13355TIP3    H261481   2.710   2.508  14.067  0.7222 -1.6774 -0.2043
13356TIP3   OH261482   3.941   6.537  11.182 -0.2888  0.1083 -0.8775
13356TIP3    H161483   3.951   6.629  11.205  0.9481 -0.0943 -0.5778
13356TIP3    H261484   3.991   6.527  11.100  0.4136 -0.5099 -0.3772
13357TIP3   OH261485   5.151   6.238   5.447  0.0116 -0.2762  0.1887
13357TIP3    H161486   5.055   6.242   5.456 -0.0355 -0.2910 -0.2680
13357TIP3    H261487   5.169   6.148   5.420 -0.0161  0.2010 -1.5302
13358TIP3   OH261488   5.121   3.778  14.761  0.0608  0.6825  0.4444
13358TIP3    H161489   5.083   3.691  14.749  0.2425  0.8260 -1.2933
13358TIP3    H261490   5.074   3.833  14.698  1.6076  1.3253 -0.1726
13359TIP3   OH261491   5.440   2.225   5.429 -0.3352 -0.5926  0.9640
13359TIP3    H161492   5.375   2.197   5.365  0.1527  1.4674 -0.4942
13359TIP3    H261493   5.508   2.268   5.377  0.3770  0.5677  2.8034
13360TIP3   OH261494   4.240   6.694  13.330  0.7744  0.3814 -0.5592
13360TIP3    H161495   4.219   6.779  13.291 -0.5309 -0.1128 -0.9591
13360TIP3    H261496   4.269   6.640  13.257 -0.1210 -0.0548 -0.6000
13361TIP3   OH261497   0.723   1.116   5.044  0.2059  0.8640 -0.2805
13361TIP3    H161498   0.819   1.113   5.036  0.1702 -0.7615 -0.3211
13361TIP3    H261499   0.707   1.185   5.107  1.3021  2.5624 -1.7931
13362TIP3   OH261500   4.632   1.111  12.788  0.3334 -0.8361  0.0889
13362TIP3    H161501   4.681   1.153  12.718  0.6341 -1.9290 -0.3547
13362TIP3    H261502   4.699   1.070  12.843  0.2499  1.4925  2.0240
13363TIP3   OH261503   3.714   6.531  16.976 -0.3941  0.7376  0.2797
13363TIP3    H161504   3.692   6.619  17.007  2.7812  1.2111  1.4119
13363TIP3    H261505   3.785   6.545  16.913 -0.6553 -0.9391 -0.4127
13364TIP3   OH261506   5.027   6.268  16.821  0.6512  0.1979 -0.4773
13364TIP3    H161507   5.113   6.277  16.861  1.2424  0.4283 -1.7805
13364TIP3    H261508   4.995   6.183  16.852  1.8625 -0.4407 -0.9712
13365TIP3   OH261509   1.968   2.285   0.052  0.3030  0.5708  0.1747
13365TIP3    H161510   1.974   2.210  -0.007 -1.7025 -1.5747  2.6051
13365TIP3    H261511   2.046   2.337   0.032  0.1661 -0.5310 -3.6806
13366TIP3   OH261512   0.222   6.281  16.684  0.0691  0.0038  0.0672
13366TIP3    H161513   0.297   6.312  16.735  0.5652  0.5304 -0.9704
13366TIP3    H261514   0.224   6.334  16.604 -0.4593 -1.0939 -0.6774
13367TIP3   OH261515   4.239   4.542   5.120  0.0601 -0.1250 -0.2766
13367TIP3    H161516   4.153   4.574   5.092  0.2729  1.9042  1.2143
13367TIP3    H261517   4.300   4.579   5.056 -0.1228 -1.1977 -1.0785
13368TIP3   OH261518   5.515   5.881   0.312 -0.3516  0.7548  0.0016
13368TIP3    H161519   5.434   5.852   0.270 -0.5028  2.1538 -0.6840
13368TIP3    H261520   5.585   5.838   0.261 -0.6197  0.4862 -0.1392
13369TIP3   OH261521   2.025   0.585   4.169  0.0474 -0.5713  0.5442
13369TIP3    H161522   2.058   0.521   4.105 -3.3163 -0.1890 -1.7193
13369TIP3    H261523   1.993   0.531   4.242 -0.4193 -1.3356 -0.2118
13370TIP3   OH261524   3.366   0.773   1.307 -0.5170  0.3503 -0.3641
13370TIP3    H161525   3.424   0.747   1.235  0.3930 -1.6549  1.0486
13370TIP3    H261526   3.417   0.838   1.356  1.0365 -2.1571  1.4675
13371TIP3   OH261527   0.838   6.490   0.868  0.1784 -0.4663  0.1866
13371TIP3    H161528   0.746   6.482   0.891  0.1030 -1.4767 -0.4341
13371TIP3    H261529   0.866   6.573   0.907 -1.0863  0.0279  0.0582
13372TIP3   OH261530   0.738   3.041   3.895 -0.0095  0.5329  0.2161
13372TIP3    H161531   0.785   3.009   3.817  1.2502  0.5064  0.9756
13372TIP3    H261532   0.692   2.964   3.928 -0.7018  0.5820 -0.5968
13373TIP3   OH261533   0.942   2.166  12.732 -0.2589 -0.3526  0.1397
13373TIP3    H161534   0.948   2.212  12.648 -1.1315  2.9834  1.8023
13373TIP3    H261535   1.024   2.187  12.776 -0.0527 -1.6020  0.3434
13374TIP3   OH261536   6.343   4.032   4.475  0.0290  0.2501  0.8159
13374TIP3    H161537   6.367   4.122   4.449  0.5953 -0.0879  0.1437
13374TIP3    H261538   6.258   4.018   4.434 -0.4169  0.7487  1.5559
13375TIP3   OH261539   2.569   4.580  10.813 -0.2916 -0.4203 -0.3022
13375TIP3    H161540   2.520   4.612  10.737 -1.1431  0.3402  0.5527
13375TIP3    H261541   2.618   4.657  10.843  1.5699 -1.2299 -1.2634
13376TIP3   OH261542   1.371   4.350   0.720 -0.0780 -0.2336 -0.1457
13376TIP3    H161543   1.305   4.338   0.651  0.0107 -0.7592 -0.1382
13376TIP3    H261544   1.353   4.280   0.782 -1.2823  1.2687  1.2676
13377TIP3   OH261545   0.011   2.675   1.365  0.3411  0.9319  0.1329
13377TIP3    H161546   0.002   2.764   1.331 -1.3119  0.0832 -1.7743
13377TIP3    H261547   0.018   2.621   1.287 -0.5033 -0.7970  1.2227
13378TIP3   OH261548   1.679   0.387   4.305  0.0641  0.7622 -0.1010
13378TIP3    H161549   1.774   0.383   4.321  0.3803  0.9428 -1.8857
13378TIP3    H261550   1.659   0.480   4.302 -0.7746  0.7905  3.5270
13379TIP3   OH261551   2.835   2.568   4.446 -0.1846 -0.1874  0.2028
13379TIP3    H161552   2.762   2.630   4.454  0.2273  0.2255  0.7287
13379TIP3    H261553   2.898   2.612   4.390 -1.4240 -1.5616 -2.3985
13380TIP3   OH261554   4.062   0.405   4.730  0.3911  0.0136 -0.3592
13380TIP3    H161555   4.138   0.462   4.743 -1.0311  1.2030  3.3950
13380TIP3    H261556   3.990   0.465   4.712 -0.0648 -1.0010 -2.0220
13381TIP3   OH261557   3.796   6.546   1.275 -0.3582 -0.1692 -0.6248
13381TIP3    H161558   3.737   6.590   1.336 -1.7290 -1.7658 -0.7438
13381TIP3    H261559   3.741   6.527   1.199  0.7888 -0.0852 -1.4735
13382TIP3   OH261560   0.958   5.022   3.486 -0.8462 -0.1338  0.2540
13382TIP3    H161561   1.016   5.097   3.471 -1.6592  0.6596  0.9991
13382TIP3    H261562   1.017   4.950   3.507 -0.0813  0.4313  0.0751
13383TIP3   OH261563   0.253   6.188  14.761 -0.1039 -0.1458  0.0414
13383TIP3    H161564   0.260   6.210  14.854  0.1794 -1.1524  0.2605
13383TIP3    H261565   0.315   6.246  14.717 -1.2172  1.2890  0.3188
13384TIP3   OH261566   5.250   5.742   0.264 -0.5869  0.3919 -0.2566
13384TIP3    H161567   5.224   5.666   0.212  0.9584  0.5302 -1.2814
13384TIP3    H261568   5.233   5.716   0.354 -0.7253 -0.9259 -0.6430
13385TIP3   OH261569   2.039   3.944  16.514 -0.5389 -1.2415 -0.4043
13385TIP3    H161570   2.028   4.008  16.584 -1.5858  0.0099 -1.6781
13385TIP3    H261571   1.950   3.922  16.487 -0.1952 -3.0901 -0.1457
13386TIP3   OH261572   2.463   0.489   4.616  0.2729 -0.6244  0.0543
13386TIP3    H161573   2.523   0.414   4.620 -0.3297 -1.0703  1.0506
13386TIP3    H261574   2.468   0.528   4.704 -0.5666 -0.4047  0.0073
13387TIP3   OH261575   2.651   3.618  11.832 -0.1684  0.4243 -0.2049
13387TIP3    H161576   2.661   3.699  11.882  1.4817 -0.7733  1.4912
13387TIP3    H261577   2.597   3.562  11.889  0.5765 -0.4660 -0.3743
13388TIP3   OH261578   3.636   4.239   5.226  0.4195  0.6477 -0.1889
13388TIP3    H161579   3.636   4.179   5.301 -1.0517  1.2522  0.2979
13388TIP3    H261580   3.729   4.253   5.207  0.8392 -2.7469 -1.0919
13389TIP3   OH261581   4.694   0.882  16.519  0.0632  0.0991 -0.0947
13389TIP3    H161582   4.720   0.791  16.530  1.0323  0.3967  0.1559
13389TIP3    H261583   4.758   0.919  16.459  0.9354  1.1348  1.4188
13390TIP3   OH261584   2.525   5.251  12.755 -0.6531 -0.0721  0.6742
13390TIP3    H161585   2.526   5.156  12.744  1.4937 -0.0721  0.6684
13390TIP3    H261586   2.447   5.280  12.707  0.0056 -1.5889 -1.3994
13391TIP3   OH261587   3.392   1.334  10.741 -0.4748  0.3308 -0.1307
13391TIP3    H161588   3.346   1.253  10.719 -2.2027  1.0411  0.7015
13391TIP3    H261589   3.352   1.400  10.685  0.4815  0.7318 -0.3477
13392TIP3   OH261590   3.410   6.775  10.766 -0.0970 -0.2496 -0.1441
13392TIP3    H161591   3.473   6.762  10.695 -0.9908  1.2952 -1.2570
13392TIP3    H261592   3.357   6.850  10.738 -0.7820  0.0812  1.9424
13393TIP3   OH261593   4.624   5.553  13.086  0.6791  0.5526  0.4409
13393TIP3    H161594   4.716   5.552  13.114  0.7468  1.4968  0.2728
13393TIP3    H261595   4.582   5.486  13.139  1.3587  0.4880  0.9042
13394TIP3   OH261596   3.397   5.587   5.239 -0.1675  0.0736 -0.3532
13394TIP3    H161597   3.393   5.582   5.335 -1.7721  0.0406 -0.3978
13394TIP3    H261598   3.487   5.610   5.220  0.3952 -0.7635  1.1350
13395TIP3   OH261599   4.583   2.313   2.388 -0.1691  0.2110  0.7307
13395TIP3    H161600   4.608   2.388   2.334  0.5313  0.0135  0.7761
13395TIP3    H261601   4.603   2.341   2.478  1.0986 -0.4183  0.6562
13396TIP3   OH261602   1.457   3.783  11.191  0.0004  0.0790 -0.0300
13396TIP3    H161603   1.394   3.713  11.170 -0.5637  0.4718  0.3479
13396TIP3    H261604   1.491   3.810  11.106  0.0877 -0.5349 -0.1940
13397TIP3   OH261605   2.874   5.249   4.523 -0.4313  0.0833 -0.6815
13397TIP3    H161606   2.800   5.254   4.583 -0.7489  2.7051 -1.2262
13397TIP3    H261607   2.842   5.287   4.441  1.3131  0.7006 -1.1146
13398TIP3   OH261608   0.208   5.634  15.140 -0.0841  0.2096 -0.4726
13398TIP3    H161609   0.163   5.623  15.224 -0.4518  1.8656 -0.4375
13398TIP3    H261610   0.300   5.648  15.164 -0.4392  2.3162 -0.2282
13399TIP3   OH261611   1.645   6.026   3.967  0.2371 -0.3649  0.7127
13399TIP3    H161612   1.723   6.010   4.021  0.7172 -0.5204 -0.0176
13399TIP3    H261613   1.578   5.970   4.004  0.1097  0.6952  2.1370
13400TIP3   OH261614   0.199   5.523   3.169 -0.3274 -0.3443 -0.0304
13400TIP3    H161615   0.151   5.470   3.233 -0.4959  0.0322  0.1631
13400TIP3    H261616   0.130   5.569   3.121 -0.1361  0.9187  0.8763
13401TIP3   OH261617   2.709   0.066   4.771  0.6474  0.5509  0.3164
13401TIP3    H161618   2.708   0.014   4.852  1.5250 -0.0872 -0.0725
13401TIP3    H261619   2.686   0.003   4.702  1.8146  0.6407 -0.1720
13402TIP3   OH261620   1.456   4.050  16.809  0.2511  0.3854 -0.1001
13402TIP3    H161621   1.414   4.135  16.801  0.1653  0.2569 -1.0503
13402TIP3    H261622   1.384   3.987  16.803  0.1904  0.2661  1.6130
13403TIP3   OH261623   0.799   3.178   5.933  0.1474 -0.5621  0.6838
13403TIP3    H161624   0.719   3.134   5.905 -0.6281  1.6428 -0.7910
13403TIP3    H261625   0.821   3.140   6.018 -0.8704 -3.1914 -0.1958
13404TIP3   OH261626   5.473   5.068  14.611 -0.5149 -0.3723 -0.2252
13404TIP3    H161627   5.430   4.996  14.564  0.1969  0.7703 -2.7399
13404TIP3    H261628   5.547   5.092  14.555  0.0539  1.4268  1.2463
13405TIP3   OH261629   5.698   3.293   0.509  0.2928  0.2157  0.4505
13405TIP3    H161630   5.745   3.368   0.473  0.8071 -0.3986 -0.1735
13405TIP3    H261631   5.704   3.304   0.603  2.0128 -0.0330  0.3939
13406TIP3   OH261632   0.416   2.657  15.885 -0.0940 -0.4971 -0.4276
13406TIP3    H161633   0.508   2.684  15.885  0.4291 -2.2433  0.4488
13406TIP3    H261634   0.387   2.671  15.975  0.5430 -3.9273  0.3843
13407TIP3   OH261635   0.575   3.584   4.245 -0.4865  0.3363  0.0879
13407TIP3    H161636   0.616   3.563   4.160 -0.3037  0.8422  0.0470
13407TIP3    H261637   0.606   3.673   4.265 -0.6442  0.2726  0.6179
13408TIP3   OH261638   0.961   3.221  15.557 -0.1760 -0.0000 -0.6262
13408TIP3    H161639   0.989   3.281  15.627  0.6209 -1.5322  0.3964
13408TIP3    H261640   0.907   3.156  15.602  0.0833 -0.8225 -1.4921
13409TIP3   OH261641   2.342   0.125  10.982 -0.7294 -0.0309  0.1539
13409TIP3    H161642   2.362   0.206  10.936  0.1627  0.4575  1.3895
13409TIP3    H261643   2.253   0.137  11.015 -1.4869 -0.4921 -1.6384
13410TIP3   OH261644   0.089   6.502   1.063 -0.4546  0.3581 -0.2980
13410TIP3    H161645   0.112   6.454   0.983 -0.4288 -1.7402  0.9192
13410TIP3    H261646   0.089   6.594   1.037 -0.7050 -0.3015 -2.7708
13411TIP3   OH261647   2.820   5.588   1.716  0.4408  0.4487 -0.0465
13411TIP3    H161648   2.862   5.517   1.667 -0.0621  0.7272 -0.9011
13411TIP3    H261649   2.890   5.651   1.731  0.2799  1.0578 -1.7435
13412TIP3   OH261650   0.632   4.531   7.128 -0.8680 -0.3173  0.3249
13412TIP3    H161651   0.581   4.610   7.111 -0.0947  0.5776  2.0341
13412TIP3    H261652   0.712   4.542   7.075 -0.7429  0.0693  0.5951
13413TIP3   OH261653   1.232   5.953  13.385 -0.0024 -0.3813  0.0491
13413TIP3    H161654   1.305   5.995  13.339 -0.5761  0.1600 -0.3594
13413TIP3    H261655   1.220   6.007  13.464 -0.6671  0.1590 -0.4207
13414TIP3   OH261656   4.808   4.366   5.300  0.4757  0.1588  0.1059
13414TIP3    H161657   4.848   4.414   5.228  0.6629  0.2079  0.2428
13414TIP3    H261658   4.816   4.424   5.376 -0.9989  0.7121 -0.1426
13415TIP3   OH261659   0.682   5.355   5.363  0.0706  0.2230  0.0058
13415TIP3    H161660   0.591   5.349   5.334 -0.0119 -0.9113  0.4451
13415TIP3    H261661   0.727   5.401   5.293 -1.2245  2.5780  0.6753
13416TIP3   OH261662   3.764   2.286  16.323  0.3082  0.7062  0.5951
13416TIP3    H161663   3.839   2.236  16.353 -0.1091 -0.9587 -1.0436
13416TIP3    H261664   3.734   2.334  16.400  2.5409  0.7611  1.4613
13417TIP3   OH261665   0.109   0.285   6.456  0.1833 -0.4784 -0.1232
13417TIP3    H161666   0.152   0.333   6.526 -0.2916 -0.1942 -0.0182
13417TIP3    H261667   0.175   0.278   6.387  0.1003  0.7734 -0.3348
13418TIP3   OH261668   3.349   1.981  11.760  0.3244 -0.0675  0.1115
13418TIP3    H161669   3.408   1.966  11.834 -1.5379  0.9455  1.8766
13418TIP3    H261670   3.365   1.909  11.700 -0.4381 -2.7758  3.0665
13419TIP3   OH261671   1.934   5.125   6.358 -1.1240 -0.1818 -0.0738
13419TIP3    H161672   1.951   5.056   6.423 -0.2870  0.4224  0.3528
13419TIP3    H261673   2.020   5.151   6.327 -1.2934  2.0341  1.1966
13420TIP3   OH261674   5.668   0.203   0.341  0.3152 -0.5885  0.2673
13420TIP3    H161675   5.660   0.276   0.403  2.0688  0.7768 -1.0466
13420TIP3    H261676   5.607   0.224   0.271  0.1567 -0.8636  0.3211
13421TIP3   OH261677   5.651   3.997   4.201  0.5060  0.2470  0.1940
13421TIP3    H161678   5.621   3.939   4.131 -0.4388  0.6624  0.2373
13421TIP3    H261679   5.592   3.978   4.274  0.4992  0.9109  0.3656
13422TIP3   OH261680   1.072   5.739   5.078  0.5365  0.1031 -0.5120
13422TIP3    H161681   1.040   5.791   5.004  0.9024  1.0322 -0.0285
13422TIP3    H261682   1.089   5.804   5.147  0.0540 -0.7661  0.4382
13423TIP3   OH261683   5.898   0.170  17.233  0.1009  0.2884  0.1876
13423TIP3    H161684   5.881   0.246  17.288 -3.5375 -0.4423  0.1749
13423TIP3    H261685   5.858   0.192  17.149  2.4798 -0.0759 -1.0823
13424TIP3   OH261686   1.201   0.653  15.536  0.2838 -0.3424 -0.3898
13424TIP3    H161687   1.128   0.699  15.494 -0.5254  0.1836  1.4919
13424TIP3    H261688   1.195   0.680  15.628  1.7305 -1.7638  0.1378
13425TIP3   OH261689   0.152   3.036  16.332 -0.4966  0.3304  0.0242
13425TIP3    H161690   0.153   2.963  16.270 -1.5808  2.0827 -2.0756
13425TIP3    H261691   0.060   3.057  16.343 -0.1242  2.1792 -0.3205
13426TIP3   OH261692   6.754   3.671  15.891 -0.1978 -0.7654  0.2076
13426TIP3    H161693   6.834   3.626  15.919 -0.0919 -1.1445 -0.6817
13426TIP3    H261694   6.785   3.738  15.830 -0.3648  0.4742  1.4616
13427TIP3   OH261695   1.176   3.808   4.876  0.0063 -0.0595  0.1585
13427TIP3    H161696   1.245   3.768   4.929  0.1224  0.5924  0.5124
13427TIP3    H261697   1.101   3.816   4.936 -0.1435 -0.1109 -0.0208
13428TIP3   OH261698   2.994   0.661  16.878  0.8716  0.3129 -0.2269
13428TIP3    H161699   3.031   0.672  16.791 -0.9316  1.5464 -0.8675
13428TIP3    H261700   2.966   0.748  16.904  0.6149 -0.1852  1.2399
13429TIP3   OH261701   4.363   1.333   4.880  0.5260 -0.2316  0.0366
13429TIP3    H161702   4.432   1.287   4.929 -0.6250 -1.6660  0.3664
13429TIP3    H261703   4.332   1.401   4.941  0.5197 -0.6649  0.5258
13430TIP3   OH261704   1.921   3.033  16.888 -0.4772 -0.1648 -0.1294
13430TIP3    H161705   1.908   3.063  16.798  2.4024  0.0301 -0.5169
13430TIP3    H261706   1.985   2.962  16.881  1.2358  1.1046  1.9323
13431TIP3   OH261707   5.512   6.276  14.885 -0.9817  0.0521  0.0083
13431TIP3    H161708   5.474   6.316  14.807 -1.7846 -2.2841 -0.8495
13431TIP3    H261709   5.488   6.183  14.878  0.8603 -0.5980  1.8824
13432TIP3   OH261710   4.922   5.530  11.927 -0.1619 -0.8428 -0.1344
13432TIP3    H161711   4.901   5.582  12.004 -0.0378 -0.2959 -0.4629
13432TIP3    H261712   4.986   5.466  11.957 -0.0754 -0.5979  0.1990
13433TIP3   OH261713   5.165   2.967  15.040  0.2212  0.6539  0.3106
13433TIP3    H161714   5.232   2.926  15.093  0.2369  0.9439  0.5166
13433TIP3    H261715   5.176   3.061  15.056 -0.2997  0.6977  0.4258
13434TIP3   OH261716   2.873   3.019  12.072 -0.0695 -0.4774 -0.0018
13434TIP3    H161717   2.896   3.111  12.063 -2.6387  0.1592 -0.4170
13434TIP3    H261718   2.855   3.008  12.166  0.3308 -0.5882  0.0638
13435TIP3   OH261719   4.661   2.504   0.172  0.4563 -0.4130  0.8815
13435TIP3    H161720   4.722   2.431   0.177  0.9411 -0.1281 -0.5687
13435TIP3    H261721   4.712   2.580   0.199  0.2656 -0.4475  1.3294
13436TIP3   OH261722   1.405   3.634   5.411 -0.1043 -0.1358 -0.3547
13436TIP3    H161723   1.400   3.635   5.507 -1.3512  0.0195 -0.4038
13436TIP3    H261724   1.467   3.564   5.390  0.5496  0.1634  0.5769
13437TIP3   OH261725   5.478   0.685  14.429  0.2980 -0.1301  0.6485
13437TIP3    H161726   5.434   0.689  14.514  0.1729 -0.2180  0.5890
13437TIP3    H261727   5.525   0.602  14.429  1.7045  0.6492  1.3150
13438TIP3   OH261728   2.521   4.844  10.460  0.1211  0.0610 -0.0033
13438TIP3    H161729   2.607   4.858  10.498 -0.1812 -0.2183  0.7963
13438TIP3    H261730   2.470   4.803  10.530 -0.8085  0.6933 -0.2975
13439TIP3   OH261731   5.475   1.687   4.034 -0.3590 -0.8011  0.1379
13439TIP3    H161732   5.508   1.658   3.949  0.6833  1.5496 -0.3106
13439TIP3    H261733   5.391   1.727   4.014 -0.8353 -1.6342  0.4527
13440TIP3   OH261734   3.622   1.373   2.998  0.0737  0.6610  0.1627
13440TIP3    H161735   3.701   1.328   2.969  0.3578  0.5624  1.0758
13440TIP3    H261736   3.551   1.330   2.950  0.5822  0.8625 -0.7850
13441TIP3   OH261737   4.230   0.691  13.249 -0.1925  0.0811 -0.1140
13441TIP3    H161738   4.300   0.647  13.202  1.6887  2.4957  0.3653
13441TIP3    H261739   4.156   0.691  13.188  1.5284  1.2248 -2.2364
13442TIP3   OH261740   6.362   6.606  12.766 -0.2261 -0.4988  0.2507
13442TIP3    H161741   6.300   6.537  12.741 -0.4673 -0.9382  1.9671
13442TIP3    H261742   6.448   6.567  12.753 -0.3556 -0.8654  0.4631
13443TIP3   OH261743   1.701   0.290  16.625 -0.0723 -0.3710  0.3150
13443TIP3    H161744   1.754   0.355  16.578 -1.9934 -0.1055 -1.5832
13443TIP3    H261745   1.765   0.231  16.666  1.6853  2.0297  1.1203
13444TIP3   OH261746   0.109   4.732   4.658 -0.5063  0.2951  0.0602
13444TIP3    H161747   0.038   4.677   4.690 -1.7473  0.7231 -1.8513
13444TIP3    H261748   0.089   4.819   4.691 -0.1754  0.1868  0.5595
13445TIP3   OH261749   5.181   2.401  13.336 -0.5039  0.0031  0.2332
13445TIP3    H161750   5.190   2.494  13.315 -0.2334  0.0290  0.4473
13445TIP3    H261751   5.270   2.374  13.360 -0.5732 -0.3229  0.1209
13446TIP3   OH261752   1.777   6.074  16.883  0.1270 -0.2337 -0.1008
13446TIP3    H161753   1.864   6.047  16.912 -0.7922 -0.5776  2.5004
13446TIP3    H261754   1.751   6.008  16.819  0.2115 -2.3973  2.0053
13447TIP3   OH261755   5.174   5.050   5.515  0.0051 -0.2737  0.2288
13447TIP3    H161756   5.189   4.956   5.513  1.2156 -0.1211  1.4853
13447TIP3    H261757   5.134   5.067   5.600  0.4043  0.4177  0.2888
13448TIP3   OH261758   1.081   2.868   5.548  0.3544  0.1345  0.3167
13448TIP3    H161759   0.992   2.863   5.511  0.6635  0.6258 -0.5022
13448TIP3    H261760   1.070   2.839   5.638 -0.3495 -1.4550 -0.2456
13449TIP3   OH261761   1.274   3.578   1.094  0.3420 -0.1541 -0.4964
13449TIP3    H161762   1.348   3.567   1.035 -0.0331 -0.0419 -0.9973
13449TIP3    H261763   1.305   3.548   1.179  1.3744  1.1200 -0.4114
13450TIP3   OH261764   5.289   3.851   3.253 -0.4037  0.4182  0.5238
13450TIP3    H161765   5.380   3.873   3.235 -0.4294 -0.0315 -0.2053
13450TIP3    H261766   5.259   3.808   3.173 -1.9042  2.5154 -0.0867
13451TIP3   OH261767   6.047   2.768  11.981  0.5607  0.2809  0.3206
13451TIP3    H161768   6.048   2.726  11.895  2.3290  1.1953 -0.1239
13451TIP3    H261769   5.970   2.826  11.978 -0.0246 -0.5135 -0.2228
13452TIP3   OH261770   3.748   3.509   4.868  0.8418  0.2851  0.3266
13452TIP3    H161771   3.690   3.491   4.942  1.2966 -1.1601  0.3559
13452TIP3    H261772   3.708   3.584   4.824  0.4947  1.0680  1.9497
13453TIP3   OH261773   2.756   3.147   3.116 -0.0885  0.4383 -0.6854
13453TIP3    H161774   2.662   3.135   3.125  0.3130 -2.1486  0.7292
13453TIP3    H261775   2.787   3.167   3.204  0.9244 -0.7559 -0.7497
13454TIP3   OH261776   6.666   0.880   1.480  0.7249  0.0745 -0.5349
13454TIP3    H161777   6.618   0.798   1.487  0.6361  0.3098  2.1775
13454TIP3    H261778   6.744   0.857   1.429  1.1571 -1.9211  0.9477
13455TIP3   OH261779   6.726   2.203  11.235  0.6838 -0.3396 -1.1591
13455TIP3    H161780   6.734   2.130  11.297 -1.4302  0.4644  0.1005
13455TIP3    H261781   6.747   2.281  11.288 -2.8891  0.5374 -0.9358
13456TIP3   OH261782   0.221   0.464   2.837  0.0448 -0.2303 -0.1229
13456TIP3    H161783   0.239   0.380   2.794 -0.4022 -1.1781  1.4796
13456TIP3    H261784   0.262   0.456   2.923 -1.0911  0.7038  0.5214
13457TIP3   OH261785   0.125   3.397  16.773  0.0431 -0.0981  0.4145
13457TIP3    H161786   0.176   3.343  16.712 -0.9149 -0.1329 -0.3750
13457TIP3    H261787   0.049   3.426  16.722 -1.1169 -0.6495  1.7742
13458TIP3   OH261788   1.917   0.823   3.846  0.7427  0.1263  0.0936
13458TIP3    H161789   1.946   0.736   3.871 -0.5374  0.0057  1.2072
13458TIP3    H261790   1.903   0.818   3.752 -1.4640 -1.5163  0.4722
13459TIP3   OH261791   3.031   5.954  12.382 -0.0212  0.4312 -0.1563
13459TIP3    H161792   3.001   5.936  12.293  0.9579 -1.6111 -0.1052
13459TIP3    H261793   3.053   5.868  12.418 -3.2575  0.8841  3.1455
13460TIP3   OH261794   1.028   4.518  14.176 -0.1473  0.0426  0.2387
13460TIP3    H161795   1.073   4.591  14.219 -2.0812  1.4804 -0.1186
13460TIP3    H261796   1.086   4.495  14.103  0.8429  0.7023  0.7981
13461TIP3   OH261797   4.560   5.144   6.604 -0.6601 -0.1520 -0.5100
13461TIP3    H161798   4.539   5.229   6.643 -0.2854  0.8454 -2.4248
13461TIP3    H261799   4.639   5.161   6.553 -0.0476 -1.8848 -0.1495
13462TIP3   OH261800   0.498   1.798   2.016  0.1414 -0.2970  0.0530
13462TIP3    H161801   0.576   1.760   1.975 -0.1916 -1.3403  0.3808
13462TIP3    H261802   0.520   1.890   2.028  0.8171 -0.2964 -1.0904
13463TIP3   OH261803   4.775   5.923   2.537 -0.0084  0.1349  0.3888
13463TIP3    H161804   4.791   5.961   2.450  1.3166 -0.7954  0.1963
13463TIP3    H261805   4.680   5.927   2.549 -0.3689 -1.1287 -1.7789
13464TIP3   OH261806   1.442   3.069  17.181 -0.7244 -0.1596  0.4810
13464TIP3    H161807   1.403   3.140  17.131 -0.2657  0.0946  0.4846
13464TIP3    H261808   1.457   2.999  17.117  0.7583  0.5230  0.0647
13465TIP3   OH261809   1.940   2.102   1.702  0.6346  0.6987  0.3833
13465TIP3    H161810   1.897   2.174   1.657 -1.3756 -0.2960  0.6595
13465TIP3    H261811   1.998   2.063   1.637 -1.0931  0.2404 -0.9053
13466TIP3   OH261812   4.960   1.119  14.393 -0.0980  0.7490  0.2301
13466TIP3    H161813   4.887   1.157  14.441  0.2824  2.8260 -0.7772
13466TIP3    H261814   5.007   1.194  14.357  1.8643 -0.5941 -0.1305
13467TIP3   OH261815   1.758   0.301   5.342  0.7231  0.0200 -0.0693
13467TIP3    H161816   1.670   0.308   5.379  1.0943 -0.1645  0.8718
13467TIP3    H261817   1.804   0.378   5.375  0.7027  0.5166 -1.1734
13468TIP3   OH261818   3.951   4.998   1.136  0.0029 -0.6871  0.3520
13468TIP3    H161819   3.864   4.973   1.166 -0.3677  1.0317  0.8021
13468TIP3    H261820   3.941   5.010   1.041 -0.9380  2.0799  0.7656
13469TIP3   OH261821   4.619   5.092  13.014 -0.5750  0.1792 -0.0835
13469TIP3    H161822   4.710   5.069  12.997 -0.5841 -0.2745  0.4618
13469TIP3    H261823   4.623   5.146  13.094 -0.8449 -0.3445  0.2861
13470TIP3   OH261824   5.207   4.412   1.003 -0.3870 -0.2084  0.6661
13470TIP3    H161825   5.288   4.371   1.034  0.2107  0.7220  0.3358
13470TIP3    H261826   5.235   4.495   0.966 -1.5276  0.2221  0.7660
13471TIP3   OH261827   2.059   3.123  13.223  0.5134  0.3422 -0.4005
13471TIP3    H161828   1.967   3.133  13.199  0.1672 -1.1399  0.2750
13471TIP3    H261829   2.106   3.142  13.142 -0.4362 -0.0674 -1.0620
13472TIP3   OH261830   2.206   6.395  15.575  0.4330  0.9155 -0.0220
13472TIP3    H161831   2.142   6.389  15.504  0.0501 -1.4147  0.4824
13472TIP3    H261832   2.154   6.385  15.655  1.4698 -1.9111  0.3632
13473TIP3   OH261833   2.350   5.108   4.255 -0.1535 -0.4600  0.0927
13473TIP3    H161834   2.256   5.094   4.267 -0.3815 -0.7048 -1.8017
13473TIP3    H261835   2.380   5.029   4.209  0.2654  1.2131 -2.6102
13474TIP3   OH261836   4.232   3.782  13.546  0.0891 -0.2476 -0.2844
13474TIP3    H161837   4.318   3.742  13.554  0.5313  0.7280 -0.1037
13474TIP3    H261838   4.240   3.843  13.472 -0.5861 -0.5078 -0.5849
13475TIP3   OH261839   0.843   5.046  12.428  0.6337  0.2619  0.0550
13475TIP3    H161840   0.749   5.050  12.411  0.9539  2.4115 -1.4950
13475TIP3    H261841   0.869   5.138  12.440  2.5116 -0.3021  0.5290
13476TIP3   OH261842   0.269   0.137  14.361  0.2655  0.6425  0.1116
13476TIP3    H161843   0.230   0.051  14.377 -0.8014  1.2360  0.7515
13476TIP3    H261844   0.232   0.193  14.428 -0.0229  1.8989 -1.0783
13477TIP3   OH261845   4.787   4.862  13.512 -0.5051  0.2947 -0.1786
13477TIP3    H161846   4.784   4.859  13.608 -0.3203 -0.0283 -0.1803
13477TIP3    H261847   4.696   4.861  13.485 -0.5633 -2.4807 -0.0653
13478TIP3   OH261848   1.341   4.952  16.827 -0.6104  0.0253  0.0622
13478TIP3    H161849   1.401   4.985  16.760 -1.0273 -0.0420 -0.3428
13478TIP3    H261850   1.255   4.987  16.802 -0.7588  0.0306  0.5798
13479TIP3   OH261851   3.883   6.398  13.240  0.1675 -0.5479 -0.0836
13479TIP3    H161852   3.914   6.447  13.317 -2.3757 -0.3192  0.8593
13479TIP3    H261853   3.839   6.464  13.186 -1.0517 -1.3077 -0.0469
13480TIP3   OH261854   2.084   1.953  13.899  0.3352  0.7196  0.0975
13480TIP3    H161855   2.114   1.889  13.834 -0.1392  0.2116  0.3746
13480TIP3    H261856   2.036   1.901  13.963 -1.5784  1.5804 -0.6082
13481TIP3   OH261857   6.767   1.857   4.237 -0.4876 -0.1152 -0.4568
13481TIP3    H161858   6.680   1.824   4.261  0.0196 -0.7911  0.5010
13481TIP3    H261859   6.811   1.781   4.198 -0.3701  0.2626 -1.0699
13482TIP3   OH261860   5.834   0.134   5.767 -0.1573  0.5754  0.3983
13482TIP3    H161861   5.903   0.196   5.788  0.1417  0.7967 -1.1356
13482TIP3    H261862   5.768   0.186   5.721  0.6769 -0.4339 -2.0591
13483TIP3   OH261863   2.713   5.973   2.850  0.3798  0.0530  0.0535
13483TIP3    H161864   2.759   5.950   2.769  0.2999  0.3475 -0.0761
13483TIP3    H261865   2.631   6.014   2.820  0.6661  0.7938  0.2786
13484TIP3   OH261866   5.329   1.446  17.061  0.6152  0.5664  0.0007
13484TIP3    H161867   5.416   1.485  17.072  0.5937  0.7137 -0.3477
13484TIP3    H261868   5.325   1.422  16.969 -0.0813  1.4473 -0.2030
13485TIP3   OH261869   2.000   4.838   3.206 -0.4460 -0.0061 -0.2943
13485TIP3    H161870   2.041   4.866   3.124 -1.1611  0.7827 -0.3928
13485TIP3    H261871   1.976   4.920   3.249  0.5744 -0.3996  1.0373
13486TIP3   OH261872   4.595   5.017   5.675  0.6049  0.3518 -0.0888
13486TIP3    H161873   4.516   4.961   5.675  0.4052  0.6282  0.5599
13486TIP3    H261874   4.642   4.991   5.596  0.8356 -1.2031  0.5444
13487TIP3   OH261875   0.285   0.784  13.144  0.4448 -0.4418  0.4973
13487TIP3    H161876   0.363   0.836  13.161  0.2135 -0.4101  1.5274
13487TIP3    H261877   0.316   0.711  13.091  0.8869  0.3903 -0.4077
13488TIP3   OH261878   0.110   5.521  12.810 -0.5571  0.0820  0.0546
13488TIP3    H161879   0.025   5.563  12.823 -1.0845 -1.3038  1.1991
13488TIP3    H261880   0.095   5.454  12.743  0.3508  1.8580 -1.9851
13489TIP3   OH261881   3.251   3.104  16.062 -0.2180 -0.0501 -0.4627
13489TIP3    H161882   3.261   3.199  16.050  3.7735 -0.1436  1.2418
13489TIP3    H261883   3.330   3.066  16.024  0.3215 -2.2819  2.6333
13490TIP3   OH261884   1.569   3.562  12.211  0.5730 -0.4788  0.3424
13490TIP3    H161885   1.558   3.637  12.268  0.3736 -0.8338  0.7732
13490TIP3    H261886   1.577   3.487  12.270  1.8608 -0.6661 -0.0499
13491TIP3   OH261887   4.103   0.952  11.608 -0.7129 -0.0904  0.5646
13491TIP3    H161888   4.189   0.923  11.577 -1.1463  0.9088 -1.5972
13491TIP3    H261889   4.122   0.998  11.690  0.9000  0.7379 -0.2448
13492TIP3   OH261890   4.843   0.144   0.909 -0.2535 -0.1939 -0.4926
13492TIP3    H161891   4.855   0.201   0.986 -3.0551 -0.7666  0.4586
13492TIP3    H261892   4.863   0.200   0.834 -0.4400  1.3053  0.5497
13493TIP3   OH261893   0.394   4.909  16.631  0.4045 -0.7372  0.3800
13493TIP3    H161894   0.350   4.829  16.660 -0.6501  0.5205  2.3872
13493TIP3    H261895   0.362   4.976  16.691  2.0151  0.9976 -0.6701
13494TIP3   OH261896   0.268   0.816   3.265  0.3485 -0.1733 -0.4065
13494TIP3    H161897   0.258   0.734   3.313  2.3828  1.1810  2.4987
13494TIP3    H261898   0.348   0.804   3.213  0.1687 -0.3242 -0.6506
13495TIP3   OH261899   1.262   2.457   0.588  0.1539 -0.3747 -0.1485
13495TIP3    H161900   1.348   2.445   0.549  0.2463  1.9534 -0.7340
13495TIP3    H261901   1.269   2.418   0.675  1.9430  0.2170 -0.0128
13496TIP3   OH261902   3.095   0.773  10.935  0.1019 -0.3946 -0.4908
13496TIP3    H161903   3.050   0.704  10.887  2.1474 -2.0916 -0.0795
13496TIP3    H261904   3.180   0.781  10.891 -0.8087  3.2261 -1.7082
13497TIP3   OH261905   2.981   1.132  11.975  0.1786 -0.7638 -0.1617
13497TIP3    H161906   2.929   1.201  11.934 -0.5166 -1.1799  0.0191
13497TIP3    H261907   3.070   1.148  11.945  0.2491  1.0301  0.9706
13498TIP3   OH261908   2.031   6.770   2.269  0.1126  0.2070  0.2836
13498TIP3    H161909   1.947   6.816   2.261 -0.1939 -0.4884 -0.6124
13498TIP3    H261910   2.092   6.836   2.301 -0.8243  0.6683  1.1271
13499TIP3   OH261911   0.394   6.012   2.836 -0.2247 -0.2227 -0.0065
13499TIP3    H161912   0.403   5.930   2.787 -0.3829  0.0297 -0.4684
13499TIP3    H261913   0.478   6.022   2.881 -0.0205 -0.3869 -0.3450
13500TIP3   OH261914   5.829   6.061  14.148 -0.5283 -0.0922 -0.4462
13500TIP3    H161915   5.912   6.032  14.187 -0.6057  0.8508  0.4329
13500TIP3    H261916   5.783   5.980  14.126 -0.0216 -0.6291  0.4470
13501TIP3   OH261917   2.525   6.429  11.935 -0.0473  0.1649 -0.2565
13501TIP3    H161918   2.591   6.413  12.002 -0.2384  1.4122  0.2415
13501TIP3    H261919   2.572   6.474  11.865  0.4999 -2.4886 -1.6734
13502TIP3   OH261920   6.044   3.430   3.954  0.0868 -0.3468 -0.4372
13502TIP3    H161921   6.092   3.482   4.018  1.8572 -1.9961 -0.3762
13502TIP3    H261922   5.968   3.483   3.931  0.2817  0.9483  1.8294
13503TIP3   OH261923   5.618   4.750  11.523 -1.0264  0.2812  0.2474
13503TIP3    H161924   5.543   4.785  11.572  0.6831  0.6462  2.7257
13503TIP3    H261925   5.637   4.666  11.565  0.4712  0.6054  0.2603
13504TIP3   OH261926   4.062   4.581  12.358 -0.2063 -0.0512 -0.4129
13504TIP3    H161927   4.138   4.635  12.335  1.0309 -0.7674  1.8909
13504TIP3    H261928   4.000   4.643  12.397  0.2308  0.1215  0.0142
13505TIP3   OH261929   2.145   0.130   1.697  0.1146  0.4667  0.5395
13505TIP3    H161930   2.192   0.049   1.675 -1.0737  0.2418 -1.2693
13505TIP3    H261931   2.114   0.116   1.786 -0.5808 -1.3322  0.0406
13506TIP3   OH261932   5.938   5.353  16.845  0.0923 -0.2567  0.0920
13506TIP3    H161933   5.942   5.401  16.928 -0.1732 -1.5247  0.8429
13506TIP3    H261934   6.029   5.327  16.829  0.2834  0.7020 -0.4558
13507TIP3   OH261935   0.144   1.811   2.519 -0.2335  0.0569  0.3107
13507TIP3    H161936   0.221   1.776   2.564 -0.0267 -0.3087 -0.3310
13507TIP3    H261937   0.176   1.889   2.474  0.1908 -1.1334 -1.4905
13508TIP3   OH261938   5.161   2.054  16.986  0.2075  0.3358 -0.2239
13508TIP3    H161939   5.084   2.103  17.016  0.0643 -0.5090  0.8299
13508TIP3    H261940   5.159   2.062  16.891 -0.6086  1.1894 -0.1401
13509TIP3   OH261941   3.428   1.953  14.183 -0.7007  0.0620 -0.3100
13509TIP3    H161942   3.436   1.962  14.088  0.7900 -0.8606 -0.2965
13509TIP3    H261943   3.422   1.859  14.197 -0.6826  0.1837  0.5311
13510TIP3   OH261944   1.761   5.448  15.090 -0.0503  0.3672  0.1906
13510TIP3    H161945   1.742   5.529  15.138  0.6034 -0.1911  1.4261
13510TIP3    H261946   1.847   5.463  15.050  0.7024 -0.2142  1.5634
13511TIP3   OH261947   2.059   2.530  12.568  0.1058  0.0190 -0.1477
13511TIP3    H161948   2.042   2.480  12.488  0.4141 -0.0216 -0.1877
13511TIP3    H261949   2.131   2.588  12.545 -1.4997  1.8570 -0.6941
13512TIP3   OH261950   3.134   4.424  10.948 -0.6229 -0.2680 -0.3259
13512TIP3    H161951   3.203   4.441  11.013  0.3070 -2.6814 -0.6453
13512TIP3    H261952   3.054   4.458  10.989  0.4719  1.1405  0.7103
13513TIP3   OH261953   2.772   6.288  10.234  0.1326 -0.5296  0.4274
13513TIP3    H161954   2.708   6.342  10.279 -0.1847 -0.8142  0.3196
13513TIP3    H261955   2.771   6.205  10.281 -0.6578 -1.0485 -0.4843
13514TIP3   OH261956   1.299   5.217   1.058  0.8322  0.2885  0.0313
13514TIP3    H161957   1.213   5.176   1.070  1.3826 -0.4903  1.3770
13514TIP3    H261958   1.297   5.294   1.115  1.3995 -0.2883  0.8281
13515TIP3   OH261959   6.348   2.588  14.558  0.0996  0.3585 -0.2425
13515TIP3    H161960   6.355   2.678  14.588 -1.7443  0.5091 -0.2357
13515TIP3    H261961   6.301   2.593  14.475  0.5540 -0.5438 -0.5732
13516TIP3   OH261962   0.301   6.519  10.502  0.5330  0.1230 -0.0670
13516TIP3    H161963   0.230   6.579  10.524 -0.0617 -0.6314  0.0876
13516TIP3    H261964   0.277   6.437  10.544  1.4326 -0.1786 -0.1257
13517TIP3   OH261965   5.409   5.984   4.473  0.1982 -0.2613  1.0136
13517TIP3    H161966   5.405   6.075   4.501  0.7047 -0.8331  3.0329
13517TIP3    H261967   5.339   5.941   4.522 -0.2466 -0.9114 -0.1705
13518TIP3   OH261968   4.441   0.859   5.172 -0.5889 -0.0770  0.8974
13518TIP3    H161969   4.404   0.845   5.259  0.9689 -1.9456  1.2802
13518TIP3    H261970   4.535   0.866   5.185 -0.3350 -0.2908 -0.6228
13519TIP3   OH261971   6.366   5.855  10.882  0.5954 -0.2387 -0.0928
13519TIP3    H161972   6.368   5.923  10.950  1.4196 -1.5058  1.1984
13519TIP3    H261973   6.353   5.774  10.931  1.5241 -1.2114 -1.4446
13520TIP3   OH261974   2.135   2.505  15.627  0.2701 -0.3194  0.8163
13520TIP3    H161975   2.065   2.528  15.567  1.3799 -2.9068 -1.5448
13520TIP3    H261976   2.120   2.561  15.704 -3.4056  0.2722 -0.2622
13521TIP3   OH261977   2.345   6.341  15.089  0.1026  0.2899 -0.0676
13521TIP3    H161978   2.306   6.403  15.151  0.8440  0.8268 -0.1355
13521TIP3    H261979   2.332   6.256  15.129 -0.0180  0.5804  0.5109
13522TIP3   OH261980   5.566   0.041   1.812 -0.3156  0.2745 -0.4693
13522TIP3    H161981   5.501   0.095   1.768 -2.1277 -2.2319 -0.9965
13522TIP3    H261982   5.554   0.058   1.905 -1.0507  0.5705 -0.6208
13523TIP3   OH261983   1.636   1.006   4.357  0.1730 -0.1824 -0.1432
13523TIP3    H161984   1.542   1.023   4.356 -0.0272 -1.2922 -1.2382
13523TIP3    H261985   1.673   1.075   4.413 -1.2968  0.1896  0.3787
13524TIP3   OH261986   3.867   5.954  11.738 -0.2949 -0.7340  0.0284
13524TIP3    H161987   3.912   6.020  11.685 -1.8958  1.8343  1.7635
13524TIP3    H261988   3.935   5.920  11.796  0.1577  0.8948  0.5083
13525TIP3   OH261989   2.923   4.901   4.502 -0.0500 -0.4266 -0.4382
13525TIP3    H161990   3.015   4.883   4.519 -0.4983 -2.7611 -0.3627
13525TIP3    H261991   2.881   4.891   4.587 -1.2112 -5.0871 -1.4417
13526TIP3   OH261992   3.791   0.761  12.947  0.5344  0.5783  0.3725
13526TIP3    H161993   3.749   0.681  12.914 -3.0795  1.6592  2.0941
13526TIP3    H261994   3.791   0.820  12.871  2.0624 -0.5765 -0.5585
13527TIP3   OH261995   1.741   5.527  15.476 -0.5926  0.1109 -0.1450
13527TIP3    H161996   1.764   5.501  15.565  2.6270 -0.5692 -1.1135
13527TIP3    H261997   1.679   5.460  15.447 -0.9332 -0.1962  1.2618
13528TIP3   OH261998   6.643   5.964  12.702 -0.1380 -0.0258  0.0770
13528TIP3    H161999   6.641   5.955  12.607 -2.5989 -1.6856  0.2173
13528TIP3    H262000   6.568   6.019  12.723 -0.4875 -0.8733  1.1299
13529TIP3   OH262001   5.203   4.312   2.561  0.3070  0.2967 -0.3740
13529TIP3    H162002   5.109   4.295   2.562  0.5841 -1.4068 -1.9210
13529TIP3    H262003   5.221   4.348   2.648 -1.6358 -0.0654  0.2095
13530TIP3   OH262004   1.514   6.332  12.282 -0.6058  0.1624  0.1627
13530TIP3    H162005   1.491   6.421  12.258  0.0609 -0.0232 -1.2022
13530TIP3    H262006   1.585   6.342  12.346  0.1660  0.6013 -0.7482
13531TIP3   OH262007   4.047   4.488   3.151  0.0729  0.4882  0.1300
13531TIP3    H162008   4.049   4.581   3.127 -0.3196  0.1105 -1.4239
13531TIP3    H262009   4.029   4.488   3.245  0.3301  1.9908  0.1968
13532TIP3   OH262010   0.577   2.830   4.875 -0.1468  0.4504  0.3908
13532TIP3    H162011   0.672   2.828   4.883 -0.1144  2.3988  0.6586
13532TIP3    H262012   0.551   2.738   4.878  1.8420 -0.2172 -1.1518
13533TIP3   OH262013   5.342   1.685   4.962 -0.2542 -0.3944  0.5593
13533TIP3    H162014   5.340   1.602   5.010 -0.4671 -1.3499 -1.0825
13533TIP3    H262015   5.300   1.666   4.879  4.0736  0.0151 -1.8768
13534TIP3   OH262016   2.865   1.781  15.908  0.2081  0.2271 -0.3316
13534TIP3    H162017   2.848   1.687  15.917  0.2447  0.2215 -0.3200
13534TIP3    H262018   2.857   1.815  15.997  1.5576  0.0092 -0.1214
13535TIP3   OH262019   5.224   5.797   0.911  0.1273  0.1141  0.6207
13535TIP3    H162020   5.173   5.868   0.873 -1.1918 -0.6848  0.8506
13535TIP3    H262021   5.230   5.731   0.842 -1.1439 -0.7780  1.3395
13536TIP3   OH262022   5.772   2.270  11.625  0.3066 -0.2856 -0.5968
13536TIP3    H162023   5.824   2.343  11.657  0.4177 -1.0552  1.0547
13536TIP3    H262024   5.704   2.258  11.691 -1.5164  0.2120 -2.3358
13537TIP3   OH262025   4.531   5.014   4.629 -0.1325 -0.3512 -0.6407
13537TIP3    H162026   4.455   5.012   4.572 -0.5510  0.4758 -0.1187
13537TIP3    H262027   4.507   4.958   4.703 -0.4550  0.3389 -0.2143
13538TIP3   OH262028   5.747   2.638   4.249 -0.5797  0.6335  0.4817
13538TIP3    H162029   5.802   2.646   4.328 -1.5852  4.8500  0.8530
13538TIP3    H262030   5.667   2.597   4.281  0.5508 -1.3998  0.8159
13539TIP3   OH262031   2.370   4.552   3.404  0.1734  0.0644  0.3883
13539TIP3    H162032   2.315   4.494   3.352 -0.4891  0.2193  0.9106
13539TIP3    H262033   2.457   4.514   3.399  0.0070 -0.2285 -0.3757
13540TIP3   OH262034   4.474   0.512  15.955 -0.2169  0.1580 -0.5875
13540TIP3    H162035   4.463   0.426  15.996 -2.4576 -0.7142 -2.8911
13540TIP3    H262036   4.504   0.492  15.866  3.2275  1.9717  0.0505
13541TIP3   OH262037   6.253   1.509   5.091 -0.2370  0.6033 -0.2975
13541TIP3    H162038   6.285   1.588   5.134  1.4136 -0.7063  0.9872
13541TIP3    H262039   6.267   1.440   5.156 -2.3480 -0.6215 -1.1080
13542TIP3   OH262040   5.015   0.315  17.054  0.2565 -0.4105 -0.6971
13542TIP3    H162041   5.045   0.238  17.102  1.3082 -0.5679 -1.5813
13542TIP3    H262042   5.019   0.290  16.961 -1.2046  0.0758 -0.9197
13543TIP3   OH262043   4.114   6.057  12.758  0.2226  0.1724  0.6939
13543TIP3    H162044   4.207   6.064  12.783  0.6910  0.5102 -1.0338
13543TIP3    H262045   4.099   6.135  12.704 -0.9121 -0.1842  0.4986
13544TIP3   OH262046   0.564   2.668   6.294  0.4874 -0.4410 -0.5115
13544TIP3    H162047   0.658   2.688   6.293  0.3895  0.0092 -0.5530
13544TIP3    H262048   0.532   2.697   6.209  0.2970 -0.5472 -0.4773
13545TIP3   OH262049   5.726   6.252   5.474 -0.1299  0.5236  0.5098
13545TIP3    H162050   5.763   6.324   5.524 -0.3369  0.3364  0.9432
13545TIP3    H262051   5.635   6.247   5.504  0.0984 -0.4194  1.0672
13546TIP3   OH262052   3.200   1.257   5.021  0.5756  0.1275 -0.4551
13546TIP3    H162053   3.149   1.291   4.948  1.2331 -0.0832 -1.0175
13546TIP3    H262054   3.238   1.334   5.063  1.4819  0.1412 -1.2935
13547TIP3   OH262055   3.760   2.464   4.732  0.0218  0.2402  0.1558
13547TIP3    H162056   3.688   2.406   4.757 -0.5378  0.5042 -0.8097
13547TIP3    H262057   3.749   2.477   4.638  0.9363  0.8332  0.1216
13548TIP3   OH262058   4.783   0.031   3.384 -0.2130 -0.5361  0.4002
13548TIP3    H162059   4.756  -0.026   3.457 -1.1825  0.5976  0.9531
13548TIP3    H262060   4.876   0.047   3.399 -0.1043 -1.3733  0.6515
13549TIP3   OH262061   2.710   6.633   2.049 -0.0174 -0.1489  0.0203
13549TIP3    H162062   2.752   6.561   2.002  1.5225  0.1093  0.9798
13549TIP3    H262063   2.727   6.615   2.141 -0.7807  0.7396  0.3451
13550TIP3   OH262064   4.180   4.402   2.283 -0.1982 -0.2767  0.7045
13550TIP3    H162065   4.256   4.413   2.339 -0.5586 -1.3433  1.4117
13550TIP3    H262066   4.175   4.484   2.233  2.6493 -1.0230 -0.9045
13551TIP3   OH262067   2.294   0.040   3.627 -0.3318 -0.2572  0.4079
13551TIP3    H162068   2.261   0.003   3.546 -0.1318  2.8377 -1.1544
13551TIP3    H262069   2.382   0.005   3.636 -0.2003 -0.2760 -0.9430
13552TIP3   OH262070   4.421   2.766   4.215  0.2657 -0.4742  0.3439
13552TIP3    H162071   4.471   2.848   4.218  0.2301 -0.3473 -1.6521
13552TIP3    H262072   4.473   2.709   4.158  0.0652 -1.7111  1.3585
13553TIP3   OH262073   1.262   4.174  14.039 -0.2318  0.4166 -0.1921
13553TIP3    H162074   1.242   4.144  13.950  0.7536 -0.6541 -0.0602
13553TIP3    H262075   1.263   4.270  14.032 -2.3289  0.4081 -0.8526
13554TIP3   OH262076   5.209   1.836  13.907  0.3933 -0.6151  0.3174
13554TIP3    H162077   5.305   1.828  13.907  0.2456 -2.6705  0.3029
13554TIP3    H262078   5.191   1.908  13.967  2.0448  1.2236 -1.3277
13555TIP3   OH262079   1.327   5.970  12.445 -0.1728  0.1981 -0.0653
13555TIP3    H162080   1.342   5.967  12.540 -1.4491  1.7307  0.2024
13555TIP3    H262081   1.294   6.059  12.429 -1.9930 -0.7249 -1.6294
13556TIP3   OH262082   4.811   6.300   4.620 -0.1021  0.2395  0.7272
13556TIP3    H162083   4.852   6.377   4.659  1.1995 -0.5979  1.0186
13556TIP3    H262084   4.753   6.336   4.553  0.5276  1.4711  0.8303
13557TIP3   OH262085   4.624   2.887  11.745 -0.0951 -0.5731 -0.2409
13557TIP3    H162086   4.613   2.793  11.730  2.3704 -0.9126 -0.0706
13557TIP3    H262087   4.683   2.893  11.820 -1.6741  1.1377  0.9311
13558TIP3   OH262088   6.426   6.508  15.451 -0.0691  0.0464  0.1618
13558TIP3    H162089   6.415   6.451  15.375  1.6242 -0.8417  0.5503
13558TIP3    H262090   6.480   6.457  15.511 -0.7743  1.0269  1.6619
13559TIP3   OH262091   5.604   4.845  14.203 -0.4251  0.5500 -0.5384
13559TIP3    H162092   5.514   4.870  14.179 -0.3398  0.3106 -1.1164
13559TIP3    H262093   5.611   4.753  14.179 -0.9979 -0.3037  2.3680
13560TIP3   OH262094   5.852   2.281  15.184  0.4820 -0.1286 -0.1537
13560TIP3    H162095   5.879   2.363  15.141 -0.2877  0.4697  0.4742
13560TIP3    H262096   5.758   2.293  15.201  0.3889 -1.0999  0.0484
13561TIP3   OH262097   5.528   2.814   4.593  0.2500 -0.3868  0.3321
13561TIP3    H162098   5.600   2.874   4.573  0.0459 -0.4392 -0.5938
13561TIP3    H262099   5.495   2.788   4.507  1.3379 -3.0246  0.6750
13562TIP3   OH262100   3.593   0.994   1.512  0.8281 -0.2411  0.1639
13562TIP3    H162101   3.610   1.011   1.605 -1.1592  0.7582  0.3808
13562TIP3    H262102   3.618   1.075   1.468 -0.4064  0.1312  0.1247
13563TIP3   OH262103   4.035   5.208  13.193 -0.4641  0.2323 -0.4305
13563TIP3    H162104   4.064   5.117  13.185 -0.4147  0.2465 -0.4127
13563TIP3    H262105   3.987   5.211  13.276 -1.3649 -0.0160 -0.9396
13564TIP3   OH262106   0.847   4.446   4.194 -0.2811 -0.0376 -0.2301
13564TIP3    H162107   0.809   4.450   4.106 -2.9231 -1.4205  0.7945
13564TIP3    H262108   0.822   4.360   4.227  3.1793 -0.7115  0.8302
13565TIP3   OH262109   0.560   2.158   0.138  0.5467  0.0752 -0.1202
13565TIP3    H162110   0.624   2.114   0.082  1.0382 -0.3565  0.7755
13565TIP3    H262111   0.486   2.177   0.079  0.1548 -2.2719 -0.4342
13566TIP3   OH262112   3.744   1.336   4.491  0.0461  0.1371 -0.3521
13566TIP3    H162113   3.741   1.408   4.428  0.9893  1.5451  1.1791
13566TIP3    H262114   3.674   1.356   4.553  1.1467  0.4199  0.7979
13567TIP3   OH262115   3.008   2.136  14.607 -0.3635  0.8793  0.0943
13567TIP3    H162116   3.075   2.097  14.551 -2.3971  2.1540 -3.3685
13567TIP3    H262117   2.951   2.062  14.631  0.0711  0.4476 -0.1904
13568TIP3   OH262118   6.083   4.608   5.473  0.1183  0.9922 -0.2208
13568TIP3    H162119   6.058   4.517   5.484 -1.8196  1.2253 -2.3496
13568TIP3    H262120   6.084   4.644   5.562  3.0879 -1.5972  0.8908
13569TIP3   OH262121   5.009   0.062   4.650 -0.4985 -0.4804 -0.1300
13569TIP3    H162122   5.088   0.023   4.688 -1.4614 -1.0488  1.3409
13569TIP3    H262123   4.984   0.130   4.714 -1.5861 -0.7802 -0.2365
13570TIP3   OH262124   1.172   6.332   4.745  0.4366  0.3809 -0.0620
13570TIP3    H162125   1.203   6.361   4.831  1.6528 -0.1147 -0.3224
13570TIP3    H262126   1.126   6.408   4.709 -1.1447  0.2114  1.5198
13571TIP3   OH262127   0.032   6.158  12.234  0.0728  0.4243 -0.3512
13571TIP3    H162128   0.118   6.159  12.275 -0.0340 -0.3840 -0.0923
13571TIP3    H262129   0.020   6.247  12.200 -0.2962  1.4545  2.3049
13572TIP3   OH262130   1.911   6.240   0.137  0.3966 -0.4674  0.0331
13572TIP3    H162131   1.915   6.146   0.155  0.0820 -0.3399  0.7552
13572TIP3    H262132   1.982   6.255   0.074  0.3479 -1.2142 -0.2056
13573TIP3   OH262133   1.498   0.789  14.846 -0.6198 -0.3936 -0.2712
13573TIP3    H162134   1.525   0.797  14.938 -1.1637  1.8231 -0.2672
13573TIP3    H262135   1.580   0.789  14.797 -0.3826  0.1486  0.1144
13574TIP3   OH262136   1.399   6.216   5.002 -0.2561  0.3608 -0.7276
13574TIP3    H162137   1.360   6.300   5.026 -1.6378 -0.3386 -0.4688
13574TIP3    H262138   1.327   6.166   4.964  0.3002 -1.1054  0.1081
13575TIP3   OH262139   3.509   5.094  12.809 -0.1513  0.3471 -0.2339
13575TIP3    H162140   3.537   5.128  12.894 -1.2814  0.7618 -0.0182
13575TIP3    H262141   3.433   5.039  12.829  3.1613 -4.5102 -0.2363
13576TIP3   OH262142   2.259   0.926   0.171 -0.1739 -0.3656  0.2887
13576TIP3    H162143   2.241   0.895   0.260 -1.1845  1.1704  0.6346
13576TIP3    H262144   2.180   0.903   0.122 -0.5551  0.8522  0.3339
13577TIP3   OH262145   2.454   0.442  12.646 -0.1215 -0.0612  0.2497
13577TIP3    H162146   2.513   0.409  12.713  0.5680 -0.0639 -0.3456
13577TIP3    H262147   2.398   0.367  12.624 -0.3752 -0.0481  0.8395
13578TIP3   OH262148   0.976   1.400  11.736 -0.1223 -0.1450 -0.3346
13578TIP3    H162149   1.048   1.434  11.789 -1.1471 -0.0235  0.9891
13578TIP3    H262150   1.017   1.378  11.652  1.6807 -1.0496  0.7425
13579TIP3   OH262151   0.257   3.605  11.501 -0.3315  0.2541  0.1184
13579TIP3    H162152   0.163   3.609  11.483 -0.5167 -4.2112 -0.5169
13579TIP3    H262153   0.297   3.651  11.427 -1.9593 -0.1596 -1.0648
13580TIP3   OH262154   4.711   0.567  13.796 -0.1023  0.2796 -0.1124
13580TIP3    H162155   4.696   0.575  13.701  0.7058  1.1543 -0.1748
13580TIP3    H262156   4.795   0.523  13.804 -1.0180 -1.4636  0.2272
13581TIP3   OH262157   6.557   1.548   2.326 -0.3933 -0.1315 -0.3312
13581TIP3    H162158   6.638   1.592   2.352 -0.5152 -0.5348  0.7780
13581TIP3    H262159   6.488   1.608   2.354 -0.4729  0.5226 -1.8822
13582TIP3   OH262160   6.357   1.912  13.932 -0.4999  0.0715 -0.2785
13582TIP3    H162161   6.289   1.846  13.948 -1.0343  0.5585 -0.4996
13582TIP3    H262162   6.430   1.886  13.988 -1.4999  0.5031  1.2645
13583TIP3   OH262163   2.778   1.749   3.808 -0.4038  0.4072 -0.4342
13583TIP3    H162164   2.819   1.678   3.758  1.4315  1.4227 -0.4233
13583TIP3    H262165   2.828   1.827   3.784 -0.7770  1.2620  1.4330
13584TIP3   OH262166   1.922   3.227   4.185  0.1990 -0.1398 -0.5581
13584TIP3    H162167   1.898   3.135   4.171 -3.0854  0.5280  0.0936
13584TIP3    H262168   1.900   3.270   4.102 -1.8174  0.6489  0.3462
13585TIP3   OH262169   4.028   1.980  11.692  0.1005 -0.0522  0.5289
13585TIP3    H162170   4.120   1.994  11.667  0.5600 -0.9886  1.6213
13585TIP3    H262171   4.026   1.889  11.724 -1.5031 -0.4828 -0.7650
13586TIP3   OH262172   4.523   4.223   3.650  0.3878 -0.3689  0.0465
13586TIP3    H162173   4.611   4.249   3.675  1.3129 -2.8403 -0.5102
13586TIP3    H262174   4.510   4.138   3.692 -1.8719  0.1156  0.4208
13587TIP3   OH262175   3.885   5.953   4.872 -0.4332  0.9685  0.2620
13587TIP3    H162176   3.913   5.967   4.962  1.2835  0.8458 -0.2223
13587TIP3    H262177   3.862   5.860   4.868  1.6468  0.4280  0.0536
13588TIP3   OH262178   2.971   3.076   1.796  0.2693  0.6378  0.0310
13588TIP3    H162179   2.935   3.142   1.855 -0.2438  0.5949 -0.2338
13588TIP3    H262180   3.062   3.065   1.825  0.5481  1.9406 -0.3405
13589TIP3   OH262181   4.969   0.611   0.285 -0.4119  0.3735 -0.1333
13589TIP3    H162182   4.991   0.704   0.293 -0.6199  0.3105  1.2611
13589TIP3    H262183   4.876   0.610   0.265 -0.8396  0.4418  1.7118
13590TIP3   OH262184   6.266   4.294  13.979 -0.4165 -0.3461  0.0897
13590TIP3    H162185   6.332   4.359  14.004  0.8814 -1.0074 -1.4537
13590TIP3    H262186   6.274   4.226  14.045 -0.9996  0.5278  1.0782
13591TIP3   OH262187   3.015   4.760   2.981 -0.2751  0.2810  0.3404
13591TIP3    H162188   2.949   4.802   3.037  0.7251  1.9973  0.2483
13591TIP3    H262189   3.087   4.739   3.039  0.2266  0.8647 -0.0771
13592TIP3   OH262190   2.782   1.859   2.054  0.2204  0.2794  0.6213
13592TIP3    H162191   2.795   1.950   2.081 -0.5842  0.4999  0.2738
13592TIP3    H262192   2.700   1.860   2.004  0.0026 -0.7027  0.9498
13593TIP3   OH262193   2.067   1.875   4.654  0.2970 -0.7583 -0.4779
13593TIP3    H162194   2.152   1.830   4.654  0.1666 -1.0738 -2.2951
13593TIP3    H262195   2.016   1.829   4.587 -0.7556  0.4444 -0.5211
13594TIP3   OH262196   1.177   4.565  14.801 -0.2522  0.2819  0.4513
13594TIP3    H162197   1.097   4.588  14.848 -1.7071  0.5301 -2.0626
13594TIP3    H262198   1.160   4.479  14.764  0.5609  0.4267 -0.2935
13595TIP3   OH262199   2.240   2.133   2.095 -0.4249  0.1558  0.0604
13595TIP3    H162200   2.233   2.198   2.164  1.0584  0.4270 -0.0309
13595TIP3    H262201   2.191   2.170   2.022  1.1843  1.6104 -0.3111
13596TIP3   OH262202   3.808   6.581  12.264  0.5940  0.0736  0.2774
13596TIP3    H162203   3.847   6.661  12.297  0.3388  0.4732 -0.3782
13596TIP3    H262204   3.755   6.549  12.337 -1.3429  1.8620 -0.2968
13597TIP3   OH262205   6.596   5.995  15.593 -0.2445 -0.1858  0.4658
13597TIP3    H162206   6.666   5.956  15.541 -0.9440 -1.6070  0.5571
13597TIP3    H262207   6.641   6.052  15.656  0.8677 -1.5181  0.8949
13598TIP3   OH262208   4.797   2.123  16.360  0.0868 -0.2575  0.2626
13598TIP3    H162209   4.794   2.037  16.401 -0.8986 -0.8707 -1.0670
13598TIP3    H262210   4.883   2.127  16.318 -0.7211 -1.4947 -1.5615
13599TIP3   OH262211   2.274   0.670   4.237  0.3036  0.3111 -0.0347
13599TIP3    H162212   2.325   0.610   4.183  0.5435 -0.7924  1.4125
13599TIP3    H262213   2.183   0.651   4.214  0.4345  0.6377 -0.8647
13600TIP3   OH262214   1.221   2.009   5.571  0.1825  0.2121  0.2224
13600TIP3    H162215   1.250   1.975   5.486  0.7869  1.5418 -0.1092
13600TIP3    H262216   1.212   2.103   5.558 -1.4552  0.2095  1.1496
13601TIP3   OH262217   0.091   2.759   5.968  0.3317 -0.5184 -0.4750
13601TIP3    H162218   0.116   2.736   5.878  1.2555 -0.9905 -0.1078
13601TIP3    H262219   0.108   2.853   5.974  2.0030 -0.8203 -0.2507
13602TIP3   OH262220   3.854   5.551   3.022 -0.4690 -0.1039  0.5751
13602TIP3    H162221   3.923   5.558   3.088  0.8173 -0.9715 -0.6513
13602TIP3    H262222   3.890   5.595   2.945 -1.1706 -0.8213 -0.1714
13603TIP3   OH262223   6.319   3.462  15.024  0.2006  0.0321  0.1294
13603TIP3    H162224   6.312   3.368  15.041  0.8254 -0.0487 -0.0650
13603TIP3    H262225   6.391   3.491  15.079  0.0203  0.3979  0.1758
13604TIP3   OH262226   5.347   4.820  16.960  0.3674  0.4459  0.4568
13604TIP3    H162227   5.281   4.817  16.891 -0.2416  1.2548  0.9943
13604TIP3    H262228   5.344   4.734  17.000 -1.8082  1.1189  1.8018
13605TIP3   OH262229   6.473   1.258   6.570  0.4971 -0.1164  0.1641
13605TIP3    H162230   6.437   1.329   6.624 -0.8414 -0.9290  0.3613
13605TIP3    H262231   6.555   1.234   6.614  0.7116  0.9775  0.3747
13606TIP3   OH262232   0.828   5.848   1.158 -0.2723 -0.0043  0.4128
13606TIP3    H162233   0.776   5.867   1.236  1.5961  0.0500  1.6828
13606TIP3    H262234   0.812   5.755   1.141 -0.4479 -0.0957  1.0512
13607TIP3   OH262235   4.983   0.096  12.505  0.6736 -0.6038  0.2296
13607TIP3    H162236   4.976   0.174  12.450  0.2537 -1.0068 -0.2926
13607TIP3    H262237   4.942   0.027  12.454 -1.4358 -0.5945  1.8088
13608TIP3   OH262238   2.704   1.999  17.107  0.0243  0.0877 -0.1401
13608TIP3    H162239   2.773   2.037  17.052  0.5432  0.9946  1.1308
13608TIP3    H262240   2.625   2.047  17.083  0.4761  1.2705  0.7211
13609TIP3   OH262241   4.210   6.232   5.648  0.2136  0.2616  0.7240
13609TIP3    H162242   4.134   6.174   5.653  0.7570 -0.4163  1.1318
13609TIP3    H262243   4.215   6.256   5.555 -0.3615  0.1285  0.6547
13610TIP3   OH262244   6.415   6.625  12.240 -0.0083  0.0217  0.3971
13610TIP3    H162245   6.477   6.573  12.189  0.3541  2.2277 -1.4809
13610TIP3    H262246   6.331   6.580  12.230  0.3475 -0.3526 -0.9547
13611TIP3   OH262247   0.273   0.178   1.232  0.1598 -0.3908  0.1331
13611TIP3    H162248   0.239   0.262   1.201 -2.0374 -0.6749  1.6621
13611TIP3    H262249   0.363   0.197   1.257 -0.3391  1.5741  0.5945
13612TIP3   OH262250   1.360   3.996  13.468 -0.0201 -0.5288 -0.9314
13612TIP3    H162251   1.292   4.051  13.506  1.6569  0.8953  0.0552
13612TIP3    H262252   1.324   3.969  13.383 -1.4513  0.9052 -0.8008
13613TIP3   OH262253   4.677   2.290   2.721 -0.2755 -0.3980  0.0721
13613TIP3    H162254   4.667   2.230   2.796  0.5391 -0.4811  0.1179
13613TIP3    H262255   4.705   2.372   2.761 -1.7875  0.1461  0.0487
13614TIP3   OH262256   5.475   3.803  14.266  0.7321 -0.0240  0.0788
13614TIP3    H162257   5.455   3.814  14.359 -1.1453 -0.5267 -0.2357
13614TIP3    H262258   5.559   3.846  14.254  0.9274  0.1683  1.9858
13615TIP3   OH262259   3.741   2.647  12.563  0.5281 -0.3273 -0.3890
13615TIP3    H162260   3.703   2.559  12.565  1.9199 -1.0056 -1.9539
13615TIP3    H262261   3.684   2.696  12.504 -0.2835 -0.1493  0.5310
13616TIP3   OH262262   4.226   3.863   5.200 -0.7593 -0.2089 -0.9261
13616TIP3    H162263   4.182   3.910   5.129 -1.3000  0.3741 -0.2149
13616TIP3    H262264   4.230   3.772   5.171  0.2990  0.2595 -2.3317
13617TIP3   OH262265   0.374   1.736   1.129  0.0779  0.4105  0.7812
13617TIP3    H162266   0.413   1.675   1.066 -2.0105  2.0748 -2.2113
13617TIP3    H262267   0.427   1.815   1.123 -0.7199  0.9272  0.3028
13618TIP3   OH262268   1.739   5.018   3.282  0.2845 -0.3050 -0.0314
13618TIP3    H162269   1.677   5.090   3.287  1.4627  0.7985 -0.9266
13618TIP3    H262270   1.823   5.057   3.308  0.5425 -1.8609  1.5661
13619TIP3   OH262271   2.299   4.124   0.500 -0.6288 -0.6966 -0.4670
13619TIP3    H162272   2.303   4.220   0.504 -2.6051 -0.6536  2.3544
13619TIP3    H262273   2.388   4.096   0.523  0.0908  0.4283 -1.7610
13620TIP3   OH262274   1.776   2.812  11.386  0.2016 -0.0073 -0.4487
13620TIP3    H162275   1.799   2.893  11.432  0.7075 -1.5677  2.1305
13620TIP3    H262276   1.852   2.755  11.397 -0.3998 -1.0836 -1.6688
13621TIP3   OH262277   6.784   3.643   0.813 -0.3302 -0.0739  0.1687
13621TIP3    H162278   6.821   3.560   0.782  0.0198  0.2790 -0.3616
13621TIP3    H262279   6.708   3.658   0.757  0.1036  0.3939 -0.2961
13622TIP3   OH262280   5.018   1.921  11.739 -0.6100 -0.3087 -0.4875
13622TIP3    H162281   4.956   1.984  11.703 -1.0216  0.0463  0.8019
13622TIP3    H262282   4.964   1.858  11.786 -0.1207 -1.0076 -0.8481
13623TIP3   OH262283   1.047   1.209   1.171 -0.6319 -0.0882 -0.1163
13623TIP3    H162284   1.062   1.177   1.082 -1.9524  1.0693 -0.7701
13623TIP3    H262285   0.966   1.259   1.166  0.4531  1.8955  1.2475
13624TIP3   OH262286   3.035   5.888   0.347  0.4758 -0.3506 -0.1173
13624TIP3    H162287   3.022   5.878   0.441 -1.5988 -1.3987 -0.4887
13624TIP3    H262288   3.068   5.803   0.317  0.1726 -0.3451 -0.4829
13625TIP3   OH262289   4.008   4.154  14.405  1.0446  0.4562 -0.4813
13625TIP3    H162290   4.042   4.123  14.489  1.1070  1.1569 -0.2470
13625TIP3    H262291   3.919   4.185  14.425  0.7475 -0.1602 -0.8385
13626TIP3   OH262292   3.103   6.319   2.858  0.0518  0.0165  0.4018
13626TIP3    H162293   3.042   6.258   2.817  1.1360 -1.9304  1.6584
13626TIP3    H262294   3.047   6.390   2.890 -1.4211 -1.1274  0.4457
13627TIP3   OH262295   0.502   1.273  16.797 -0.0531 -0.2974  0.2204
13627TIP3    H162296   0.557   1.331  16.850 -0.4009  0.0588  0.1962
13627TIP3    H262297   0.519   1.186  16.832 -0.1481 -0.0844  0.8064
13628TIP3   OH262298   5.255   0.550   5.277  0.1163  0.5183  0.0850
13628TIP3    H162299   5.280   0.462   5.305  1.1226  0.2855 -1.4541
13628TIP3    H262300   5.186   0.535   5.212 -0.8054  0.9517  0.9457
13629TIP3   OH262301   3.897   4.289  12.043  0.6311 -0.3293  0.7594
13629TIP3    H162302   3.873   4.268  12.133 -4.2676 -1.2673 -0.6566
13629TIP3    H262303   3.893   4.384  12.038  3.3443 -0.0933  2.0710
13630TIP3   OH262304   1.135   0.455  14.507 -0.3510 -0.2361 -0.1371
13630TIP3    H162305   1.086   0.457  14.589 -2.8445 -1.1070 -1.5598
13630TIP3    H262306   1.140   0.547  14.480 -0.4672 -0.0621  0.4299
13631TIP3   OH262307   6.690   0.057  14.263  0.0381  0.1526  0.1012
13631TIP3    H162308   6.606   0.044  14.307 -0.4078  1.9110 -0.1873
13631TIP3    H262309   6.675   0.027  14.174 -0.8794  2.1805 -0.4662
13632TIP3   OH262310   1.962   0.009  15.850  0.1246 -0.9547  0.5643
13632TIP3    H162311   2.035  -0.051  15.859  0.7209 -0.2695  0.3252
13632TIP3    H262312   1.895  -0.040  15.802  0.8980 -1.1615 -0.2958
13633TIP3   OH262313   6.076   0.332  12.721 -0.1509 -0.3418 -0.6977
13633TIP3    H162314   6.136   0.407  12.729  1.0653 -1.1325 -2.2081
13633TIP3    H262315   6.126   0.258  12.753 -2.1335 -0.1940  2.9538
13634TIP3   OH262316   5.816   3.162  15.001  0.2874  0.1200 -0.3176
13634TIP3    H162317   5.813   3.115  14.918  1.3699 -0.1237 -0.2219
13634TIP3    H262318   5.824   3.254  14.977  1.4340 -0.0137 -0.4927
13635TIP3   OH262319   4.055   1.453  14.348 -0.2624 -0.0109 -0.1139
13635TIP3    H162320   4.078   1.400  14.271 -1.7774  1.1646 -1.4098
13635TIP3    H262321   4.100   1.536  14.334  2.2752 -0.9483  2.0140
13636TIP3   OH262322   3.228   4.778   0.468 -0.0378 -0.1904  0.2879
13636TIP3    H162323   3.152   4.811   0.516  0.3543 -2.5754  2.6791
13636TIP3    H262324   3.193   4.711   0.411  0.1082 -0.5048  0.5650
13637TIP3   OH262325   2.807   4.750  12.441  0.3880  0.4520  0.2273
13637TIP3    H162326   2.835   4.836  12.412  0.7233 -0.2224 -1.4483
13637TIP3    H262327   2.886   4.697  12.442  0.3166  0.3290  1.9673
13638TIP3   OH262328   6.642   1.417   4.099  0.0409  0.2423  0.3715
13638TIP3    H162329   6.609   1.330   4.075 -0.1421  0.2378  0.6327
13638TIP3    H262330   6.678   1.452   4.018 -0.2246  0.0727  0.1776
13639TIP3   OH262331   1.465   5.119   5.241 -0.2056  0.0110 -0.0379
13639TIP3    H162332   1.553   5.087   5.220 -0.5707 -2.6153  2.1510
13639TIP3    H262333   1.478   5.175   5.317 -0.3497  0.2280 -0.1732
13640TIP3   OH262334   1.826   0.725   0.997  0.2422 -0.4410  0.6564
13640TIP3    H162335   1.806   0.816   0.978 -1.3785 -0.6115  1.4704
13640TIP3    H262336   1.774   0.675   0.935  2.4358 -0.8078 -0.9494
13641TIP3   OH262337   3.286   2.415  15.793 -0.2385  0.3767 -0.1675
13641TIP3    H162338   3.191   2.402  15.803 -0.1705  1.2440  1.8026
13641TIP3    H262339   3.325   2.370  15.868  0.8639  0.6163 -0.5925
13642TIP3   OH262340   0.869   0.945  15.255  0.0645 -0.2175 -0.1717
13642TIP3    H162341   0.845   0.869  15.202  0.9041 -0.8507  0.3419
13642TIP3    H262342   0.956   0.924  15.288  1.0761  1.7411 -1.4794
13643TIP3   OH262343   3.094   5.917   2.679  0.0482 -0.0341 -0.2293
13643TIP3    H162344   3.183   5.902   2.709 -0.4945  0.2817  1.6296
13643TIP3    H262345   3.067   5.834   2.641  0.2379 -0.9948  1.6486
13644TIP3   OH262346   3.429   4.278   0.887 -0.0505 -0.4118 -0.2286
13644TIP3    H162347   3.503   4.326   0.924  0.4878 -1.8459  0.5814
13644TIP3    H262348   3.356   4.340   0.891  0.5881  0.2726  0.9931
13645TIP3   OH262349   1.065   5.792  15.332 -0.5531 -0.3956 -0.6905
13645TIP3    H162350   1.034   5.703  15.316  1.6966 -1.3535 -0.0050
13645TIP3    H262351   1.160   5.785  15.327 -0.2786  1.6650  0.9200
13646TIP3   OH262352   2.169   3.676   4.570 -0.2945  0.5008 -0.4585
13646TIP3    H162353   2.165   3.768   4.597 -2.7482  0.9075 -2.0136
13646TIP3    H262354   2.119   3.629   4.636  2.4759 -0.0356  1.3409
13647TIP3   OH262355   1.060   4.640  11.845 -0.4087  0.0571 -0.4393
13647TIP3    H162356   1.088   4.618  11.934 -3.2053  1.0995  0.7329
13647TIP3    H262357   0.967   4.620  11.843 -1.1869  3.4827 -2.0028
13648TIP3   OH262358   3.627   4.196  12.607 -0.7362  0.6901 -0.2632
13648TIP3    H162359   3.713   4.220  12.572 -0.7949  0.1851 -0.7714
13648TIP3    H262360   3.645   4.131  12.674 -0.9623 -3.2153 -3.7501
13649TIP3   OH262361   6.391   5.564  13.523  0.4393 -0.4411 -0.4853
13649TIP3    H162362   6.442   5.600  13.450 -0.1713 -2.4532 -1.9336
13649TIP3    H262363   6.441   5.487  13.551 -0.3944 -0.8488 -0.1131
13650TIP3   OH262364   3.378   0.913   0.701  1.0381  0.2207  0.0367
13650TIP3    H162365   3.390   0.964   0.781 -0.7156  0.1851  0.3495
13650TIP3    H262366   3.288   0.880   0.707  1.3999 -1.0548 -1.2189
13651TIP3   OH262367   2.104   0.690  14.985  0.0609 -0.0912 -0.4287
13651TIP3    H162368   2.186   0.644  14.966  1.2469  2.2903 -1.4002
13651TIP3    H262369   2.038   0.644  14.933  1.3966 -0.1137 -2.1721
13652TIP3   OH262370   0.065   2.720  16.316 -0.1293 -0.0731  0.5741
13652TIP3    H162371  -0.014   2.773  16.301 -0.1454  0.6728  3.1252
13652TIP3    H262372   0.044   2.635  16.278 -1.3829  0.7352 -0.5855
13653TIP3   OH262373   5.214   1.547   1.210  0.0414 -0.0864  0.3755
13653TIP3    H162374   5.170   1.606   1.149  1.1970  0.2697 -0.1334
13653TIP3    H262375   5.261   1.605   1.269  0.7148 -0.4782  0.2290
13654TIP3   OH262376   0.825   1.254  13.530 -0.6819  0.2756  0.2338
13654TIP3    H162377   0.848   1.243  13.622  0.6492  0.7291 -0.0374
13654TIP3    H262378   0.907   1.282  13.488 -1.2904  0.1157 -1.0737
13655TIP3   OH262379   1.316   6.671   6.092 -0.3972 -0.0748  0.0990
13655TIP3    H162380   1.344   6.753   6.134 -1.3105 -1.1563  2.8979
13655TIP3    H262381   1.243   6.697   6.036  1.1575  1.4683 -1.2910
13656TIP3   OH262382   2.487   6.602  11.606  0.4641 -0.0130 -0.6022
13656TIP3    H162383   2.490   6.688  11.564  0.2066 -0.2563 -1.1203
13656TIP3    H262384   2.395   6.577  11.601  0.5598 -0.3740 -0.5589
13657TIP3   OH262385   0.750   1.859  15.293 -0.0497  0.1992 -0.3264
13657TIP3    H162386   0.721   1.865  15.202  1.5774  0.4663 -0.8488
13657TIP3    H262387   0.787   1.771  15.301 -3.3848 -1.1530  1.0896
13658TIP3   OH262388   1.417   3.075  14.919 -0.5543  0.4139  0.0028
13658TIP3    H162389   1.323   3.088  14.934 -0.5302  0.9873 -0.3306
13658TIP3    H262390   1.458   3.095  15.003 -0.5457  2.2306 -0.4097
13659TIP3   OH262391   2.694   0.991  16.627  0.3387  0.2683 -0.0901
13659TIP3    H162392   2.639   1.043  16.568 -0.1857 -0.1748  0.0085
13659TIP3    H262393   2.732   0.923  16.571  0.7086  0.5132 -0.1354
13660TIP3   OH262394   2.370   5.334   1.749 -0.0745 -0.0316  0.4146
13660TIP3    H162395   2.359   5.427   1.733  3.8202  0.3646 -0.5102
13660TIP3    H262396   2.328   5.291   1.675 -0.2479  1.0570 -0.1197
13661TIP3   OH262397   6.082   2.640  12.217 -0.2463 -0.0354  0.0344
13661TIP3    H162398   6.060   2.690  12.139 -0.3514  1.2228  0.8645
13661TIP3    H262399   6.006   2.583  12.231  0.2415 -1.0614 -1.4035
13662TIP3   OH262400   4.297   6.473   5.055 -0.0910  0.5337  0.0946
13662TIP3    H162401   4.203   6.453   5.059  0.2380 -1.1061 -0.1778
13662TIP3    H262402   4.301   6.560   5.014 -1.4041 -0.1738 -1.6007
13663TIP3   OH262403   2.892   0.758   3.491  0.4803  0.2434 -0.2155
13663TIP3    H162404   2.947   0.759   3.413 -0.1242 -0.4352 -0.6519
13663TIP3    H262405   2.808   0.794   3.462  0.3263  0.2053  0.1807
13664TIP3   OH262406   2.406   2.827  11.807  0.3487  0.3408  0.4306
13664TIP3    H162407   2.335   2.861  11.861  0.3642 -0.7620  1.1738
13664TIP3    H262408   2.413   2.888  11.734 -1.7107  0.1974  0.0688
13665TIP3   OH262409   4.380   0.850  11.543  0.2630  0.4235 -0.2129
13665TIP3    H162410   4.381   0.860  11.447  1.3471 -1.5287 -0.4506
13665TIP3    H262411   4.348   0.761  11.557  1.5522  0.1502  1.1604
13666TIP3   OH262412   6.325   1.152   3.775 -0.3207 -0.0840  0.0165
13666TIP3    H162413   6.259   1.106   3.827 -0.6057  0.4687  0.1431
13666TIP3    H262414   6.305   1.129   3.684  0.4883 -1.4616  0.1797
13667TIP3   OH262415   3.121   4.267   5.324  0.0852 -0.0620  0.4790
13667TIP3    H162416   3.162   4.211   5.390 -1.0505 -1.8100 -0.2506
13667TIP3    H262417   3.090   4.343   5.373  1.7679  0.0224  1.4727
13668TIP3   OH262418   1.324   0.103   0.353  0.1035  0.1673  0.3765
13668TIP3    H162419   1.352   0.172   0.292 -0.6281  0.6728  0.6041
13668TIP3    H262420   1.233   0.125   0.374  0.4717  0.2322  1.9640
13669TIP3   OH262421   4.357   3.630  11.534 -0.0282 -0.0424  0.5304
13669TIP3    H162422   4.324   3.632  11.624 -1.1295 -1.5022  0.1829
13669TIP3    H262423   4.331   3.544  11.501  0.4506  0.4425 -1.1490
13670TIP3   OH262424   5.878   6.247   3.644 -0.1179  0.3397 -0.1421
13670TIP3    H162425   5.959   6.197   3.634 -0.2475  0.6342 -2.9175
13670TIP3    H262426   5.842   6.218   3.728  1.8735 -1.2086  0.2021
13671TIP3   OH262427   6.498   4.165  16.052  0.1245 -0.2758  0.0038
13671TIP3    H162428   6.542   4.224  16.113  1.3587  0.0929 -1.2296
13671TIP3    H262429   6.408   4.163  16.083  1.2308 -2.0860  3.3795
13672TIP3   OH262430   5.498   1.194   5.790 -0.2975 -0.2941  0.0202
13672TIP3    H162431   5.464   1.217   5.703 -2.2077  1.4607  1.1721
13672TIP3    H262432   5.429   1.142   5.830 -0.2388  0.4778  1.1656
13673TIP3   OH262433   2.218   5.130  13.726 -0.4257 -0.0215  0.6054
13673TIP3    H162434   2.226   5.114  13.632  1.2481  1.3752  0.4770
13673TIP3    H262435   2.137   5.087  13.751 -2.1357  1.5967 -1.9370
13674TIP3   OH262436   6.534   5.731  15.171 -0.1992  0.5872 -0.2765
13674TIP3    H162437   6.581   5.745  15.089 -1.4031  2.4873 -0.6815
13674TIP3    H262438   6.485   5.812  15.184 -0.7129 -0.0409  1.8694
13675TIP3   OH262439   1.485   2.839  12.783  0.0837 -0.5292  0.0640
13675TIP3    H162440   1.456   2.748  12.772 -2.3774  0.5768 -3.3618
13675TIP3    H262441   1.410   2.884  12.821  0.8928  0.3179  0.6691
13676TIP3   OH262442   3.899   4.947   3.128 -0.0225 -0.1408 -0.3110
13676TIP3    H162443   3.923   5.025   3.079  0.4898 -0.7975 -1.1245
13676TIP3    H262444   3.982   4.911   3.158 -0.3307  0.2145  0.9707
13677TIP3   OH262445   1.880   2.800   0.942  0.0290 -0.4669  0.7373
13677TIP3    H162446   1.902   2.878   0.892  1.5915 -0.6120  1.1801
13677TIP3    H262447   1.796   2.820   0.982  0.9751  1.4665  1.8200
13678TIP3   OH262448   5.719   0.830   6.395  0.3025 -0.7229 -0.6226
13678TIP3    H162449   5.717   0.746   6.351  0.6370 -0.4148 -1.2298
13678TIP3    H262450   5.812   0.851   6.404  0.2322 -0.6633 -0.0045
13679TIP3   OH262451   3.311   4.337  12.827  0.1833  0.3935  0.1591
13679TIP3    H162452   3.259   4.319  12.905  0.8021 -2.1531  0.0436
13679TIP3    H262453   3.269   4.412  12.786 -1.2144  0.6277  1.9808
13680TIP3   OH262454   5.349   4.312   1.459  0.0638  0.6820  0.6320
13680TIP3    H162455   5.368   4.345   1.547  0.7839 -0.3684  0.8781
13680TIP3    H262456   5.364   4.218   1.465  0.0608  0.5985 -0.5981
13681TIP3   OH262457   4.339   2.361  15.507  0.0089  0.2896 -0.4217
13681TIP3    H162458   4.244   2.371  15.514  0.1481  4.4415 -3.0307
13681TIP3    H262459   4.350   2.282  15.454 -1.9594 -0.0287 -0.4193
13682TIP3   OH262460   1.821   3.038   3.849 -0.4491 -0.1815 -0.0145
13682TIP3    H162461   1.894   3.051   3.788  1.9709 -1.8173  2.4128
13682TIP3    H262462   1.799   3.126   3.879  0.6176  0.3256 -0.6722
13683TIP3   OH262463   5.946   3.080   3.483 -0.1245 -0.3112  0.1487
13683TIP3    H162464   5.972   3.008   3.425  1.2646 -1.7416  2.4794
13683TIP3    H262465   6.015   3.145   3.475 -0.5397  0.0281 -0.6954
13684TIP3   OH262466   1.796   3.843  16.493 -0.0914  0.1262  0.4039
13684TIP3    H162467   1.708   3.873  16.517  0.5110  1.0887  1.4622
13684TIP3    H262468   1.786   3.809  16.404 -1.3416  1.1313  0.1423
13685TIP3   OH262469   6.167   2.991  13.304  0.0159  0.0516  0.0061
13685TIP3    H162470   6.180   2.979  13.210 -0.2344 -0.4843  0.0385
13685TIP3    H262471   6.252   3.017  13.337  0.6257 -1.7728 -0.0514
13686TIP3   OH262472   5.039   3.851   5.660  0.6405  0.7391  0.0105
13686TIP3    H162473   5.047   3.794   5.737 -1.4703 -0.4353 -0.6097
13686TIP3    H262474   5.006   3.934   5.695 -2.4839 -0.4981  0.1536
13687TIP3   OH262475   1.657   5.680  13.515  0.3073  0.4081 -0.2096
13687TIP3    H162476   1.724   5.692  13.448  0.4604 -1.3804 -0.3923
13687TIP3    H262477   1.575   5.673  13.467  0.4104 -0.8228 -0.2098
13688TIP3   OH262478   4.185   0.125   1.945 -0.1543 -0.4330  0.1619
13688TIP3    H162479   4.118   0.077   1.994  0.3287 -0.1185  1.1359
13688TIP3    H262480   4.227   0.058   1.891 -0.8933 -0.7267 -0.0499
13689TIP3   OH262481   5.012   4.350  16.001 -0.2320 -0.2394 -0.3354
13689TIP3    H162482   5.071   4.281  16.030 -1.7201 -1.6017 -0.4867
13689TIP3    H262483   5.036   4.365  15.909  1.9253  1.4144  0.4481
13690TIP3   OH262484   5.127   0.986  10.809  0.1683 -0.1085  0.1209
13690TIP3    H162485   5.112   1.079  10.794  0.2208 -0.2056 -0.5473
13690TIP3    H262486   5.049   0.943  10.773  0.7504 -0.4171 -0.7809
13691TIP3   OH262487   1.263   4.376  13.242 -0.6986  0.2584 -0.0214
13691TIP3    H162488   1.211   4.421  13.176 -0.9653 -1.2840 -0.8840
13691TIP3    H262489   1.201   4.354  13.311 -1.2711 -1.7926 -1.1569
13692TIP3   OH262490   1.845   6.121  11.655 -0.2374  0.3469 -0.4877
13692TIP3    H162491   1.803   6.079  11.581 -0.9676 -0.3229  0.2902
13692TIP3    H262492   1.786   6.105  11.729  0.4880  0.9640  0.2426
13693TIP3   OH262493   6.050   3.864  10.997  0.5371  0.0112 -0.3020
13693TIP3    H162494   6.033   3.896  10.908  0.8273  1.1950  0.0628
13693TIP3    H262495   5.963   3.849  11.034  0.4053 -0.0389 -0.6293
13694TIP3   OH262496   2.216   4.676   5.303  0.1245  0.2032 -0.5932
13694TIP3    H162497   2.142   4.622   5.331 -0.7171  2.1409  1.0149
13694TIP3    H262498   2.225   4.743   5.370  3.5100 -0.0809 -0.6481
13695TIP3   OH262499   3.955   0.052  11.225 -0.2412 -0.3601  0.5452
13695TIP3    H162500   3.917   0.111  11.159 -1.8551 -3.1897 -1.1208
13695TIP3    H262501   3.902   0.068  11.303 -1.8999 -0.8969 -0.4277
13696TIP3   OH262502   6.064   4.500  16.756  0.2680 -0.1568  0.1512
13696TIP3    H162503   6.089   4.414  16.721  0.3751 -0.4075  0.8320
13696TIP3    H262504   5.973   4.511  16.727  0.7094  0.1429 -1.1466
13697TIP3   OH262505   2.946   1.803   5.708  0.3671  0.0557  0.1698
13697TIP3    H162506   2.956   1.887   5.752 -1.2556  1.0730 -1.3178
13697TIP3    H262507   3.031   1.789   5.666  0.5660  1.1057  0.1902
13698TIP3   OH262508   4.262   6.323  15.727 -0.7474  0.7537 -0.1040
13698TIP3    H162509   4.308   6.276  15.658 -0.5218  0.9825 -0.1098
13698TIP3    H262510   4.302   6.410  15.728 -0.3878  0.5841  0.6743
13699TIP3   OH262511   0.577   1.937   5.248 -0.3486  0.2526  0.2328
13699TIP3    H162512   0.554   1.852   5.210 -1.6307  0.6648  0.0487
13699TIP3    H262513   0.664   1.924   5.286  0.0364 -0.7570 -0.9658
13700TIP3   OH262514   0.477   5.952   0.323  0.0941 -0.2680  0.0690
13700TIP3    H162515   0.389   5.924   0.348  0.6468 -1.8095  0.4057
13700TIP3    H262516   0.494   5.906   0.240 -0.0756  1.3987 -0.9021
13701TIP3   OH262517   6.674   5.496   0.521 -0.1883  0.2702 -0.0441
13701TIP3    H162518   6.770   5.497   0.530 -0.1669  0.2696 -0.2818
13701TIP3    H262519   6.648   5.413   0.562  0.1982 -1.3252 -2.8574
13702TIP3   OH262520   3.090   4.750   1.963 -0.2267 -0.5985 -0.0399
13702TIP3    H162521   3.099   4.672   1.908 -3.7371 -0.3581 -1.0383
13702TIP3    H262522   3.028   4.725   2.031 -0.1027  0.8212  0.6165
13703TIP3   OH262523   3.588   5.370   2.360 -0.7296 -0.0158  0.2907
13703TIP3    H162524   3.558   5.315   2.287 -0.8478 -0.2139  0.4892
13703TIP3    H262525   3.509   5.389   2.410 -0.8450  1.1133 -0.2950
13704TIP3   OH262526   2.902   3.410   3.039  0.5249  0.0106  0.0159
13704TIP3    H162527   2.945   3.490   3.070 -0.7376  0.9469 -0.5727
13704TIP3    H262528   2.918   3.346   3.108  1.9679  0.6339  0.2776
13705TIP3   OH262529   4.150   0.046  11.413 -0.0377 -0.2675  0.3325
13705TIP3    H162530   4.235   0.057  11.369  0.4297  0.0757  1.3128
13705TIP3    H262531   4.090   0.023  11.342  0.7660 -0.0043 -0.4505
13706TIP3   OH262532   2.549   1.868   1.897  0.1343 -0.1613  0.0478
13706TIP3    H162533   2.539   1.783   1.855 -1.8115  0.6788 -1.2720
13706TIP3    H262534   2.482   1.868   1.967 -0.4638  0.6013 -0.5176
13707TIP3   OH262535   6.312   5.740  13.098 -0.0027  0.3546  0.0272
13707TIP3    H162536   6.361   5.658  13.096  0.5710  0.7024 -1.9208
13707TIP3    H262537   6.223   5.715  13.121  0.4664 -0.6443  0.7527
13708TIP3   OH262538   0.313   5.677  11.346 -0.2465 -0.0331 -0.0122
13708TIP3    H162539   0.319   5.627  11.265 -2.8125 -1.1371  0.4203
13708TIP3    H262540   0.286   5.612  11.412  0.1235  1.1754  1.3477
13709TIP3   OH262541   1.165   6.723  12.849 -0.3428 -0.4535 -0.2814
13709TIP3    H162542   1.150   6.714  12.943  1.6454  0.0079  0.1149
13709TIP3    H262543   1.247   6.676  12.834  0.7258  1.6882 -1.2978
13710TIP3   OH262544   4.254   3.394   0.302 -0.2301  0.4804  0.1941
13710TIP3    H162545   4.213   3.313   0.272 -1.5915  0.3347  2.2853
13710TIP3    H262546   4.181   3.447   0.335  1.1058  0.5383  3.2760
13711TIP3   OH262547   2.584   0.558   2.492  0.0485  0.2213  0.1797
13711TIP3    H162548   2.679   0.569   2.487  0.2356 -0.7049  1.3013
13711TIP3    H262549   2.571   0.495   2.563 -1.2592 -2.0130 -1.9505
13712TIP3   OH262550   0.917   5.550  15.308 -0.6502 -0.3307  0.5454
13712TIP3    H162551   0.926   5.504  15.225 -0.8305  0.6126 -0.0082
13712TIP3    H262552   0.846   5.506  15.353 -1.5701  0.1063 -0.4555
13713TIP3   OH262553   0.530   4.386   3.514 -0.4645  0.1888  0.2309
13713TIP3    H162554   0.532   4.369   3.609 -0.4579  1.0945  0.4012
13713TIP3    H262555   0.464   4.326   3.480  1.4521 -2.0996  0.4012
13714TIP3   OH262556   1.782   1.123   5.007  0.1713 -0.5343 -0.0742
13714TIP3    H162557   1.830   1.168   4.937  0.4287  0.1738  0.5554
13714TIP3    H262558   1.692   1.153   4.997  0.1055 -0.8635 -0.4534
13715TIP3   OH262559   3.328   3.782  13.908  0.6088 -0.0553  0.3293
13715TIP3    H162560   3.326   3.815  13.998  0.6003 -1.1596  0.7484
13715TIP3    H262561   3.246   3.734  13.898  1.1536 -0.9533  0.1356
13716TIP3   OH262562   1.909   2.102   2.431 -0.2278 -0.2453 -0.1658
13716TIP3    H162563   1.919   2.117   2.337  0.5267 -1.7788 -0.3428
13716TIP3    H262564   1.817   2.081   2.442 -0.1150 -1.0599 -0.7154
13717TIP3   OH262565   2.144   3.189  11.644  0.0578 -0.3088  0.8173
13717TIP3    H162566   2.220   3.245  11.659 -1.2170  1.6967  0.0488
13717TIP3    H262567   2.140   3.182  11.548 -0.2182 -1.1212  0.8925
13718TIP3   OH262568   0.055   1.348   3.064 -0.0337 -0.1578 -0.2208
13718TIP3    H162569   0.134   1.341   3.011 -1.5361  1.1257 -2.7549
13718TIP3    H262570   0.013   1.429   3.033 -1.2021  0.3994  2.6563
13719TIP3   OH262571   0.659   1.597  15.137  0.8223  0.5407  0.4661
13719TIP3    H162572   0.737   1.551  15.107 -0.4397 -1.7599  0.6143
13719TIP3    H262573   0.638   1.557  15.221 -1.0835  0.4276 -0.0327
13720TIP3   OH262574   4.504   6.105  11.803 -0.1434  0.1283  0.1126
13720TIP3    H162575   4.472   6.152  11.880 -1.5947  0.1201 -0.4796
13720TIP3    H262576   4.430   6.104  11.742  0.7880 -0.4142 -1.0384
13721TIP3   OH262577   1.991   3.155  14.058 -0.5531 -0.6790 -0.0233
13721TIP3    H162578   1.897   3.140  14.069 -0.4009  0.2423  3.0360
13721TIP3    H262579   2.032   3.083  14.105  0.2424  0.6133  1.2849
13722TIP3   OH262580   4.810   5.141  14.692  0.2719  0.4946  0.2604
13722TIP3    H162581   4.870   5.206  14.655  2.1219 -2.2088 -1.6932
13722TIP3    H262582   4.740   5.133  14.627 -0.6737  1.4970  1.1433
13723TIP3   OH262583   1.476   3.723  12.411  0.2695  0.0027 -0.2960
13723TIP3    H162584   1.381   3.735  12.410  0.2827  0.3647  1.4532
13723TIP3    H262585   1.504   3.760  12.494  1.7873 -1.3351 -0.1857
13724TIP3   OH262586   2.480   0.127  12.632  0.3470  0.2480 -0.2489
13724TIP3    H162587   2.554   0.080  12.671 -0.6637 -1.4685 -0.3122
13724TIP3    H262588   2.413   0.127  12.700 -0.6448 -0.8505 -1.1935
13725TIP3   OH262589   6.138   5.809   3.512  0.7986  0.5634  0.2722
13725TIP3    H162590   6.058   5.765   3.543  1.2510  0.3023  1.1056
13725TIP3    H262591   6.160   5.764   3.431 -0.4916  1.3471 -0.5399
13726TIP3   OH262592   0.776   4.785   6.757  0.6113 -0.0285  0.4946
13726TIP3    H162593   0.850   4.809   6.702 -0.4743  0.2882 -0.8718
13726TIP3    H262594   0.732   4.715   6.709  0.4514 -0.7345  1.6552
13727TIP3   OH262595   4.289   2.846  14.148 -0.0330 -0.3946 -0.0066
13727TIP3    H162596   4.198   2.825  14.126  0.0405  2.4501 -3.4941
13727TIP3    H262597   4.340   2.804  14.079  1.3255 -1.7024  1.7585
13728TIP3   OH262598   0.472   3.559   4.611  0.4199 -0.4452  0.3488
13728TIP3    H162599   0.454   3.499   4.539  0.1682 -0.4656  0.4279
13728TIP3    H262600   0.409   3.630   4.598  1.8548  0.6642 -0.7581
13729TIP3   OH262601   3.671   6.709  14.578  0.3531  0.3541 -0.7120
13729TIP3    H162602   3.654   6.650  14.652  1.2147  0.1704 -0.6553
13729TIP3    H262603   3.622   6.789  14.600 -2.4550 -1.0098 -1.7392
13730TIP3   OH262604   6.254   4.652   4.808 -0.0241  0.0565 -0.4333
13730TIP3    H162605   6.288   4.703   4.881  0.5526 -0.2456 -0.4884
13730TIP3    H262606   6.160   4.645   4.825  0.1484 -0.2411  0.4208
13731TIP3   OH262607   3.229   1.149   3.736  0.6025  0.5962 -0.4258
13731TIP3    H162608   3.136   1.148   3.758  0.3159  2.1830 -1.4935
13731TIP3    H262609   3.261   1.062   3.761 -0.9281  0.4043  0.9125
13732TIP3   OH262610   5.388   3.951  15.048  0.5830 -0.3819  0.3306
13732TIP3    H162611   5.306   3.960  15.097  0.3922  1.4875 -0.2995
13732TIP3    H262612   5.381   4.015  14.977  1.4060 -2.1667 -1.3902
13733TIP3   OH262613   6.323   1.864  16.948  0.1053 -0.0959  0.1020
13733TIP3    H162614   6.397   1.868  16.887  0.6513 -0.6236  0.7257
13733TIP3    H262615   6.303   1.956  16.966 -1.9141  0.1657 -3.0601
13734TIP3   OH262616   5.625   5.746  15.250  1.1476 -0.2613  0.3153
13734TIP3    H162617   5.545   5.763  15.301  1.1922  1.3586 -0.1030
13734TIP3    H262618   5.679   5.824  15.265  1.2818  0.1214 -1.9379
13735TIP3   OH262619   2.663   2.054   1.541 -0.4893  0.1756 -0.2193
13735TIP3    H162620   2.666   1.960   1.559 -2.7431 -0.1783 -1.5124
13735TIP3    H262621   2.606   2.090   1.609 -0.5686  0.4308 -0.4194
13736TIP3   OH262622   2.591   3.283  16.977  0.1625 -0.0173  0.3577
13736TIP3    H162623   2.522   3.346  17.000 -1.1857 -0.8031 -1.4245
13736TIP3    H262624   2.600   3.290  16.882  0.5018 -1.9789  0.2192
13737TIP3   OH262625   3.556   3.677  12.937 -0.1949  0.8113  0.1172
13737TIP3    H162626   3.553   3.679  13.032 -0.3672  2.2408  0.0959
13737TIP3    H262627   3.551   3.769  12.911  0.5310  0.4802 -1.2473
13738TIP3   OH262628   0.296   6.121  12.239 -0.3494  0.6899  0.2119
13738TIP3    H162629   0.382   6.142  12.203 -0.5889  1.8373  0.2808
13738TIP3    H262630   0.281   6.029  12.215 -0.1980  1.2276 -2.0279
13739TIP3   OH262631   6.634   0.936   2.769  0.0141 -0.1358 -0.5901
13739TIP3    H162632   6.719   0.925   2.726 -0.3802  0.6664 -1.5859
13739TIP3    H262633   6.605   0.846   2.786  1.1371 -0.4195 -0.0629
13740TIP3   OH262634   1.674   6.588   4.145 -0.6255 -0.0655 -0.1030
13740TIP3    H162635   1.755   6.587   4.196 -0.7378  1.0071  0.1005
13740TIP3    H262636   1.664   6.498   4.115  0.7282 -0.1686 -0.2639
13741TIP3   OH262637   2.505   6.782   3.117  0.2555  0.4947  0.0466
13741TIP3    H162638   2.421   6.739   3.134  1.1480 -1.7787 -1.0557
13741TIP3    H262639   2.570   6.721   3.153  1.7238 -0.5176 -4.1004
13742TIP3   OH262640   3.967   1.708  16.342  0.3601  0.5197  0.6524
13742TIP3    H162641   4.034   1.763  16.303 -2.3205  0.0204 -5.2210
13742TIP3    H262642   3.989   1.619  16.311 -2.4536  0.2648 -0.7661
13743TIP3   OH262643   4.377   4.451   3.614 -0.1935  0.5432 -0.3673
13743TIP3    H162644   4.400   4.359   3.627 -1.0252  0.3233 -0.3916
13743TIP3    H262645   4.425   4.497   3.683  0.1142  0.0746 -0.2630
13744TIP3   OH262646   4.836   2.795  16.153  0.1848  0.5107 -0.5121
13744TIP3    H162647   4.788   2.712  16.156 -0.4084  0.8155 -1.2851
13744TIP3    H262648   4.789   2.847  16.087 -0.2970  1.9689  0.9415
13745TIP3   OH262649   6.290   4.591   1.659 -0.5630  0.2721  0.0665
13745TIP3    H162650   6.219   4.529   1.674 -0.1992 -0.0619  0.4420
13745TIP3    H262651   6.298   4.595   1.563 -0.1229 -0.8130  0.0473
13746TIP3   OH262652   2.764   5.333  14.161 -0.0099 -0.2566 -0.5194
13746TIP3    H162653   2.785   5.245  14.192 -0.8226 -0.2443  0.0941
13746TIP3    H262654   2.750   5.324  14.067 -1.6597 -1.0990 -0.2171
13747TIP3   OH262655   5.617   5.804   4.384 -0.1918 -0.3372 -0.2650
13747TIP3    H162656   5.629   5.772   4.474 -1.1211  0.0836  0.0158
13747TIP3    H262657   5.528   5.839   4.383 -0.5587 -1.2791 -1.6422
13748TIP3   OH262658   4.463   0.023  16.682  0.1916 -0.4333  0.2347
13748TIP3    H162659   4.456  -0.061  16.728  0.5953 -0.7673 -0.3166
13748TIP3    H262660   4.546   0.018  16.635  1.8725  1.5728  2.8041
13749TIP3   OH262661   0.771   2.444  13.120  0.3084  0.1790 -0.1994
13749TIP3    H162662   0.865   2.426  13.109 -0.0975 -1.9937 -0.3253
13749TIP3    H262663   0.749   2.502  13.047  0.9679 -1.5259 -1.7865
13750TIP3   OH262664   3.506   1.338   1.915  0.1273 -0.0361  0.1793
13750TIP3    H162665   3.453   1.287   1.853 -3.0142  1.5546  1.4195
13750TIP3    H262666   3.538   1.274   1.978 -1.7984 -0.8380  0.3736
13751TIP3   OH262667   1.265   4.515   3.581  0.0217 -0.2030 -0.3999
13751TIP3    H162668   1.232   4.602   3.604  0.5684 -0.2750  0.6848
13751TIP3    H262669   1.193   4.456   3.603 -0.8241  0.0965 -2.3259
13752TIP3   OH262670   4.983   1.372   2.442 -0.2706 -0.4554  0.6880
13752TIP3    H162671   5.060   1.405   2.489  1.1536 -2.5646 -0.1190
13752TIP3    H262672   4.952   1.448   2.393  2.2243  0.0726 -0.1794
13753TIP3   OH262673   2.844   0.702  11.377 -0.1499  0.1141  0.1285
13753TIP3    H162674   2.873   0.612  11.357 -1.2439 -0.1191 -0.4237
13753TIP3    H262675   2.926   0.750  11.391  0.4576 -0.9210  0.2415
13754TIP3   OH262676   1.828   5.468   3.086  0.4871  0.3138 -0.1523
13754TIP3    H162677   1.853   5.439   2.998  0.7386  0.6130 -0.1803
13754TIP3    H262678   1.733   5.458   3.089  0.4214  0.7635 -0.6302
13755TIP3   OH262679   0.395   3.240   5.852 -0.1135  0.4014  0.2362
13755TIP3    H162680   0.482   3.277   5.867  0.1428 -0.5241  1.0961
13755TIP3    H262681   0.359   3.226   5.940 -1.6932  2.0279 -0.1029
13756TIP3   OH262682   2.765   2.757  13.018  0.3545  0.0622 -0.2484
13756TIP3    H162683   2.778   2.822  13.086 -1.2322  0.1150  0.0395
13756TIP3    H262684   2.846   2.757  12.968  1.3812  0.3225  1.3867
13757TIP3   OH262685   5.925   6.058  16.459  0.8422  0.2795  0.3921
13757TIP3    H162686   5.966   6.098  16.383 -0.7090 -1.7714 -1.5902
13757TIP3    H262687   5.844   6.107  16.472  0.5383 -0.1286  0.0137
13758TIP3   OH262688   3.593   1.066  13.428 -0.1995 -0.4875 -0.0842
13758TIP3    H162689   3.552   1.011  13.494  0.0052  0.9200  1.2363
13758TIP3    H262690   3.524   1.080  13.363 -1.0905 -0.0976  0.9250
13759TIP3   OH262691   1.166   0.759   1.579  0.3326 -0.2495 -0.2855
13759TIP3    H162692   1.209   0.840   1.553  0.8826 -0.6147 -0.5184
13759TIP3    H262693   1.138   0.719   1.497 -1.8240  0.7194 -0.0652
13760TIP3   OH262694   0.867   2.059   4.942  0.0883  0.0947 -0.0524
13760TIP3    H162695   0.834   2.136   4.988 -2.0140 -1.0013  0.3329
13760TIP3    H262696   0.959   2.079   4.925 -0.1367  2.2075  1.0369
13761TIP3   OH262697   2.853   3.179  16.800 -0.3306 -0.1387  0.0337
13761TIP3    H162698   2.890   3.246  16.742 -1.2956  0.1717 -0.2267
13761TIP3    H262699   2.908   3.182  16.878  0.4239  0.0652 -0.4944
13762TIP3   OH262700   3.804   3.269   4.739 -0.2202  0.4613  0.2143
13762TIP3    H162701   3.720   3.230   4.763 -0.8940  1.0668 -1.0700
13762TIP3    H262702   3.788   3.363   4.741  0.2421  0.5689 -0.6475
13763TIP3   OH262703   6.564   5.311  12.969  0.0433  0.5713 -0.0166
13763TIP3    H162704   6.503   5.237  12.959 -0.1772  0.8397 -0.6671
13763TIP3    H262705   6.645   5.280  12.930 -0.4362  1.1439 -1.5092
13764TIP3   OH262706   3.536   4.358   1.835 -0.4395 -1.0613  0.0572
13764TIP3    H162707   3.612   4.386   1.785 -0.9654 -1.5922 -1.0562
13764TIP3    H262708   3.479   4.315   1.771 -1.5863 -0.8443  0.9103
13765TIP3   OH262709   0.753   2.044  17.135  0.5847  0.9081 -0.1979
13765TIP3    H162710   0.780   1.958  17.164 -0.2057  0.4695 -0.7493
13765TIP3    H262711   0.818   2.069  17.069 -0.7250 -0.4482 -2.0418
13766TIP3   OH262712   0.692   3.828   4.597  0.7791  0.7069 -0.3447
13766TIP3    H162713   0.710   3.855   4.507  0.0923 -0.1927 -0.7507
13766TIP3    H262714   0.638   3.750   4.589 -0.6716  1.5441  0.8423
13767TIP3   OH262715   3.369   2.418   4.281 -0.3901  0.2394  0.6081
13767TIP3    H162716   3.350   2.423   4.375  2.8262 -1.1195  1.3864
13767TIP3    H262717   3.346   2.329   4.256 -0.4250  0.3336  0.3016
13768TIP3   OH262718   5.449   6.492   5.010  0.2919 -0.1439  0.0052
13768TIP3    H162719   5.393   6.425   5.049  2.3163 -2.0726 -0.2985
13768TIP3    H262720   5.479   6.545   5.084 -0.2103 -0.4167  0.4099
13769TIP3   OH262721   0.245   4.685   3.524 -0.2815  0.3580 -0.4380
13769TIP3    H162722   0.282   4.731   3.599 -0.1840 -0.3433 -0.0456
13769TIP3    H262723   0.221   4.598   3.558 -2.2966  0.7840 -0.6607
13770TIP3   OH262724   4.081   5.727   0.763 -0.3379 -0.2914 -0.0203
13770TIP3    H162725   4.158   5.673   0.780 -0.0926 -0.3283 -1.2551
13770TIP3    H262726   4.060   5.713   0.671 -0.1497  1.8712 -0.4191
13771TIP3   OH262727   6.694   6.479  11.601  0.1870 -0.4579  0.1185
13771TIP3    H162728   6.719   6.554  11.548  0.7361 -0.4227  0.4165
13771TIP3    H262729   6.777   6.449  11.639 -0.2201 -0.3550  1.1038
13772TIP3   OH262730   4.058   6.674   2.266  0.2076  0.5160  0.6133
13772TIP3    H162731   4.151   6.688   2.281  0.2734 -0.4488  1.1964
13772TIP3    H262732   4.024   6.647   2.352 -0.5065  0.3520  0.2878
13773TIP3   OH262733   6.486   2.918  11.351 -0.4341 -0.0224 -0.1073
13773TIP3    H162734   6.436   2.898  11.430  0.0288 -1.7236 -0.2438
13773TIP3    H262735   6.517   2.834  11.319  0.5173  0.7807 -1.3673
13774TIP3   OH262736   4.544   3.035  13.335  0.3816  0.2758 -0.2550
13774TIP3    H162737   4.519   3.063  13.247 -0.9267  0.6389  0.2170
13774TIP3    H262738   4.467   3.056  13.389 -0.2071 -3.1248  0.3432
13775TIP3   OH262739   0.889   1.291   6.226 -0.0084 -0.1537  0.4407
13775TIP3    H162740   0.916   1.299   6.317  0.4521 -1.9970  0.4741
13775TIP3    H262741   0.794   1.278   6.230  0.2954 -2.4037  0.7903
13776TIP3   OH262742   2.549   3.179   6.581 -0.1812 -0.5201 -0.0248
13776TIP3    H162743   2.496   3.239   6.528  0.0092 -0.6822 -0.4011
13776TIP3    H262744   2.615   3.236   6.621 -1.9915  0.0362  2.2292
13777TIP3   OH262745   2.747   1.371   4.764  0.2135  0.4142 -0.2720
13777TIP3    H162746   2.694   1.316   4.822  0.9109  1.2682  1.1919
13777TIP3    H262747   2.826   1.319   4.749 -0.0049  0.1554 -0.5432
13778TIP3   OH262748   3.858   2.923   2.946 -0.1608  0.4207 -0.7548
13778TIP3    H162749   3.893   3.012   2.950  0.2489  0.1692  1.4022
13778TIP3    H262750   3.770   2.930   2.982  0.1161 -0.1551  0.0488
13779TIP3   OH262751   5.429   5.107   3.335  0.0771  0.6416  0.0741
13779TIP3    H162752   5.412   5.156   3.255 -0.1637  1.3039  0.5341
13779TIP3    H262753   5.437   5.016   3.305 -3.6633  0.3480 -0.2492
13780TIP3   OH262754   3.725   3.951   1.146 -0.7692  0.3816  0.3457
13780TIP3    H162755   3.754   3.972   1.057  2.1523  1.7804  1.5278
13780TIP3    H262756   3.658   4.016   1.166  0.9713  2.2742  0.3028
13781TIP3   OH262757   3.761   0.905  15.646  0.1531 -0.0396  0.6054
13781TIP3    H162758   3.811   0.870  15.720 -0.2004  1.0242  1.3622
13781TIP3    H262759   3.689   0.953  15.687 -0.0445  0.5618 -0.4303
13782TIP3   OH262760   1.406   5.401  16.031 -0.0842  0.2502 -0.0433
13782TIP3    H162761   1.476   5.447  15.986  0.3847 -0.5076 -0.1044
13782TIP3    H262762   1.445   5.374  16.114 -0.1129 -0.6871 -0.3230
13783TIP3   OH262763   1.056   1.299  13.369 -0.0097 -0.4985  0.0041
13783TIP3    H162764   1.082   1.208  13.361 -1.5155 -1.2627  3.1384
13783TIP3    H262765   1.004   1.317  13.290  1.5375 -1.8915 -1.3361
13784TIP3   OH262766   6.464   1.206   0.189  0.0676  0.2102 -0.3087
13784TIP3    H162767   6.515   1.192   0.269 -1.7184 -2.9929  0.3346
13784TIP3    H262768   6.405   1.279   0.211 -0.3048 -0.5380  1.2416
13785TIP3   OH262769   2.897   1.781   5.101  0.3960  0.0778 -0.6216
13785TIP3    H162770   2.989   1.791   5.076  0.4405  0.6795 -0.2191
13785TIP3    H262771   2.874   1.693   5.072  1.9607 -1.2474  2.0291
13786TIP3   OH262772   0.016   2.727   4.081  0.1724 -0.6071 -0.3767
13786TIP3    H162773   0.062   2.693   4.157 -3.1514 -2.2723  1.0050
13786TIP3    H262774   0.015   2.654   4.019  1.0772  0.0642 -1.1914
13787TIP3   OH262775   6.616   6.717  13.477 -0.3775  0.4923  0.5536
13787TIP3    H162776   6.647   6.754  13.560 -0.2097 -0.1066  0.7602
13787TIP3    H262777   6.648   6.779  13.410  2.7516 -0.9546  0.6088
13788TIP3   OH262778   0.533   0.348  15.720 -0.3632 -0.2178 -0.5099
13788TIP3    H162779   0.566   0.433  15.751 -1.0569  0.0782 -0.5665
13788TIP3    H262780   0.611   0.294  15.709  0.1458  0.6341 -1.1213
13789TIP3   OH262781   5.845   0.780  11.338 -0.4988  0.4246 -0.1917
13789TIP3    H162782   5.822   0.688  11.329 -0.7294  0.4746 -0.1344
13789TIP3    H262783   5.844   0.814  11.248  1.2770 -0.0148 -0.4070
13790TIP3   OH262784   1.678   3.225  13.430  0.6309 -0.5444  0.1807
13790TIP3    H162785   1.602   3.262  13.475  0.4783 -0.7526  0.0918
13790TIP3    H262786   1.736   3.195  13.500  0.0714 -1.5172  0.2170
13791TIP3   OH262787   4.355   0.334   0.858 -0.1312  0.1546 -0.5166
13791TIP3    H162788   4.418   0.286   0.911  0.3409  1.2961 -0.0216
13791TIP3    H262789   4.407   0.398   0.810 -0.9092  1.1967 -0.0060
13792TIP3   OH262790   3.521   6.036   1.802  0.2679  0.1866  0.0407
13792TIP3    H162791   3.535   6.020   1.709 -1.1824  0.2606 -0.1921
13792TIP3    H262792   3.601   6.003   1.844  0.5208 -0.7083 -1.1312
13793TIP3   OH262793   0.958   4.156   2.453  0.0068 -0.3555 -0.1557
13793TIP3    H162794   0.954   4.241   2.496  0.2707  0.5256 -1.8133
13793TIP3    H262795   1.038   4.159   2.400 -1.4878 -0.4993 -2.5028
13794TIP3   OH262796   2.431   4.041  12.632 -0.2743  0.4132  0.5151
13794TIP3    H162797   2.341   4.029  12.603 -0.6565  1.1682  1.3693
13794TIP3    H262798   2.484   4.021  12.555 -1.2150  1.1863 -0.3439
13795TIP3   OH262799   5.603   5.486   6.711  0.1020  0.0737 -0.6424
13795TIP3    H162800   5.574   5.572   6.743  1.5456  0.4719 -0.3450
13795TIP3    H262801   5.605   5.495   6.616  0.1242  0.3310 -0.6186
13796TIP3   OH262802   2.832   5.586   0.703 -0.0150 -0.2945 -0.2279
13796TIP3    H162803   2.741   5.613   0.696 -0.5355 -1.9991 -0.2461
13796TIP3    H262804   2.834   5.497   0.666  2.2331  0.8974 -3.1700
13797TIP3   OH262805   3.159   5.108   6.045  0.2710 -0.4547  0.7058
13797TIP3    H162806   3.190   5.109   6.135 -0.7061 -1.9014  1.0654
13797TIP3    H262807   3.239   5.100   5.992  0.8215  0.1219  1.4340
13798TIP3   OH262808   2.288   2.186  12.509 -0.3303  0.0374 -0.0180
13798TIP3    H162809   2.274   2.252  12.441 -1.9781 -0.6921 -0.4105
13798TIP3    H262810   2.200   2.162  12.538  0.3074 -0.8171  1.2642
13799TIP3   OH262811   1.929   5.788  11.704 -0.2264 -0.0271 -0.1163
13799TIP3    H162812   1.835   5.784  11.691 -0.4012 -0.0489  1.0912
13799TIP3    H262813   1.952   5.879  11.684 -0.7950  0.4629  1.3956
13800TIP3   OH262814   6.604   5.417  16.011 -0.1679  1.1033  0.5466
13800TIP3    H162815   6.561   5.490  15.966 -2.4033  0.2279  1.1511
13800TIP3    H262816   6.666   5.382  15.947 -1.1277  1.7746 -0.7784
13801TIP3   OH262817   1.760   1.505  11.417 -0.1180  0.0774  0.1539
13801TIP3    H162818   1.825   1.502  11.347  1.0635 -0.7810  1.2719
13801TIP3    H262819   1.698   1.572  11.389  1.3858  1.0871 -0.8088
13802TIP3   OH262820   5.822   0.860   1.941 -0.2043  0.4819  0.3590
13802TIP3    H162821   5.871   0.813   1.873 -0.4627  1.3951 -0.4780
13802TIP3    H262822   5.886   0.875   2.011 -0.1106 -1.0517  0.6109
13803TIP3   OH262823   2.800   1.227  11.074  0.0582  0.1896  0.2810
13803TIP3    H162824   2.818   1.320  11.085  1.4700 -0.1563  0.9737
13803TIP3    H262825   2.705   1.221  11.072 -0.1138  2.0954 -3.6256
13804TIP3   OH262826   0.516   0.268   4.840 -0.8142 -0.2172 -0.0797
13804TIP3    H162827   0.492   0.215   4.916  2.8106 -0.2018  1.1738
13804TIP3    H262828   0.569   0.339   4.876  2.0816 -0.9427 -2.7247
13805TIP3   OH262829   0.933   4.100   1.217 -0.3463  0.2161 -0.5146
13805TIP3    H162830   0.848   4.130   1.183 -0.1552  0.9367 -0.3709
13805TIP3    H262831   0.985   4.081   1.139 -0.1897  1.0696 -0.6276
13806TIP3   OH262832   1.175   0.447   0.908 -0.5460 -0.2915 -0.4646
13806TIP3    H162833   1.121   0.395   0.968 -1.0987  0.5495 -0.2060
13806TIP3    H262834   1.253   0.395   0.893 -0.6465 -0.7539  0.5719
13807TIP3   OH262835   6.556   0.296   3.392  0.0738 -0.3131  0.2401
13807TIP3    H162836   6.503   0.357   3.341  0.4373 -0.7204 -0.6327
13807TIP3    H262837   6.640   0.341   3.404 -0.2561  0.0894  1.1263
13808TIP3   OH262838   1.487   4.397   2.072  0.1800  0.1816 -0.2512
13808TIP3    H162839   1.462   4.356   2.154 -0.9626  1.2889 -0.0180
13808TIP3    H262840   1.417   4.461   2.055  1.5204  1.5081 -0.9447
13809TIP3   OH262841   3.887   1.380   3.184  0.0353 -0.9676  0.2109
13809TIP3    H162842   3.793   1.389   3.168 -0.0840 -2.9625 -0.4258
13809TIP3    H262843   3.897   1.289   3.214  1.6351 -0.4680  1.2465
13810TIP3   OH262844   4.807   2.456  16.554  0.9424  0.1068  0.6891
13810TIP3    H162845   4.719   2.490  16.570  0.1849 -1.2941 -0.3995
13810TIP3    H262846   4.841   2.510  16.483  1.1448  0.9500  1.4222
13811TIP3   OH262847   5.031   0.868   6.215  0.6037  0.3690  0.0644
13811TIP3    H162848   4.998   0.828   6.296  0.8212  1.1366  0.5426
13811TIP3    H262849   5.106   0.920   6.244  0.1705  1.3198 -0.4988
13812TIP3   OH262850   3.694   4.463   3.941  0.6095 -0.2919  0.6307
13812TIP3    H162851   3.685   4.475   3.846  0.9412  0.8960  0.7415
13812TIP3    H262852   3.605   4.446   3.971  0.3713  0.1754  0.2098
13813TIP3   OH262853   0.246   6.196   2.697  0.4814 -0.0251  0.2109
13813TIP3    H162854   0.299   6.133   2.745  2.8510  2.7041  1.3401
13813TIP3    H262855   0.207   6.251   2.765 -1.3512 -0.0867 -0.7540
13814TIP3   OH262856   5.087   1.335   2.076  0.1493  0.1546  0.0574
13814TIP3    H162857   5.038   1.369   2.001  0.7767  0.7471 -0.0951
13814TIP3    H262858   5.132   1.412   2.111  0.5202 -0.2814  0.5370
13815TIP3   OH262859   4.814   3.066  12.748 -0.3620 -0.1907 -0.2767
13815TIP3    H162860   4.893   3.013  12.740 -0.2466  0.0287 -0.5969
13815TIP3    H262861   4.818   3.103  12.836  0.4458  0.7031 -0.6832
13816TIP3   OH262862   2.443   5.976  11.344  0.9892  0.3364  0.0096
13816TIP3    H162863   2.356   6.010  11.323  1.8613  0.6919 -3.3022
13816TIP3    H262864   2.472   6.028  11.419 -1.7584 -0.0288  1.4124
13817TIP3   OH262865   4.431   6.768   3.932  0.1401 -0.2338 -0.1715
13817TIP3    H162866   4.504   6.823   3.961 -0.2190 -0.1130  0.5015
13817TIP3    H262867   4.353   6.814   3.962 -0.2040 -0.5283 -0.6178
13818TIP3   OH262868   4.240   3.154  15.611  0.5009 -0.0442  0.8281
13818TIP3    H162869   4.248   3.117  15.699 -0.2382  0.0094  0.9149
13818TIP3    H262870   4.211   3.244  15.626  0.5706  0.0270  0.5336
13819TIP3   OH262871   1.137   1.156  16.055  0.5650  0.0593  0.3805
13819TIP3    H162872   1.124   1.173  16.148  0.5771  0.9287  0.2216
13819TIP3    H262873   1.150   1.061  16.050 -2.3515 -0.4245  0.9493
13820TIP3   OH262874   6.547   2.696  12.446 -0.2114  0.1369  0.3406
13820TIP3    H162875   6.607   2.621  12.438 -0.3255 -0.2281  2.5663
13820TIP3    H262876   6.593   2.757  12.504 -1.2302  0.6113  0.6551
13821TIP3   OH262877   6.525   3.057  12.345  0.8422 -0.6011  0.6882
13821TIP3    H162878   6.461   2.989  12.321  1.4441 -0.8334 -0.3025
13821TIP3    H262879   6.610   3.013  12.342  1.2430  0.1926 -0.0064
13822TIP3   OH262880   1.367   4.088   0.858 -0.1442 -0.0497  0.6130
13822TIP3    H162881   1.387   4.067   0.767  0.9521 -0.2709  0.8982
13822TIP3    H262882   1.413   4.021   0.909  0.4125  0.9036  1.3874
13823TIP3   OH262883   3.535   4.226  10.371 -0.9145  0.0699  0.1479
13823TIP3    H162884   3.446   4.192  10.378 -1.5698  1.8834  0.9854
13823TIP3    H262885   3.523   4.318  10.346  0.6743  0.6928  1.6094
13824TIP3   OH262886   3.729   4.148  14.493 -0.1775  0.0883  0.2633
13824TIP3    H162887   3.659   4.214  14.497 -0.2638  0.0540 -0.5381
13824TIP3    H262888   3.714   4.092  14.569 -0.8962  0.2044  0.2078
13825TIP3   OH262889   5.854   5.797   1.406 -0.2355  0.2945 -0.3095
13825TIP3    H162890   5.817   5.883   1.429 -2.3818 -0.4463 -0.8468
13825TIP3    H262891   5.777   5.741   1.393  1.1097 -1.3405 -1.3947
13826TIP3   OH262892   0.974   4.403   2.591  0.4122  0.2268 -0.4837
13826TIP3    H162893   1.034   4.475   2.612  0.4530  0.2348 -0.6275
13826TIP3    H262894   0.888   4.435   2.617  0.5069  0.1059 -0.0068
13827TIP3   OH262895   4.792   5.479  11.121  0.0676  0.3516 -0.4303
13827TIP3    H162896   4.709   5.447  11.085  0.8101 -1.2431 -0.7691
13827TIP3    H262897   4.836   5.519  11.047  0.1224  0.1114 -0.5297
13828TIP3   OH262898   6.337   4.382   2.994  0.1081  0.2229  0.0294
13828TIP3    H162899   6.288   4.337   2.925 -1.8412 -0.1659  1.5939
13828TIP3    H262900   6.375   4.311   3.046  2.3739  0.5242 -1.1559
13829TIP3   OH262901   6.127   2.078  13.064 -0.0995  0.3530 -0.6059
13829TIP3    H162902   6.095   1.995  13.028  0.8769  0.0122 -0.7068
13829TIP3    H262903   6.061   2.142  13.039 -1.5839 -0.6251  0.6560
13830TIP3   OH262904   3.554   0.115   0.381 -0.0578 -0.0816 -0.0379
13830TIP3    H162905   3.545   0.141   0.289 -1.3067 -0.2869  0.0264
13830TIP3    H262906   3.625   0.051   0.381 -0.1671 -0.2068 -0.8825
13831TIP3   OH262907   5.619   0.439   3.072  0.3128 -0.1242  0.5358
13831TIP3    H162908   5.584   0.433   2.983  0.3826 -0.5427  0.5347
13831TIP3    H262909   5.565   0.379   3.123 -1.6056  2.2635  1.3939
13832TIP3   OH262910   4.028   4.842  14.329 -0.7505 -0.2514 -0.0534
13832TIP3    H162911   4.121   4.827  14.313 -0.5620  0.5273  0.2506
13832TIP3    H262912   3.985   4.825  14.245 -0.2995 -0.3793 -0.2540
13833TIP3   OH262913   6.714   5.803   4.760 -0.3477  0.0581  0.6492
13833TIP3    H162914   6.689   5.712   4.745  0.3620 -0.2527  1.2994
13833TIP3    H262915   6.798   5.813   4.715 -1.2745  0.8904 -0.9075
13834TIP3   OH262916   5.633   3.095   3.083 -0.0700  0.7853  0.2789
13834TIP3    H162917   5.622   3.043   3.003 -1.0797 -1.3412  1.7180
13834TIP3    H262918   5.723   3.077   3.111 -0.4841 -0.4484  0.8926
13835TIP3   OH262919   3.484   0.241   0.117 -0.0746  0.1099  0.1066
13835TIP3    H162920   3.518   0.297   0.047 -1.8585  3.2364  1.6774
13835TIP3    H262921   3.390   0.235   0.099 -0.3699  0.0529  1.6611
13836TIP3   OH262922   4.815   1.961  13.883  0.2658  0.2633 -0.1973
13836TIP3    H162923   4.788   1.871  13.900 -1.3334  0.8211  0.3331
13836TIP3    H262924   4.779   2.011  13.957 -2.2481  1.9269 -2.4385
13837TIP3   OH262925   3.832   2.596   1.218 -0.5898 -0.0083 -0.1459
13837TIP3    H162926   3.922   2.579   1.246 -0.7733  0.7027  0.8880
13837TIP3    H262927   3.800   2.511   1.188  1.1858  0.1660 -2.7797
13838TIP3   OH262928   0.605   0.561   1.274 -0.1007  0.0404  1.0715
13838TIP3    H162929   0.565   0.636   1.229 -1.4836 -0.0104  2.1662
13838TIP3    H262930   0.693   0.591   1.297  0.0691  0.6162 -0.2508
13839TIP3   OH262931   2.649   5.910   4.039 -0.4307 -0.2137 -0.1466
13839TIP3    H162932   2.681   5.820   4.035  0.7159  0.1806  0.0325
13839TIP3    H262933   2.649   5.932   4.132  2.3246  1.0313 -0.4064
13840TIP3   OH262934   3.206   0.491   2.026  0.2620 -0.1438 -0.4713
13840TIP3    H162935   3.276   0.436   1.991  0.3175 -0.2147 -0.2502
13840TIP3    H262936   3.132   0.432   2.039  0.3458 -0.1854 -0.1626
13841TIP3   OH262937   5.129   1.659   2.489 -0.3417  0.4522  0.7486
13841TIP3    H162938   5.087   1.634   2.571 -0.4429  2.1313  1.2354
13841TIP3    H262939   5.206   1.709   2.516  0.5210 -0.3541 -0.1718
13842TIP3   OH262940   4.953   5.602   1.311  0.5225 -0.0764 -0.4219
13842TIP3    H162941   4.963   5.659   1.387 -2.2595  0.7745 -0.6253
13842TIP3    H262942   5.031   5.546   1.312  1.4518  1.1884  1.9459
13843TIP3   OH262943   3.062   6.459  12.369  0.2897  0.6084 -0.4557
13843TIP3    H162944   3.021   6.446  12.455  1.2908 -1.5962 -0.2847
13843TIP3    H262945   3.032   6.386  12.316  0.8382  1.1647 -1.5654
13844TIP3   OH262946   3.935   2.309   0.810  0.0060 -0.3745  0.3915
13844TIP3    H162947   3.986   2.317   0.891 -1.7404  0.8301  1.3844
13844TIP3    H262948   3.992   2.346   0.743  0.3130  1.3177  1.5543
13845TIP3   OH262949   3.736   0.705   2.338  0.2521 -0.3477  0.5483
13845TIP3    H162950   3.749   0.770   2.269 -2.9233 -0.4746 -0.2418
13845TIP3    H262951   3.751   0.753   2.419  1.3420  0.4778 -0.1211
13846TIP3   OH262952   4.525   0.434  13.190 -0.2152  0.0385  0.4553
13846TIP3    H162953   4.547   0.502  13.127  0.3605 -0.2025  0.3963
13846TIP3    H262954   4.543   0.474  13.275 -1.0312  0.3778  0.4781
13847TIP3   OH262955   3.937   5.771   2.073 -0.4205  0.4593 -0.2919
13847TIP3    H162956   4.031   5.763   2.093 -0.6259 -1.2108  0.0919
13847TIP3    H262957   3.894   5.768   2.158 -0.8741  0.4788 -0.5187
13848TIP3   OH262958   5.307   4.713   0.534 -0.7976  0.3233  0.4528
13848TIP3    H162959   5.261   4.691   0.453  2.0147 -0.5857 -0.9411
13848TIP3    H262960   5.323   4.628   0.576  1.1834  0.4502  0.0100
13849TIP3   OH262961   2.136   0.885  10.983  0.0168 -0.1458 -0.3840
13849TIP3    H162962   2.102   0.933  10.908  2.7293 -1.1617 -2.3615
13849TIP3    H262963   2.074   0.814  10.997 -0.0979 -0.4156 -2.2022
13850TIP3   OH262964   4.176   1.365  11.765 -0.4148 -0.2240  0.0738
13850TIP3    H162965   4.148   1.334  11.851 -0.4778 -0.8382 -0.1612
13850TIP3    H262966   4.096   1.399  11.725 -0.1450  1.1760  0.7269
13851TIP3   OH262967   2.922   2.268   1.639 -0.1251  0.0934  0.3100
13851TIP3    H162968   2.844   2.213   1.641  0.7932 -1.3413 -1.5535
13851TIP3    H262969   2.942   2.278   1.546  1.5699  0.9209  0.7398
13852TIP3   OH262970   0.237   1.344   1.695 -0.0562 -0.4538  0.2234
13852TIP3    H162971   0.304   1.319   1.631 -0.2793  0.0618 -0.2193
13852TIP3    H262972   0.181   1.267   1.702  0.0118 -0.5389 -0.1516
13853TIP3   OH262973   4.804   0.559  11.918 -0.2297  0.3063 -0.2314
13853TIP3    H162974   4.835   0.569  11.828  0.3826 -1.0310 -0.1908
13853TIP3    H262975   4.710   0.576  11.914 -0.2152  0.1905 -1.1411
13854TIP3   OH262976   5.574   1.322  15.917  0.3087  0.1177  0.4926
13854TIP3    H162977   5.652   1.345  15.866  1.1775  0.7910  2.0887
13854TIP3    H262978   5.531   1.405  15.935  0.1528 -0.0931  1.0957
13855TIP3   OH262979   5.580   0.565  16.697  0.1859 -0.9903 -0.6379
13855TIP3    H162980   5.649   0.502  16.715 -1.4233 -2.3286  1.0339
13855TIP3    H262981   5.606   0.644  16.746  1.9055 -0.5055 -2.2712
13856TIP3   OH262982   6.554   2.736  13.728 -0.1143  0.2477 -0.0911
13856TIP3    H162983   6.645   2.740  13.698 -0.3727  3.1926 -0.6480
13856TIP3    H262984   6.507   2.695  13.655  0.1314  2.5175 -1.5797
13857TIP3   OH262985   1.208   3.473  17.128 -0.2933  0.2447 -0.6517
13857TIP3    H162986   1.292   3.436  17.099  0.2259  1.0282 -0.1701
13857TIP3    H262987   1.175   3.410  17.192  0.6829  0.6927  0.3160
13858TIP3   OH262988   6.581   6.333   5.734 -0.3349 -0.7495 -0.5493
13858TIP3    H162989   6.668   6.364   5.712  0.1249  0.2561  2.4867
13858TIP3    H262990   6.594   6.274   5.809 -2.1199 -1.5663 -0.8428
13859TIP3   OH262991   6.362   4.894   0.606  0.4057 -0.0598 -0.1867
13859TIP3    H162992   6.361   4.830   0.534 -1.0320  0.1157 -0.3353
13859TIP3    H262993   6.450   4.931   0.604  0.5478 -0.4463 -1.5231
13860TIP3   OH262994   5.525   1.555   1.164  0.6882  0.0223 -0.2785
13860TIP3    H162995   5.558   1.474   1.126  0.1944 -1.0597  1.5401
13860TIP3    H262996   5.454   1.582   1.106  0.0581 -1.5115 -0.2278
13861TIP3   OH262997   2.367   3.549  15.086 -0.0711  0.5336  0.3346
13861TIP3    H162998   2.434   3.507  15.033 -2.2812  0.4721 -2.4987
13861TIP3    H262999   2.337   3.481  15.146 -0.8719 -0.8272 -1.5674
13862TIP3   OH263000   3.857   5.602   6.648 -0.2619  0.3836  0.2186
13862TIP3    H163001   3.811   5.593   6.564  1.1699  0.5412 -0.5982
13862TIP3    H263002   3.830   5.526   6.698 -0.4481 -0.1738 -0.7201
13863TIP3   OH263003   2.059   2.248   5.912 -0.7737 -0.4099  0.6300
13863TIP3    H163004   2.122   2.190   5.869  1.6064  2.3993  0.1962
13863TIP3    H263005   2.075   2.237   6.006 -1.3991 -1.5411  0.6215
13864TIP3   OH263006   6.013   1.394   3.067  0.1293  0.0462  0.1588
13864TIP3    H163007   6.039   1.482   3.096 -1.4399  0.4454  0.4039
13864TIP3    H263008   5.954   1.410   2.993  0.1582 -0.8214 -0.0545
13865TIP3   OH263009   3.204   0.997   3.959  0.2617 -0.5007 -0.0163
13865TIP3    H163010   3.238   1.012   4.048 -1.2932 -1.2763  0.7336
13865TIP3    H263011   3.116   1.034   3.962  0.2157 -0.5179 -1.2597
13866TIP3   OH263012   5.555   0.475  16.147 -0.0245 -0.3749 -0.2197
13866TIP3    H163013   5.469   0.487  16.107  0.2769  3.0897 -0.0589
13866TIP3    H263014   5.548   0.521  16.231  1.3934 -1.7864  0.6978
13867TIP3   OH263015   0.078   2.957  11.672 -0.0632 -0.2665 -0.0469
13867TIP3    H163016   0.073   2.862  11.675  0.7041 -0.3097 -0.1866
13867TIP3    H263017  -0.003   2.984  11.629 -1.6285 -0.7052  2.5231
13868TIP3   OH263018   6.412   1.044   4.901  0.0737 -0.5981 -0.3709
13868TIP3    H163019   6.477   0.975   4.894  1.5992  0.8795 -1.0331
13868TIP3    H263020   6.375   1.034   4.989  1.7499 -0.9742  0.2938
13869TIP3   OH263021   1.079   2.040   0.711  0.9283  0.4283 -0.6387
13869TIP3    H163022   1.071   2.053   0.616 -1.0013  0.6069 -0.4604
13869TIP3    H263023   1.108   2.124   0.745  0.3075  0.7497 -0.9076
13870TIP3   OH263024   3.578   1.967  13.124 -0.0020 -0.2222 -0.4210
13870TIP3    H163025   3.500   2.023  13.122  0.1190 -0.0694 -0.9644
13870TIP3    H263026   3.632   1.999  13.052  0.1686 -0.9014 -0.5988
13871TIP3   OH263027   1.306   4.481  13.953  0.2597 -0.6028  0.1063
13871TIP3    H163028   1.337   4.435  13.875 -0.7724 -1.1694  0.0181
13871TIP3    H263029   1.258   4.557  13.920 -0.4716 -1.0313  0.1779
13872TIP3   OH263030   5.841   4.661  15.642 -0.3570 -0.0378  0.3715
13872TIP3    H163031   5.811   4.588  15.587 -0.8746 -0.0899  0.7128
13872TIP3    H263032   5.925   4.686  15.605 -1.4742  1.0427 -1.5236
13873TIP3   OH263033   2.038   0.876  16.303  0.3675 -0.3737  0.3067
13873TIP3    H163034   2.105   0.940  16.328  0.3761 -0.5132  0.6373
13873TIP3    H263035   1.978   0.925  16.246  0.5449 -0.1523  0.3132
13874TIP3   OH263036   0.175   1.429   4.838  0.0956 -0.0121 -0.1092
13874TIP3    H163037   0.081   1.415   4.827  0.3567 -1.0934 -1.0626
13874TIP3    H263038   0.216   1.376   4.770  1.4187  0.0535  0.6012
13875TIP3   OH263039   2.204   3.399  15.520 -0.2297 -0.0285  0.5167
13875TIP3    H163040   2.193   3.304  15.516 -0.6323 -0.1320  3.3471
13875TIP3    H263041   2.298   3.412  15.506  0.3118 -1.0804  2.9529
13876TIP3   OH263042   2.564   3.890   1.817 -0.3826  1.0148  0.3087
13876TIP3    H163043   2.566   3.881   1.912 -0.7276  0.2010  0.2512
13876TIP3    H263044   2.471   3.899   1.796 -0.4176  0.0041 -0.0341
13877TIP3   OH263045   6.363   5.798  16.220 -0.0631 -0.1964 -0.4953
13877TIP3    H163046   6.372   5.892  16.203  0.5866 -0.3677 -1.1423
13877TIP3    H263047   6.440   5.759  16.178 -0.7853 -1.1090 -0.9867
13878TIP3   OH263048   3.189   4.907   4.577  0.0236  0.4886  0.7570
13878TIP3    H163049   3.216   4.952   4.657  1.7607  3.1215 -1.2698
13878TIP3    H263050   3.260   4.845   4.559 -0.0568  0.3674  0.8506
13879TIP3   OH263051   3.212   6.462   4.921  0.0214  0.0740 -0.3149
13879TIP3    H163052   3.282   6.471   4.986  1.0702  0.7591 -1.5099
13879TIP3    H263053   3.206   6.549   4.881 -0.3292 -0.4464 -1.4170
13880TIP3   OH263054   4.876   3.543  16.879 -0.2135 -0.1220 -0.0743
13880TIP3    H163055   4.971   3.530  16.877 -0.3104 -0.9079  0.2555
13880TIP3    H263056   4.849   3.509  16.964 -0.6853  0.8624  0.1718
13881TIP3   OH263057   1.475   5.952  16.975 -0.6469  0.4456  1.1245
13881TIP3    H163058   1.404   5.994  16.927 -0.9013  0.5551  1.5867
13881TIP3    H263059   1.529   6.025  17.005  0.8346  0.2487 -1.0222
13882TIP3   OH263060   1.350   4.943   3.734 -1.0658  0.2139 -0.2046
13882TIP3    H163061   1.410   4.898   3.793  0.2196  1.6236 -0.3959
13882TIP3    H263062   1.268   4.896   3.742 -1.0155  0.5855  2.9472
13883TIP3   OH263063   6.069   1.184  14.284 -0.2747 -0.3278 -0.3928
13883TIP3    H163064   6.156   1.223  14.297 -0.6003  0.3157 -0.0860
13883TIP3    H263065   6.085   1.107  14.230  0.3918  0.2473 -1.0304
13884TIP3   OH263066   4.517   5.975   1.339  0.4284 -0.2994 -0.2022
13884TIP3    H163067   4.538   6.005   1.427  0.5437 -2.7881  0.6576
13884TIP3    H263068   4.463   5.897   1.353 -3.5048  1.8929 -2.3437
13885TIP3   OH263069   0.058   1.360   1.269 -0.3394 -0.8409 -0.1898
13885TIP3    H163070  -0.029   1.356   1.229  0.0530 -0.2515 -1.1242
13885TIP3    H263071   0.044   1.399   1.355 -0.8629  0.1826 -0.7430
13886TIP3   OH263072   3.452   2.964  15.914  0.4259  0.4989  0.2404
13886TIP3    H163073   3.411   2.941  15.830  0.7327 -0.2195  0.2872
13886TIP3    H263074   3.521   2.899  15.926  0.4703  0.6794  0.9906
13887TIP3   OH263075   0.277   3.627   1.108  0.1972  0.5756 -0.0130
13887TIP3    H163076   0.363   3.653   1.141 -0.7350  1.6270  1.6719
13887TIP3    H263077   0.257   3.547   1.156  0.9868 -0.7013 -1.7314
13888TIP3   OH263078   6.554   2.539   3.287 -0.5039  0.0272 -0.4137
13888TIP3    H163079   6.465   2.533   3.322  0.0619 -1.2130  0.8436
13888TIP3    H263080   6.550   2.612   3.225 -2.1374  0.6503  0.3926
13889TIP3   OH263081   0.378   0.862   6.296  0.0244  0.1892 -0.5985
13889TIP3    H163082   0.418   0.949   6.305 -0.1219  0.2148 -0.1897
13889TIP3    H263083   0.285   0.880   6.283 -0.7188  0.0178  3.5897
13890TIP3   OH263084   6.153   2.698  12.498 -0.4504 -0.5226  0.1322
13890TIP3    H163085   6.122   2.787  12.515  1.2672 -0.0891  1.1136
13890TIP3    H263086   6.092   2.663  12.432 -0.3511  1.8365 -1.2528
13891TIP3   OH263087   3.796   3.046  12.529  0.2837 -0.4010  0.4702
13891TIP3    H163088   3.824   3.116  12.470  0.0131 -0.3788  0.3647
13891TIP3    H263089   3.875   2.993  12.543  0.3668 -0.3635  0.1492
13892TIP3   OH263090   4.055   2.921   3.749 -0.1113  0.1190 -0.6320
13892TIP3    H163091   4.135   2.874   3.768  0.1936  0.0198 -2.0685
13892TIP3    H263092   4.002   2.860   3.698 -0.1723  0.9214 -1.5625
13893TIP3   OH263093   1.738   2.023  13.575 -0.2534 -0.2856 -0.5505
13893TIP3    H163094   1.798   1.956  13.543  1.7562  1.6588 -0.9747
13893TIP3    H263095   1.725   2.081  13.500 -1.7459 -0.0216 -0.1099
13894TIP3   OH263096   5.556   6.667   5.181 -0.0388 -0.3648  0.2456
13894TIP3    H163097   5.523   6.656   5.270 -0.8364 -0.1797 -0.0316
13894TIP3    H263098   5.557   6.761   5.167 -1.8291 -0.4617 -0.6595
13895TIP3   OH263099   5.950   6.507   3.856  0.0661 -0.2214 -0.1916
13895TIP3    H163100   5.946   6.546   3.769 -1.8332  2.2799  0.9566
13895TIP3    H263101   5.862   6.475   3.873 -0.1580  1.2104  1.5975
13896TIP3   OH263102   2.724   5.743  13.577  0.2962 -0.5686 -0.0934
13896TIP3    H163103   2.641   5.695  13.572  0.5144 -0.8250 -1.7390
13896TIP3    H263104   2.723   5.784  13.663 -1.7339 -0.2503 -0.2345
13897TIP3   OH263105   0.739   6.639   2.096  0.3054  0.2713 -0.6269
13897TIP3    H163106   0.797   6.662   2.168 -1.8469 -0.6867  1.4575
13897TIP3    H263107   0.664   6.698   2.105 -1.0434 -1.4044 -0.6897
13898TIP3   OH263108   3.200   4.251   4.844 -0.7738 -0.3135  0.3979
13898TIP3    H163109   3.175   4.251   4.752 -0.8990 -0.3818  0.4320
13898TIP3    H263110   3.268   4.318   4.850 -0.9112 -0.1641  0.2947
13899TIP3   OH263111   4.498   0.218  16.061  0.3924  0.6626 -0.1688
13899TIP3    H163112   4.590   0.239  16.047  0.7862 -0.1356  1.0780
13899TIP3    H263113   4.472   0.170  15.982  0.1367  3.6141 -1.9362
13900TIP3   OH263114   4.417   2.625  15.396 -0.3328  0.4066 -0.1392
13900TIP3    H163115   4.371   2.554  15.440  0.4968  1.6637  2.8384
13900TIP3    H263116   4.354   2.698  15.396 -0.4750  0.3051 -1.4593
13901TIP3   OH263117   6.694   2.300  14.003 -0.4421 -0.1127  0.3224
13901TIP3    H163118   6.680   2.223  13.948  1.1266 -0.6543  0.6529
13901TIP3    H263119   6.741   2.361  13.947  0.8830 -0.5405  0.9585
13902TIP3   OH263120   1.182   4.993  13.965 -0.0157 -0.0888  0.2448
13902TIP3    H163121   1.150   4.935  14.033 -0.7289  1.8049  1.5445
13902TIP3    H263122   1.130   5.073  13.974  1.6165  1.1353 -0.8734
13903TIP3   OH263123   0.490   0.834   1.485 -0.0067 -0.2973  0.0129
13903TIP3    H163124   0.480   0.741   1.504 -0.3448 -0.4825 -1.0263
13903TIP3    H263125   0.460   0.843   1.394  1.1174  0.6243 -0.2758
13904TIP3   OH263126   3.401   2.848   0.635 -0.3189  0.2169 -0.0169
13904TIP3    H163127   3.474   2.856   0.697 -0.7148  1.5805  0.2972
13904TIP3    H263128   3.426   2.904   0.561 -1.0880  0.7875  0.1453
13905TIP3   OH263129   1.763   4.707  14.141 -0.2314 -0.8007 -0.0199
13905TIP3    H163130   1.686   4.652  14.132  1.8467 -3.5941 -1.5483
13905TIP3    H263131   1.795   4.718  14.051  2.1728 -1.2764  0.7347
13906TIP3   OH263132   1.953   6.633  12.053  0.3265 -0.8050  0.6972
13906TIP3    H163133   1.893   6.679  11.995  0.4116 -0.6122  0.7599
13906TIP3    H263134   2.024   6.695  12.068  1.3771 -1.6365 -0.7094
13907TIP3   OH263135   4.296   5.572   4.755 -0.1867 -0.1226 -0.1433
13907TIP3    H163136   4.376   5.521   4.746  0.5176  0.5948  1.9832
13907TIP3    H263137   4.264   5.551   4.843 -1.1020  1.3567 -0.1161
13908TIP3   OH263138   1.527   3.292   4.674 -0.0945  0.0483  0.7896
13908TIP3    H163139   1.516   3.359   4.741  0.1101  0.7410  0.1511
13908TIP3    H263140   1.500   3.210   4.715 -0.9712  0.6306  1.3828
13909TIP3   OH263141   1.799   0.770  10.825 -0.0537  1.0251  0.4234
13909TIP3    H163142   1.850   0.734  10.898 -0.3107  2.8592  1.5232
13909TIP3    H263143   1.825   0.717  10.749 -0.4967 -1.5186  2.0128
13910TIP3   OH263144   6.704   4.513   0.638 -0.6296  0.3602 -0.1854
13910TIP3    H163145   6.785   4.483   0.679  0.2305  1.3676 -1.1039
13910TIP3    H263146   6.640   4.445   0.658 -0.1049  0.5702  2.3452
13911TIP3   OH263147   6.035   3.923  12.538 -0.5946 -0.0572 -0.5289
13911TIP3    H163148   6.066   3.873  12.613  0.3554 -0.8079 -1.4090
13911TIP3    H263149   6.035   4.014  12.567 -0.7663 -0.3989  0.5517
13912TIP3   OH263150   6.633   4.296   2.627  0.2639 -0.8202 -0.2745
13912TIP3    H163151   6.671   4.255   2.705 -0.4527 -1.1308 -0.0858
13912TIP3    H263152   6.591   4.375   2.660 -0.8899 -1.4554 -0.1831
13913TIP3   OH263153   3.847   1.802  17.035 -0.1198 -0.0240 -0.4462
13913TIP3    H163154   3.868   1.713  17.007 -0.3464  0.0002 -0.7004
13913TIP3    H263155   3.789   1.792  17.110  1.9008 -0.0980  1.1428
13914TIP3   OH263156   2.336   5.904  14.493  0.4138  0.4717 -0.0145
13914TIP3    H163157   2.267   5.947  14.443 -2.5176 -1.8777  1.8498
13914TIP3    H263158   2.363   5.831  14.438 -0.3628 -0.0705  0.3159
13915TIP3   OH263159   5.463   4.907  11.308 -0.2520 -0.0087 -0.4451
13915TIP3    H163160   5.535   4.942  11.362 -1.0539  2.1394 -0.7072
13915TIP3    H263161   5.490   4.925  11.218 -1.9529  2.5496 -0.4771
13916TIP3   OH263162   2.774   5.675   4.026 -0.0187  0.2352  0.0854
13916TIP3    H163163   2.733   5.589   4.017  0.3454  0.1413 -0.7711
13916TIP3    H263164   2.863   5.662   3.991  0.1867  0.8476  0.3785
13917TIP3   OH263165   5.008   3.688  12.862 -0.2400 -0.5712 -0.6766
13917TIP3    H163166   5.009   3.767  12.917 -0.3725 -0.2905 -1.0769
13917TIP3    H263167   4.936   3.702  12.801 -0.5539 -1.2090 -0.4523
13918TIP3   OH263168   5.685   5.035  11.434 -0.2863 -0.3189  0.1402
13918TIP3    H163169   5.735   5.087  11.371  1.1245 -0.1927  1.3338
13918TIP3    H263170   5.746   5.022  11.507 -1.5322 -1.3856  0.9962
13919TIP3   OH263171   5.061   2.344   5.517  0.6143  0.0798  0.0701
13919TIP3    H163172   5.054   2.262   5.467 -0.4568 -0.0837  0.4718
13919TIP3    H263173   5.066   2.412   5.450 -0.7512 -0.1409 -0.2753
13920TIP3   OH263174   4.702   6.357   4.383  0.0158 -0.2619 -0.3164
13920TIP3    H163175   4.692   6.452   4.389 -0.8594 -0.3501 -0.2382
13920TIP3    H263176   4.688   6.337   4.291  0.4367 -0.2874 -0.3740
13921TIP3   OH263177   6.253   5.388   1.418 -0.0922 -0.3667 -0.5114
13921TIP3    H163178   6.267   5.448   1.345  1.2670 -0.2688 -0.1908
13921TIP3    H263179   6.249   5.444   1.495  0.0745 -0.5954 -0.3349
13922TIP3   OH263180   5.173   0.141  13.184  0.5793  0.0317 -0.2713
13922TIP3    H163181   5.250   0.161  13.130  0.7773  1.1343  0.4160
13922TIP3    H263182   5.109   0.208  13.159 -0.2488 -1.0118 -1.0007
13923TIP3   OH263183   3.793   0.315  16.076 -0.6930 -0.1876  0.1026
13923TIP3    H163184   3.804   0.406  16.048 -1.7112 -0.5916 -1.6981
13923TIP3    H263185   3.720   0.317  16.138 -0.0635  0.3528  0.8389
13924TIP3   OH263186   5.858   3.030   5.673 -0.1044 -0.2043  0.6185
13924TIP3    H163187   5.816   2.963   5.619 -0.3626 -0.4709  1.1562
13924TIP3    H263188   5.948   2.997   5.685 -1.0604 -1.9733  3.4140
13925TIP3   OH263189   1.258   0.682  11.427  0.0498 -0.2987 -0.2703
13925TIP3    H163190   1.226   0.660  11.515 -1.2152 -1.9106 -1.1000
13925TIP3    H263191   1.188   0.734  11.388 -0.0004 -0.7611 -0.8057
13926TIP3   OH263192   3.089   0.121  12.027  0.2896  0.0282  0.0352
13926TIP3    H163193   3.109   0.045  11.971  0.2184 -0.2243  0.3497
13926TIP3    H263194   3.003   0.151  11.997  0.6267  0.4164 -0.5606
13927TIP3   OH263195   5.034   2.688   1.522  0.6621  0.2535  0.4171
13927TIP3    H163196   5.117   2.732   1.542 -0.2367  1.6204  1.2064
13927TIP3    H263197   5.007   2.648   1.605 -0.8167  2.1271  0.8732
13928TIP3   OH263198   6.484   2.039  11.123 -0.1240 -0.0585 -0.3600
13928TIP3    H163199   6.495   2.134  11.121 -0.8603  0.0285 -0.2607
13928TIP3    H263200   6.495   2.015  11.215  0.2159 -0.0886 -0.4078
13929TIP3   OH263201   5.706   3.886  11.242  0.6959 -0.3674  0.2828
13929TIP3    H163202   5.736   3.837  11.166  2.2699  0.1057  0.5861
13929TIP3    H263203   5.613   3.865  11.249  1.0951 -2.3647 -0.2807
13930TIP3   OH263204   1.125   5.522  16.593 -0.0423  0.0373 -0.1698
13930TIP3    H163205   1.140   5.428  16.591 -0.9346 -0.1341  0.5802
13930TIP3    H263206   1.208   5.561  16.564  0.7538 -0.9359  0.7639
13931TIP3   OH263207   6.744   4.479   2.996 -0.0536  0.0370 -0.3366
13931TIP3    H163208   6.736   4.416   2.924 -1.4324 -0.4434  0.2231
13931TIP3    H263209   6.721   4.563   2.957  0.5780  0.0063 -0.7878
13932TIP3   OH263210   3.079   2.545  13.608  0.2433 -0.0808 -0.3520
13932TIP3    H163211   3.088   2.554  13.703  1.0396  1.7191 -0.5744
13932TIP3    H263212   2.985   2.553  13.591  0.2027  0.5662  0.1934
13933TIP3   OH263213   1.337   3.138  12.551  0.1731  0.0803 -0.3192
13933TIP3    H163214   1.382   3.162  12.470 -0.8157 -1.2234 -1.2907
13933TIP3    H263215   1.343   3.042  12.554 -1.2514  0.0014  0.2876
13934TIP3   OH263216   3.773   2.336   3.883  0.2156 -0.2004 -0.1086
13934TIP3    H163217   3.696   2.391   3.898 -0.2772 -1.1218  0.7352
13934TIP3    H263218   3.791   2.296   3.968  2.3283  0.8962  0.0097
13935TIP3   OH263219   6.662   0.258  15.783 -0.3196 -0.1562 -0.2187
13935TIP3    H163220   6.701   0.282  15.699  1.2986  1.5220  0.9711
13935TIP3    H263221   6.622   0.172  15.767  0.4868 -0.1505 -2.5185
13936TIP3   OH263222   6.216   1.796  16.593  0.0701 -0.3319  0.1497
13936TIP3    H163223   6.283   1.846  16.547  0.0886 -0.7650 -0.2914
13936TIP3    H263224   6.217   1.710  16.553  0.0970 -0.7248  0.9780
13937TIP3   OH263225   4.488   2.783  17.047  0.0554 -0.0479  0.1511
13937TIP3    H163226   4.520   2.721  16.981 -0.3575  1.7124 -1.7635
13937TIP3    H263227   4.567   2.827  17.079  0.1117  0.1398 -0.2493
13938TIP3   OH263228   2.267   2.225  15.115 -0.8122  0.0676  0.5701
13938TIP3    H163229   2.277   2.260  15.203  1.8030 -1.3097  0.8870
13938TIP3    H263230   2.286   2.298  15.057  1.7183 -0.0022  1.2145
13939TIP3   OH263231   4.510   4.591  11.855 -0.1451  0.0891 -0.4540
13939TIP3    H163232   4.529   4.578  11.948  0.6201  0.6445 -0.5350
13939TIP3    H263233   4.595   4.609  11.815 -0.1770 -2.1562 -1.6130
13940TIP3   OH263234   0.990   3.338   3.112  0.2559  0.1308  0.0547
13940TIP3    H163235   1.035   3.254   3.120  0.9723  0.4418 -0.6973
13940TIP3    H263236   0.927   3.325   3.041 -0.1946 -0.0130  0.4764
13941TIP3   OH263237   0.352   2.583   0.701 -0.5927  0.3181 -0.3771
13941TIP3    H163238   0.261   2.554   0.696 -1.5386  2.4646  2.7614
13941TIP3    H263239   0.358   2.655   0.638 -1.7705  1.7291  1.0711
13942TIP3   OH263240   2.773   2.288   0.997 -0.3051 -0.5487  0.2399
13942TIP3    H163241   2.803   2.357   1.056 -0.3147 -0.2865 -0.0612
13942TIP3    H263242   2.679   2.303   0.988  0.0941  0.9465 -1.8256
13943TIP3   OH263243   6.614   4.491  12.570 -0.2057  0.1834  0.0946
13943TIP3    H163244   6.527   4.480  12.531  0.7540  0.9969 -2.3853
13943TIP3    H263245   6.623   4.586  12.581  1.0509  0.2637 -1.3941
13944TIP3   OH263246   3.420   2.336  12.224  0.0151 -0.6915 -0.0101
13944TIP3    H163247   3.456   2.401  12.164 -1.0342 -0.7263 -0.6975
13944TIP3    H263248   3.492   2.315  12.284  1.1111 -0.7224 -1.3158
13945TIP3   OH263249   3.427   4.349   3.190  0.0788 -0.1279 -0.2825
13945TIP3    H163250   3.523   4.353   3.192  0.1038 -0.2868 -1.2027
13945TIP3    H263251   3.402   4.341   3.282  0.8752  1.8115  0.1432
13946TIP3   OH263252   2.147   0.788  11.648  0.8377  0.4397  0.1715
13946TIP3    H163253   2.148   0.745  11.563 -0.1441  1.5991 -0.4526
13946TIP3    H263254   2.054   0.807  11.664  0.7311 -1.7818  2.5561
13947TIP3   OH263255   2.707   0.787  12.872 -0.1647 -0.5054 -0.0990
13947TIP3    H163256   2.678   0.873  12.905  0.3545 -0.2215 -0.3779
13947TIP3    H263257   2.724   0.736  12.951 -0.5355 -0.3714  0.0691
13948TIP3   OH263258   0.817   4.255  13.356  0.2346  0.4134 -0.0485
13948TIP3    H163259   0.729   4.282  13.380  1.1892  0.2796  3.9958
13948TIP3    H263260   0.874   4.324  13.391  1.9240 -0.9956  0.0490
13949TIP3   OH263261   1.921   2.176   5.354  0.0693  0.4127 -0.1447
13949TIP3    H163262   2.006   2.141   5.382 -0.1764 -0.4350 -0.4557
13949TIP3    H263263   1.941   2.222   5.272  0.3519  0.8066  0.1458
13950TIP3   OH263264   2.420   3.036  17.224  0.5885 -0.3419 -0.0303
13950TIP3    H163265   2.413   2.942  17.236  1.1101 -0.3913 -0.1274
13950TIP3    H263266   2.381   3.052  17.137 -1.5054 -0.1966  0.8988
13951TIP3   OH263267   0.310   0.651   4.501  0.2563 -0.1353 -0.1468
13951TIP3    H163268   0.225   0.631   4.463  0.8651  0.3659 -1.8135
13951TIP3    H263269   0.316   0.595   4.579 -1.4985 -0.3081 -0.1287
13952TIP3   OH263270   1.366   5.794   1.216 -0.2437 -0.2111 -0.1733
13952TIP3    H163271   1.445   5.782   1.268 -0.4555  0.1025  0.2347
13952TIP3    H263272   1.339   5.885   1.234  0.0927  0.1413 -1.4185
13953TIP3   OH263273   5.148   2.631  13.182 -0.1342  0.1834 -0.2423
13953TIP3    H163274   5.081   2.698  13.190 -1.2699 -0.9446 -0.1183
13953TIP3    H263275   5.223   2.665  13.231 -1.6401  0.1530  2.1406
13954TIP3   OH263276   0.519   0.276  13.240 -0.3145 -0.3724  0.1224
13954TIP3    H163277   0.606   0.314  13.245 -0.8468  0.7307  1.3859
13954TIP3    H263278   0.487   0.300  13.153  1.6210 -3.0534 -1.4212
13955TIP3   OH263279   2.595   4.796   3.038  0.6666 -0.3238 -0.2324
13955TIP3    H163280   2.614   4.829   2.951 -1.1701  0.0589 -0.5006
13955TIP3    H263281   2.673   4.816   3.089  1.7804 -0.6156 -1.7921
13956TIP3   OH263282   0.078   3.204   5.427  0.2424  0.7694  0.7140
13956TIP3    H163283   0.098   3.297   5.440  0.3124  0.8176  0.2647
13956TIP3    H263284   0.139   3.175   5.359 -0.0833  0.5050  0.5316
13957TIP3   OH263285   1.185   2.934   0.663  0.4559 -0.1716  0.4781
13957TIP3    H163286   1.174   2.862   0.724 -0.7041 -1.2423 -0.9706
13957TIP3    H263287   1.270   2.918   0.622  0.7000 -0.0989  0.9500
13958TIP3   OH263288   4.089   1.199  14.576 -0.2965  0.7584  0.2233
13958TIP3    H163289   4.082   1.209  14.481  1.9195 -3.3575 -0.4829
13958TIP3    H263290   4.153   1.266  14.602  0.4980  0.6937 -1.4761
13959TIP3   OH263291   0.449   0.728   4.276 -0.0389  0.7518 -0.0940
13959TIP3    H163292   0.418   0.663   4.214 -1.3454  0.5367  0.7594
13959TIP3    H263293   0.400   0.710   4.356  1.1532  1.4256  0.8095
13960TIP3   OH263294   0.667   1.969   4.801  0.3350 -0.0139  0.0677
13960TIP3    H163295   0.746   1.968   4.855  0.4078  0.6711 -0.0153
13960TIP3    H263296   0.626   1.884   4.816  0.6605 -0.0551  0.7481
13961TIP3   OH263297   3.188   2.876   3.844 -0.2180  0.0951  0.4001
13961TIP3    H163298   3.101   2.913   3.854 -1.1549 -1.7344 -0.5594
13961TIP3    H263299   3.231   2.931   3.779 -1.8744 -0.9178 -1.6227
13962TIP3   OH263300   2.045   5.509   3.298 -0.2561  0.2641 -0.2829
13962TIP3    H163301   2.002   5.501   3.213  0.2964 -0.6877 -0.4807
13962TIP3    H263302   1.975   5.492   3.361 -0.6569  0.9151 -0.5491
13963TIP3   OH263303   6.343   5.800  12.827 -0.5238 -0.4144 -0.1193
13963TIP3    H163304   6.351   5.723  12.769  0.2114 -1.3606  1.2171
13963TIP3    H263305   6.357   5.766  12.915  2.7410  1.7111  0.2684
13964TIP3   OH263306   4.367   5.370   2.287 -0.5272  0.5914  0.3004
13964TIP3    H163307   4.344   5.338   2.374 -1.5576 -0.1958 -0.2547
13964TIP3    H263308   4.289   5.356   2.234 -0.0250  1.3841 -0.6683
13965TIP3   OH263309   0.581   2.895  15.063  0.3966  0.1116  0.3511
13965TIP3    H163310   0.496   2.891  15.019  0.5156  0.7196  0.0473
13965TIP3    H263311   0.567   2.956  15.136  0.0630 -1.2917  1.4848
13966TIP3   OH263312   1.490   3.946   1.531 -0.2823  0.0347 -0.3953
13966TIP3    H163313   1.481   3.878   1.598 -2.9765  0.9477  0.2304
13966TIP3    H263314   1.508   3.897   1.450 -0.1725 -1.2866  0.4189
13967TIP3   OH263315   2.945   1.665  13.748  0.7957 -0.0580 -0.5047
13967TIP3    H163316   3.025   1.645  13.699  2.3923  1.4604  1.4542
13967TIP3    H263317   2.963   1.637  13.837 -0.4724  1.2681  0.1914
13968TIP3   OH263318   1.209   1.084   4.771  0.6935 -0.2256 -0.0246
13968TIP3    H163319   1.225   0.992   4.752 -0.9393 -0.2335 -1.5108
13968TIP3    H263320   1.292   1.127   4.751  0.5451 -0.9604 -2.3679
13969TIP3   OH263321   4.042   6.782   6.294 -0.3494 -0.3389  0.2163
13969TIP3    H163322   4.043   6.867   6.339  1.4954 -1.9164  3.3373
13969TIP3    H263323   3.957   6.744   6.317 -0.8144  0.2896 -0.4553
13970TIP3   OH263324   1.702   5.330  15.698  0.6389 -0.1571 -0.0696
13970TIP3    H163325   1.780   5.276  15.705  0.5420 -0.3146 -0.1935
13970TIP3    H263326   1.629   5.268  15.701  0.5042  0.0255  0.4953
13971TIP3   OH263327   0.894   5.809   3.736 -0.1902  0.5112 -0.2980
13971TIP3    H163328   0.833   5.805   3.663 -0.5612  1.3047 -0.0385
13971TIP3    H263329   0.857   5.876   3.795 -0.1590 -0.4545  0.8446
13972TIP3   OH263330   0.292   0.489  11.298 -0.1672  0.5388 -0.2442
13972TIP3    H163331   0.293   0.451  11.386 -0.0333 -2.6280 -1.5567
13972TIP3    H263332   0.200   0.484  11.271 -0.0557  0.6514 -0.6398
13973TIP3   OH263333   1.346   2.128   1.270  0.2569  0.2314 -0.2986
13973TIP3    H163334   1.316   2.164   1.353 -0.6780 -1.6033  0.2025
13973TIP3    H263335   1.388   2.045   1.294  0.8755  0.1769 -1.5517
13974TIP3   OH263336   0.525   0.320  14.665 -0.0555 -0.1224  0.4078
13974TIP3    H163337   0.492   0.339  14.577  3.9127  0.4980 -1.0704
13974TIP3    H263338   0.515   0.226  14.676 -1.0116 -0.1293 -0.4879
13975TIP3   OH263339   4.312   1.328  11.527  0.0204 -0.8607  0.0596
13975TIP3    H163340   4.247   1.270  11.487 -1.0166  1.3942 -1.5759
13975TIP3    H263341   4.272   1.353  11.611 -0.2903 -1.1701  0.0075
13976TIP3   OH263342   6.357   5.480  16.521  0.5957 -0.5967  0.1840
13976TIP3    H163343   6.361   5.511  16.431 -0.0778  0.5413  0.5225
13976TIP3    H263344   6.378   5.387  16.516  2.5213 -0.1279 -0.8921
13977TIP3   OH263345   2.466   5.086  14.289 -0.3625 -0.0757  0.4571
13977TIP3    H163346   2.556   5.117  14.279 -0.1990 -0.7430 -0.2333
13977TIP3    H263347   2.442   5.109  14.378 -0.3446  2.2597 -0.1120
13978TIP3   OH263348   6.382   4.838   1.303  0.2645 -0.1068 -0.3595
13978TIP3    H163349   6.327   4.913   1.279 -2.4461 -1.8947  0.0796
13978TIP3    H263350   6.331   4.761   1.277  2.0751 -1.8464  1.0852
13979TIP3   OH263351   5.418   1.430   4.148  0.4976  0.3911  0.0805
13979TIP3    H163352   5.442   1.515   4.110  1.8396 -0.1914 -0.3874
13979TIP3    H263353   5.501   1.387   4.167 -0.1674 -1.1673 -0.4384
13980TIP3   OH263354   2.098   5.671   1.256  0.7255 -0.0640  0.6629
13980TIP3    H163355   2.044   5.602   1.294  0.0760 -1.6707 -2.9326
13980TIP3    H263356   2.068   5.678   1.165  3.8732  1.7921 -0.3302
13981TIP3   OH263357   2.910   5.325   1.217 -0.2718  0.5944 -0.1925
13981TIP3    H163358   2.886   5.411   1.183 -1.1441  0.0821 -0.8722
13981TIP3    H263359   2.971   5.289   1.151 -0.2650  0.5003 -0.1355
13982TIP3   OH263360   5.192   2.998  11.431 -0.4701 -0.3363 -0.1826
13982TIP3    H163361   5.103   3.026  11.407 -0.7013 -0.3488  0.6446
13982TIP3    H263362   5.216   2.934  11.363  0.3272  2.2931 -2.4759
13983TIP3   OH263363   3.429   4.363   2.917  0.6933  0.5154  0.0205
13983TIP3    H163364   3.362   4.302   2.885 -0.7725  1.6814  0.8032
13983TIP3    H263365   3.438   4.343   3.010  1.1862  0.6001 -0.0070
13984TIP3   OH263366   0.476   6.223  15.015 -0.1071 -0.4556  0.6485
13984TIP3    H163367   0.452   6.282  15.086  1.1714 -0.5131  1.1528
13984TIP3    H263368   0.571   6.234  15.006 -0.1374 -1.0531 -0.5024
13985TIP3   OH263369   5.206   4.423   6.453 -0.1794  0.4143  0.3790
13985TIP3    H163370   5.129   4.438   6.508 -1.0947  0.5885 -0.9177
13985TIP3    H263371   5.176   4.365   6.384  1.3184 -0.9279  0.8284
13986TIP3   OH263372   0.602   6.036  17.177 -0.1154  0.1217 -0.1349
13986TIP3    H163373   0.650   6.061  17.256  0.2964 -0.6776 -0.1312
13986TIP3    H263374   0.568   5.949  17.195 -1.9587  0.8607  0.0250
13987TIP3   OH263375   3.149   3.391  14.451 -0.1683 -0.2847 -0.6779
13987TIP3    H163376   3.121   3.433  14.370  2.7525  2.1606 -0.5110
13987TIP3    H263377   3.196   3.313  14.423  0.8090  0.5416 -1.3396
13988TIP3   OH263378   0.610   5.045  12.864  0.1560  0.6012 -0.1951
13988TIP3    H163379   0.585   4.953  12.873 -0.3382  0.8294  0.7747
13988TIP3    H263380   0.706   5.045  12.870  0.4230 -0.2079 -3.3266
13989TIP3   OH263381   6.168   1.892  13.413  0.2007  0.5262  0.1851
13989TIP3    H163382   6.226   1.953  13.367 -1.2088  0.0026 -2.3498
13989TIP3    H263383   6.212   1.877  13.497  2.2152  2.4533 -0.4627
13990TIP3   OH263384   0.793   3.541   5.182  0.2871  0.2787 -0.0717
13990TIP3    H163385   0.791   3.586   5.097  0.6202  1.8775  0.7655
13990TIP3    H263386   0.815   3.609   5.245  1.0283 -1.1093  1.1864
13991TIP3   OH263387   1.126   3.079   6.026 -0.3333  0.2975  0.1008
13991TIP3    H163388   1.145   2.992   6.062  2.2621  0.8992  0.2380
13991TIP3    H263389   1.116   3.064   5.932  1.4844  0.0481 -0.0656
13992TIP3   OH263390   4.571   1.341  17.225  0.0446 -0.1976  0.8026
13992TIP3    H163391   4.619   1.415  17.189  0.8913 -1.4723 -0.7880
13992TIP3    H263392   4.597   1.337  17.317 -0.3284  1.6908  1.0117
13993TIP3   OH263393   5.150   6.586   0.296  0.4707 -0.8635  0.4648
13993TIP3    H163394   5.201   6.649   0.244  1.1990 -0.7196  1.3299
13993TIP3    H263395   5.126   6.517   0.235 -3.1746  1.8297 -1.3345
13994TIP3   OH263396   3.426   2.012  13.916 -0.1955  0.6707 -0.0583
13994TIP3    H163397   3.365   1.987  13.848 -0.4471  1.5083 -0.1399
13994TIP3    H263398   3.428   2.107  13.914 -0.3383  0.7196  1.2137
13995TIP3   OH263399   5.422   2.529  12.397  0.2928  0.4763  0.0552
13995TIP3    H163400   5.498   2.585  12.414  0.0725  1.6156 -2.4632
13995TIP3    H263401   5.459   2.451  12.356  0.0150  1.8137 -2.8856
13996TIP3   OH263402   3.122   3.452   5.317  0.6910 -0.2139  0.4502
13996TIP3    H163403   3.094   3.393   5.386 -2.6440 -0.3642 -0.9195
13996TIP3    H263404   3.115   3.539   5.356  1.0604 -0.4449  1.0279
13997TIP3   OH263405   4.893   0.678   6.406  0.2832 -0.0863 -0.0400
13997TIP3    H163406   4.819   0.638   6.360 -0.1486  0.4827  0.1523
13997TIP3    H263407   4.955   0.607   6.419  0.1305 -0.3917 -0.9382
13998TIP3   OH263408   2.484   4.585   2.302 -0.3468 -0.7653  0.3043
13998TIP3    H163409   2.484   4.496   2.267  1.2354 -0.5019 -0.4226
13998TIP3    H263410   2.449   4.638   2.232  1.1665 -0.4807 -0.2676
13999TIP3   OH263411   6.415   5.155  15.268 -0.0026  0.0936  0.0814
13999TIP3    H163412   6.470   5.232  15.255  1.8511 -1.2026  0.0300
13999TIP3    H263413   6.348   5.161  15.200  0.5803  1.2598 -0.3996
14000TIP3   OH263414   1.096   2.047  14.431 -0.0928 -0.1722 -0.2231
14000TIP3    H163415   1.135   2.120  14.383 -0.3274  0.3503  0.3783
14000TIP3    H263416   1.143   2.043  14.514 -1.8405  0.9925  0.8627
14001TIP3   OH263417   3.887   1.780   0.313 -0.4733  0.1277 -0.1366
14001TIP3    H163418   3.819   1.797   0.378 -0.2916 -0.7868  0.2926
14001TIP3    H263419   3.945   1.716   0.354  1.2930  1.7199 -0.0429
14002TIP3   OH263420   5.039   4.717   5.091  0.0900 -0.2201  0.4089
14002TIP3    H163421   5.107   4.784   5.099 -0.8921  0.5485  2.5457
14002TIP3    H263422   4.962   4.764   5.060 -0.3421 -0.5188  1.0156
14003TIP3   OH263423   1.209   1.806   1.552  0.4682  0.0869  0.2785
14003TIP3    H163424   1.192   1.861   1.628  0.5373  0.0640  0.3107
14003TIP3    H263425   1.211   1.716   1.587 -0.4643 -0.0172  0.0977
14004TIP3   OH263426   0.224   5.767   0.365  1.0423  0.0623  0.8843
14004TIP3    H163427   0.275   5.712   0.306 -1.9099 -1.8847 -0.0066
14004TIP3    H263428   0.202   5.708   0.438  2.6195  1.7505  2.7705
14005TIP3   OH263429   0.302   3.305  13.971 -0.1172  0.7307 -0.4695
14005TIP3    H163430   0.396   3.294  13.961 -0.1984  1.3004 -1.9451
14005TIP3    H263431   0.263   3.245  13.907 -0.9020 -3.6077  3.8453
14006TIP3   OH263432   6.340   5.051   1.547 -0.5228 -0.7160  0.2919
14006TIP3    H163433   6.364   4.970   1.592 -1.1378 -0.5822  0.8598
14006TIP3    H263434   6.252   5.036   1.514 -1.3005  0.3203  1.8377
14007TIP3   OH263435   2.430   3.234   1.872 -0.1228 -0.3990  0.6770
14007TIP3    H163436   2.435   3.277   1.958 -1.9045  2.6744 -0.6668
14007TIP3    H263437   2.515   3.251   1.832 -0.7488  1.9250  0.2203
14008TIP3   OH263438   2.532   1.873  12.202 -0.4812 -0.1536  0.0516
14008TIP3    H163439   2.439   1.890  12.217 -0.2325 -0.1497  1.7043
14008TIP3    H263440   2.551   1.915  12.118 -2.3401 -1.5519 -1.1009
14009TIP3   OH263441   0.188   3.125  13.293 -0.1053 -0.1858 -0.0197
14009TIP3    H163442   0.280   3.150  13.281 -0.9001  2.6720 -0.6043
14009TIP3    H263443   0.154   3.116  13.205 -1.2100  2.1877  0.1221
14010TIP3   OH263444   3.842   3.137   1.085  0.1772  0.3589 -0.2241
14010TIP3    H163445   3.838   3.043   1.105 -1.5591  0.2229 -1.1574
14010TIP3    H263446   3.935   3.159   1.092  0.7126 -1.6253 -0.8764
14011TIP3   OH263447   5.144   3.884  15.277  0.4284  0.5054 -0.5467
14011TIP3    H163448   5.073   3.867  15.339  0.2689  1.7636 -0.3916
14011TIP3    H263449   5.103   3.876  15.191  0.2910  0.3858 -0.4713
14012TIP3   OH263450   6.740   1.004   3.427 -0.3303  0.6646 -0.0468
14012TIP3    H163451   6.691   0.923   3.411  0.1473  0.3353  0.1665
14012TIP3    H263452   6.706   1.065   3.361 -0.0225  0.0068 -0.8231
14013TIP3   OH263453   5.138   2.275   0.916 -0.1707  0.8438  0.2944
14013TIP3    H163454   5.167   2.336   0.848 -0.7411  1.1330  0.3039
14013TIP3    H263455   5.198   2.289   0.989  0.0038  1.0463  0.1102
14014TIP3   OH263456   4.893   3.800  16.531  0.1460  0.3934  0.0516
14014TIP3    H163457   4.851   3.873  16.485 -2.0048 -1.2937 -0.7432
14014TIP3    H263458   4.968   3.777  16.476  0.3479  1.4713 -0.1241
14015TIP3   OH263459   4.792   0.919   0.613 -0.6542 -0.4297  0.1811
14015TIP3    H163460   4.743   0.898   0.533 -1.1467 -0.9134  0.6034
14015TIP3    H263461   4.884   0.907   0.589 -0.7924 -0.4206 -0.3562
14016TIP3   OH263462   3.660   3.602   0.919  0.8519 -0.3874  0.4499
14016TIP3    H163463   3.618   3.538   0.862  0.3058 -0.0245  0.4482
14016TIP3    H263464   3.654   3.564   1.007 -1.2012  0.5422  0.7355
14017TIP3   OH263465   0.131   4.854   5.725  0.1828  0.1421  0.0408
14017TIP3    H163466   0.194   4.914   5.765  0.3364  1.4442 -2.0667
14017TIP3    H263467   0.050   4.867   5.774 -0.0360  2.7809 -0.9767
14018TIP3   OH263468   2.025   6.643   4.491  0.0478 -0.3223 -0.1325
14018TIP3    H163469   2.021   6.731   4.528  0.3613 -0.3945  0.0802
14018TIP3    H263470   2.098   6.646   4.429 -0.7019 -0.1042 -1.0128
14019TIP3   OH263471   3.837   4.542   5.522 -0.5756  0.3182 -0.1422
14019TIP3    H163472   3.827   4.448   5.509  0.1847  0.5161 -2.2873
14019TIP3    H263473   3.931   4.557   5.526 -0.6390  1.1612 -1.3643
14020TIP3   OH263474   3.013   0.696  13.540  0.1195  0.6322  0.0751
14020TIP3    H163475   3.001   0.788  13.566 -0.3857  1.0132 -1.4675
14020TIP3    H263476   2.947   0.649  13.591 -0.2013  1.2441  0.2377
14021TIP3   OH263477   5.057   6.315  15.412 -0.2406  0.4205  0.1089
14021TIP3    H163478   5.107   6.243  15.374  1.0969  2.0690 -1.3341
14021TIP3    H263479   5.112   6.347  15.483  0.3207  1.5863 -0.8347
14022TIP3   OH263480   1.824   1.282   5.933 -0.7015 -0.5764 -0.6796
14022TIP3    H163481   1.916   1.256   5.937 -0.2414  1.2377  1.4384
14022TIP3    H263482   1.775   1.202   5.954  0.5214 -0.8128  1.3841
14023TIP3   OH263483   2.072   4.240   0.816  0.0592 -0.3034 -0.0510
14023TIP3    H163484   2.161   4.267   0.838  0.6876 -1.5527 -0.9989
14023TIP3    H263485   2.045   4.299   0.745  0.3410 -0.3117 -0.1622
14024TIP3   OH263486   2.574   6.658   0.978  0.1340  0.6905 -0.2076
14024TIP3    H163487   2.554   6.743   0.937  0.5580  0.0500 -1.7877
14024TIP3    H263488   2.650   6.626   0.929  1.2858  0.3390  1.7558
14025TIP3   OH263489   5.553   4.213   1.699 -0.0086  0.1636 -0.5026
14025TIP3    H163490   5.636   4.245   1.664 -0.7545  0.0869 -2.4400
14025TIP3    H263491   5.534   4.136   1.647 -0.9989 -0.1723  0.3453
14026TIP3   OH263492   5.669   1.483  15.108 -0.0107 -0.1079  0.0672
14026TIP3    H163493   5.711   1.485  15.194  3.1430  0.5168 -1.3948
14026TIP3    H263494   5.640   1.573  15.094 -0.9233 -0.3046  0.6283
14027TIP3   OH263495   4.382   5.146  17.223  0.0644 -0.3929 -0.4083
14027TIP3    H163496   4.344   5.058  17.222 -0.8836 -0.0011  0.3464
14027TIP3    H263497   4.370   5.178  17.134 -2.8390  0.3221  0.1759
14028TIP3   OH263498   5.012   4.291   1.712 -0.1995 -0.5746 -0.0272
14028TIP3    H163499   5.089   4.341   1.683 -0.7951  0.3028 -0.1211
14028TIP3    H263500   4.947   4.305   1.643 -0.6851 -0.7412  0.3930
14029TIP3   OH263501   3.516   2.747  11.518  0.0732  0.6176 -0.4843
14029TIP3    H163502   3.480   2.674  11.467  1.2050 -0.4503  0.2000
14029TIP3    H263503   3.584   2.785  11.462 -0.9086  1.5134 -1.0719
14030TIP3   OH263504   1.164   6.337   0.554  0.2482  0.4143  0.2544
14030TIP3    H163505   1.177   6.400   0.483 -0.1552  0.4435  0.2045
14030TIP3    H263506   1.164   6.391   0.633  0.8928  0.3596  0.2939
14031TIP3   OH263507   5.823   6.509  17.084  0.4383 -0.3955 -0.0995
14031TIP3    H163508   5.904   6.457  17.086  1.0365  0.5194 -0.1939
14031TIP3    H263509   5.840   6.581  17.145 -0.4616 -0.4251  0.1866
14032TIP3   OH263510   0.956   2.170   1.518  0.4511 -0.2223 -0.1378
14032TIP3    H163511   1.023   2.189   1.584  1.6904 -0.6501 -1.2467
14032TIP3    H263512   0.987   2.090   1.475 -1.2485 -0.9524 -0.0645
14033TIP3   OH263513   1.807   4.926   0.137  0.3591 -0.5332  0.5391
14033TIP3    H163514   1.837   4.852   0.084 -1.1575 -0.0274 -1.0722
14033TIP3    H263515   1.714   4.933   0.117  1.0405  3.6113 -1.5273
14034TIP3   OH263516   3.879   1.108  16.533 -0.2001  0.1755  0.1724
14034TIP3    H163517   3.844   1.027  16.496  1.2165 -0.1465 -0.5297
14034TIP3    H263518   3.834   1.177  16.485  0.5650 -0.2314 -1.1715
14035TIP3   OH263519   5.174   1.322   4.656  0.2400  0.0664  0.3622
14035TIP3    H163520   5.094   1.347   4.610 -0.1188 -3.3785 -1.0409
14035TIP3    H263521   5.145   1.296   4.743  0.0181  0.1307  0.3083
14036TIP3   OH263522   2.215   0.073  14.548  0.3588 -0.1899  0.1939
14036TIP3    H163523   2.130   0.030  14.541  0.4528 -0.0453 -2.0746
14036TIP3    H263524   2.208   0.150  14.491  1.5708  0.5389  1.0129
14037TIP3   OH263525   3.514   1.889   4.302  0.3867  0.0760 -0.1689
14037TIP3    H163526   3.550   1.975   4.320  0.2935  0.1929 -0.5381
14037TIP3    H263527   3.460   1.901   4.224 -1.9908  0.3289  1.4553
14038TIP3   OH263528   5.631   0.810  16.833 -0.1139  0.4108 -0.3937
14038TIP3    H163529   5.701   0.791  16.896 -2.2245 -1.9298  1.3251
14038TIP3    H263530   5.616   0.904  16.842  0.5830  0.3584  1.5822
14039TIP3   OH263531   0.616   6.695  11.491 -0.1716  0.3223  0.0278
14039TIP3    H163532   0.638   6.762  11.426  0.5770 -1.2916 -1.4284
14039TIP3    H263533   0.581   6.623  11.440  2.1947 -1.7346  1.2035
14040TIP3   OH263534   6.580   2.062   2.527  0.4469  0.4914 -0.3277
14040TIP3    H163535   6.489   2.071   2.558  0.1203 -1.2295 -0.7661
14040TIP3    H263536   6.591   2.136   2.467 -1.5339 -0.7472 -2.3056
14041TIP3   OH263537   4.699   5.459   5.726  0.2044  0.2817 -0.2543
14041TIP3    H163538   4.681   5.451   5.820 -1.0406  0.9423 -0.4339
14041TIP3    H263539   4.683   5.371   5.692 -1.0707  0.4497 -0.1269
14042TIP3   OH263540   5.315   6.369   1.260  0.1714 -0.9815  0.1028
14042TIP3    H163541   5.263   6.306   1.209 -0.6425 -0.3030  0.0662
14042TIP3    H263542   5.290   6.454   1.223  0.0182 -0.5222  1.2376
14043TIP3   OH263543   1.420   4.134   5.962  0.7111 -0.3501  0.1935
14043TIP3    H163544   1.359   4.073   6.003  0.0137 -0.2487 -0.6770
14043TIP3    H263545   1.469   4.172   6.035 -0.4994 -0.1732  0.9335
14044TIP3   OH263546   5.791   3.593  16.740  0.5118  0.3177  0.3681
14044TIP3    H163547   5.845   3.573  16.663 -0.7763  0.9259 -0.7243
14044TIP3    H263548   5.843   3.655  16.790  1.8619 -0.9612  0.5856
14045TIP3   OH263549   3.600   2.163  16.870  0.2872  0.2670 -0.5022
14045TIP3    H163550   3.673   2.221  16.889  0.5198 -0.1266 -0.1854
14045TIP3    H263551   3.523   2.210  16.901  0.3531  0.8634 -1.2157
14046TIP3   OH263552   3.409   2.530   3.489  0.1029 -0.1751  0.3009
14046TIP3    H163553   3.481   2.528   3.427  0.3985 -0.7979  0.6670
14046TIP3    H263554   3.446   2.568   3.569  0.0207 -0.4538  0.4752
14047TIP3   OH263555   3.567   3.562  16.867  0.7145  0.0222 -0.0309
14047TIP3    H163556   3.493   3.521  16.912  1.8115 -2.8089 -0.7529
14047TIP3    H263557   3.529   3.641  16.827 -1.8078 -1.1033  0.0465
14048TIP3   OH263558   3.952   2.582  13.152 -0.1980 -0.0163 -0.2251
14048TIP3    H163559   3.920   2.513  13.094 -1.5907  0.9965 -0.7012
14048TIP3    H263560   3.978   2.536  13.232 -3.5039 -0.8962  0.4474
14049TIP3   OH263561   0.417   5.291  16.204  0.4093 -0.1882  0.0375
14049TIP3    H163562   0.334   5.274  16.248  0.7738 -0.7681  0.5130
14049TIP3    H263563   0.459   5.357  16.259 -0.4302  1.3101 -1.0839
14050TIP3   OH263564   5.402   6.432  16.229 -0.4687  0.1760 -0.0708
14050TIP3    H163565   5.403   6.348  16.276  2.0841 -0.4500 -1.1940
14050TIP3    H263566   5.332   6.421  16.164 -0.3973 -0.9677  0.0180
14051TIP3   OH263567   1.061   1.156   0.259  0.5210  0.1631 -0.3015
14051TIP3    H163568   1.145   1.135   0.301  0.3454 -1.2519 -0.6359
14051TIP3    H263569   1.043   1.080   0.203 -3.4181 -1.8771  3.4769
14052TIP3   OH263570   5.135   4.449   2.136  0.1317  0.7719 -0.1265
14052TIP3    H163571   5.078   4.490   2.072 -0.9918 -1.4916 -0.6234
14052TIP3    H263572   5.184   4.384   2.086  1.8186  1.3924  0.6585
14053TIP3   OH263573   6.633   2.100  13.205  0.1820 -0.5292  0.5057
14053TIP3    H163574   6.575   2.093  13.129 -1.7390  0.1474  1.8778
14053TIP3    H263575   6.613   2.022  13.257 -0.2621  0.2407  1.5032
14054TIP3   OH263576   3.083   2.513   2.912 -0.0388 -0.1081 -0.5726
14054TIP3    H163577   3.033   2.473   2.983  0.3701  1.3547  0.5643
14054TIP3    H263578   3.016   2.551   2.854 -0.3276 -0.1433 -0.2604
14055TIP3   OH263579   0.745   4.575  11.258 -0.3715  0.0241 -0.0495
14055TIP3    H163580   0.756   4.564  11.164 -2.1886 -3.8631  0.0778
14055TIP3    H263581   0.824   4.537  11.296  0.0312  0.9337  0.0374
14056TIP3   OH263582   0.254   6.692   1.479  0.1228 -0.1407 -0.6857
14056TIP3    H163583   0.319   6.759   1.503  2.8913 -2.5476 -1.1664
14056TIP3    H263584   0.172   6.740   1.471  0.9864  2.4331  3.9078
14057TIP3   OH263585   6.500   5.823  11.207 -0.3787  0.7494 -0.1207
14057TIP3    H163586   6.433   5.772  11.161  0.8271  0.6316 -1.7570
14057TIP3    H263587   6.450   5.873  11.272 -1.7697 -1.2110  0.3940
14058TIP3   OH263588   5.390   6.010   2.117 -0.2307 -0.4007 -1.0101
14058TIP3    H163589   5.362   6.058   2.039 -0.3392 -0.4593 -1.0083
14058TIP3    H263590   5.334   6.043   2.187 -1.2662 -1.5201 -1.2912
14059TIP3   OH263591   1.823   0.579   0.263 -0.3466  0.4188  0.1139
14059TIP3    H163592   1.867   0.503   0.302 -0.5890  0.2063 -0.0289
14059TIP3    H263593   1.760   0.542   0.201 -1.1898  0.7044  0.7918
14060TIP3   OH263594   3.931   3.974   0.655  0.1545  0.1207 -0.1808
14060TIP3    H163595   3.920   4.004   0.565 -0.0918  0.0851 -0.1637
14060TIP3    H263596   3.914   3.880   0.650 -0.1763  0.1726 -0.0421
14061TIP3   OH263597   0.060   3.069   1.393  0.1400 -0.3110  0.0388
14061TIP3    H163598  -0.018   3.041   1.346 -0.2849  0.2420  0.4210
14061TIP3    H263599   0.035   3.149   1.438  0.8384 -0.2878  0.4049
14062TIP3   OH263600   1.049   2.768  16.383 -0.2507  0.2472  0.3308
14062TIP3    H163601   1.061   2.680  16.419 -1.2690  0.1914  0.5524
14062TIP3    H263602   1.129   2.815  16.407 -0.0716 -0.3663  0.9509
14063TIP3   OH263603   6.596   5.129  13.832  0.0266  0.2640 -0.6925
14063TIP3    H163604   6.608   5.212  13.879 -0.6937 -0.6240  1.1029
14063TIP3    H263605   6.505   5.132  13.801  0.5230  0.8791 -2.1113
14064TIP3   OH263606   1.278   5.736   4.179 -0.3644 -0.5800 -0.3940
14064TIP3    H163607   1.298   5.667   4.242 -1.9923  0.5651  1.4352
14064TIP3    H263608   1.182   5.738   4.175 -0.3398  1.3687 -0.6262
14065TIP3   OH263609   2.757   6.367   0.405  0.1827 -0.0451  0.5269
14065TIP3    H163610   2.707   6.438   0.445  0.4174  0.0237  0.6974
14065TIP3    H263611   2.699   6.291   0.410 -0.5201  0.3988 -0.6880
14066TIP3   OH263612   6.722   1.490   5.905  0.0754 -0.3337  0.8488
14066TIP3    H163613   6.728   1.525   5.816  1.3410 -0.8363  0.7239
14066TIP3    H263614   6.680   1.560   5.955 -1.6990 -0.4908 -0.3664
14067TIP3   OH263615   6.672   4.260   2.058  0.5033 -0.0127  0.7232
14067TIP3    H163616   6.749   4.294   2.103  0.0958  1.4826  0.3411
14067TIP3    H263617   6.698   4.253   1.966 -0.1969  1.7997  0.3545
14068TIP3   OH263618   5.942   0.933   2.190 -0.4105  0.3339 -0.0350
14068TIP3    H163619   5.967   0.886   2.269  0.2999  0.7752  0.0074
14068TIP3    H263620   6.022   0.976   2.161 -0.5229 -0.3412 -1.3559
14069TIP3   OH263621   1.322   3.457   3.647  0.2789 -0.3327  1.2619
14069TIP3    H163622   1.372   3.528   3.688 -0.1597  0.5314  0.3376
14069TIP3    H263623   1.357   3.377   3.685 -0.2066  0.4481  3.4043
14070TIP3   OH263624   3.036   3.139  14.175 -0.8402  0.5661 -0.0703
14070TIP3    H163625   3.120   3.172  14.208 -1.2860  2.8482 -1.1120
14070TIP3    H263626   2.983   3.127  14.253  0.1872 -0.1262  0.5362
14071TIP3   OH263627   0.303   1.130  13.620 -0.2656 -0.4441 -0.3961
14071TIP3    H163628   0.327   1.194  13.554 -1.3162  4.8544  3.9917
14071TIP3    H263629   0.210   1.113  13.605 -0.3414  0.2338 -0.6958
14072TIP3   OH263630   2.905   3.052  15.597 -0.0140 -0.0611 -0.6491
14072TIP3    H163631   2.942   3.118  15.539  1.9433 -1.3038 -0.8454
14072TIP3    H263632   2.810   3.062  15.587  0.1697  4.3299  1.1678
14073TIP3   OH263633   5.530   4.225   0.910  0.2692  0.0832 -0.0570
14073TIP3    H163634   5.601   4.276   0.948  0.2995 -0.2550  0.3341
14073TIP3    H263635   5.463   4.222   0.977  0.7718 -1.4519  0.4019
14074TIP3   OH263636   5.104   0.787   5.068 -0.2755  0.0521  0.1386
14074TIP3    H163637   5.066   0.835   5.142  1.9873  1.3133  0.5315
14074TIP3    H263638   5.060   0.824   4.991  0.6302  1.9943  0.5274
14075TIP3   OH263639   1.242   6.259  12.376 -0.4341 -0.1277 -0.0960
14075TIP3    H163640   1.220   6.250  12.283 -0.8939 -2.0156  0.1705
14075TIP3    H263641   1.331   6.294  12.377 -0.0767 -1.0060 -1.2515
14076TIP3   OH263642   3.921   6.276  13.797  0.7446  0.0949 -0.0194
14076TIP3    H163643   3.884   6.300  13.712 -2.7964  0.1185  1.4265
14076TIP3    H263644   3.979   6.203  13.778  1.2720  1.1606 -2.6629
14077TIP3   OH263645   3.908   3.692   0.669 -0.5696  0.4956 -0.1394
14077TIP3    H163646   3.874   3.713   0.756  0.2004  0.2031  0.2360
14077TIP3    H263647   3.955   3.609   0.681 -0.2563  0.5767 -0.7823
14078TIP3   OH263648   6.749   2.009   4.633  0.0160 -0.4720 -0.4674
14078TIP3    H163649   6.726   2.010   4.540 -1.4860  0.6467 -0.0894
14078TIP3    H263650   6.667   2.025   4.679  0.6811 -1.3625  1.0852
14079TIP3   OH263651   3.355   0.279  12.356  0.6657 -0.4025 -0.2501
14079TIP3    H163652   3.279   0.227  12.328  0.0454  0.2244  0.2364
14079TIP3    H263653   3.340   0.366  12.318  0.6354 -0.0033  0.6485
14080TIP3   OH263654   4.796   1.527   2.049  0.9324  0.5471 -0.2051
14080TIP3    H163655   4.830   1.584   2.118  0.4365 -0.1229  0.6035
14080TIP3    H263656   4.713   1.495   2.084  1.6072 -1.3293 -0.2968
14081TIP3   OH263657   3.670   2.479  13.475  0.0842  0.3812 -0.0789
14081TIP3    H163658   3.682   2.552  13.536 -1.0128 -1.1292  2.0018
14081TIP3    H263659   3.743   2.420  13.493  0.3929  0.4643 -1.0352
14082TIP3   OH263660   3.896   4.704  11.576  0.3077  0.1065  0.3649
14082TIP3    H163661   3.969   4.761  11.550 -0.1169  0.4520 -0.0924
14082TIP3    H263662   3.937   4.632  11.623  1.2444 -1.1289 -2.2114
14083TIP3   OH263663   3.957   2.686  10.832 -0.1240  0.0986 -0.3940
14083TIP3    H163664   3.961   2.655  10.742  0.9813  0.0868 -0.3379
14083TIP3    H263665   3.863   2.695  10.850 -0.4253 -2.4065 -0.6592
14084TIP3   OH263666   1.245   6.689  16.043 -0.7632  0.0428  0.1988
14084TIP3    H163667   1.308   6.757  16.021 -0.4436 -0.0834  0.7095
14084TIP3    H263668   1.277   6.611  15.996 -1.1021  0.2281 -0.3467
14085TIP3   OH263669   3.035   5.126  11.596  0.0872  0.4056  0.2196
14085TIP3    H163670   3.098   5.183  11.640  1.5750  0.5971 -2.0506
14085TIP3    H263671   3.047   5.145  11.503 -1.0533 -1.9060 -0.4380
14086TIP3   OH263672   3.929   3.412  11.272  0.3558  0.2168 -0.1053
14086TIP3    H163673   3.867   3.430  11.343  0.9495  0.0676  0.4499
14086TIP3    H263674   3.874   3.408  11.193 -0.5879 -1.7257  0.6218
14087TIP3   OH263675   2.138   3.794  10.907  0.0964 -0.1721 -0.3491
14087TIP3    H163676   2.129   3.872  10.962  0.4512 -0.2902 -0.1160
14087TIP3    H263677   2.148   3.722  10.970  1.4984 -0.1883 -0.5696
14088TIP3   OH263678   3.425   6.177  13.349 -0.0853 -0.1393  0.0202
14088TIP3    H163679   3.460   6.225  13.424  1.1986 -0.2630 -0.4906
14088TIP3    H263680   3.383   6.100  13.389  3.1062 -1.7320  0.4787
14089TIP3   OH263681   0.206   2.552   6.406  0.6812  0.5948 -0.3243
14089TIP3    H163682   0.183   2.472   6.358 -1.8391 -0.5677  2.6838
14089TIP3    H263683   0.290   2.532   6.448 -0.6307 -1.0751  1.5961
14090TIP3   OH263684   0.298   2.773   3.508 -0.2530 -0.3065  0.2678
14090TIP3    H163685   0.237   2.847   3.518 -0.4757 -0.2843 -1.0722
14090TIP3    H263686   0.301   2.732   3.594 -1.6813  0.0890  0.5235
14091TIP3   OH263687   6.399   5.738   2.708 -0.1236  0.1143 -0.2368
14091TIP3    H163688   6.460   5.767   2.775  0.6585 -0.4075 -0.7236
14091TIP3    H263689   6.453   5.692   2.644 -0.8891  0.4319 -1.1249
14092TIP3   OH263690   1.448   4.092  15.321  0.0300  0.0463  0.0610
14092TIP3    H163691   1.544   4.097  15.320 -0.0593  2.4795  1.5178
14092TIP3    H263692   1.424   4.095  15.228  1.3151  0.2518 -0.2826
14093TIP3   OH263693   6.239   6.123   4.699 -0.3333  0.5676 -0.3881
14093TIP3    H163694   6.167   6.112   4.761  0.5272 -0.8000  0.3928
14093TIP3    H263695   6.269   6.212   4.712 -0.9601  0.6844  0.2878
14094TIP3   OH263696   4.776   2.113   2.087 -0.1457 -0.2957  0.0471
14094TIP3    H163697   4.813   2.041   2.138  1.3547  0.6136  0.2880
14094TIP3    H263698   4.683   2.091   2.078 -0.1235 -1.2266  1.8549
14095TIP3   OH263699   3.603   5.671  16.856 -0.7613  0.0606  0.6448
14095TIP3    H163700   3.635   5.732  16.923  0.1143  0.0074  0.2825
14095TIP3    H263701   3.656   5.593  16.868 -0.0405  0.3353 -0.6270
14096TIP3   OH263702   1.718   5.213   1.740  0.0198  0.0263 -0.0091
14096TIP3    H163703   1.696   5.306   1.751  0.1714 -0.0145  0.6142
14096TIP3    H263704   1.807   5.206   1.774 -0.3091 -0.5275  0.7248
14097TIP3   OH263705   5.382   3.730  13.053  0.1984  0.1867 -0.3335
14097TIP3    H163706   5.372   3.764  13.142  3.2950 -0.7427  0.4569
14097TIP3    H263707   5.317   3.777  13.001 -0.9790  1.4833  2.2307
14098TIP3   OH263708   4.312   1.688  12.631  0.2502 -0.1662  0.1500
14098TIP3    H163709   4.309   1.733  12.546 -0.9239 -1.4216 -0.4897
14098TIP3    H263710   4.237   1.722  12.679 -0.0243 -0.6460  0.0663
14099TIP3   OH263711   4.680   2.314  10.314 -0.3229 -0.1324  0.2061
14099TIP3    H163712   4.770   2.345  10.326  0.1154 -1.7138  1.1728
14099TIP3    H263713   4.631   2.355  10.385 -0.3679  0.6899 -0.2916
14100TIP3   OH263714   4.490   2.758  11.154 -0.3028 -0.2653  0.1014
14100TIP3    H163715   4.522   2.796  11.072 -2.6330 -0.6072 -1.0451
14100TIP3    H263716   4.460   2.670  11.128 -1.3106 -0.2703  1.2650
14101TIP3   OH263717   6.063   4.129  13.005  0.3844 -0.0906 -0.2017
14101TIP3    H163718   6.140   4.182  12.981  0.3940 -0.5545 -1.2373
14101TIP3    H263719   6.049   4.073  12.929  0.1049 -1.2777  0.7095
14102TIP3   OH263720   2.115   1.184  10.819 -0.7369  0.5130  0.0006
14102TIP3    H163721   2.022   1.201  10.835 -0.1274  1.1643  3.1137
14102TIP3    H263722   2.148   1.266  10.782 -1.3309  0.3633 -0.8864
14103TIP3   OH263723   1.540   2.312  13.383 -0.2266 -0.0466 -0.0096
14103TIP3    H163724   1.538   2.374  13.310 -0.7614 -0.6073 -0.4778
14103TIP3    H263725   1.467   2.339  13.439  0.4214  0.6195  0.5127
14104TIP3   OH263726   2.479   5.176   0.002  0.0988 -0.2395  0.5393
14104TIP3    H163727   2.416   5.122  -0.045  0.3082 -0.5235  0.5809
14104TIP3    H263728   2.546   5.198  -0.063 -1.4090  2.2767 -0.1865
14105TIP3   OH263729   0.294   0.556  12.987 -0.1703  0.6708 -0.4180
14105TIP3    H163730   0.298   0.601  12.902 -0.4057  0.6132 -0.4587
14105TIP3    H263731   0.366   0.493  12.984 -1.2536 -0.5554 -1.2702
14106TIP3   OH263732   3.793   3.034   0.629  0.1428 -0.0074  0.4513
14106TIP3    H163733   3.706   3.069   0.607 -0.2258 -1.1573  0.0859
14106TIP3    H263734   3.821   3.088   0.703 -1.4703 -0.5120  1.4684
14107TIP3   OH263735   0.175   5.999  11.956 -0.2041  0.1049 -0.4873
14107TIP3    H163736   0.135   5.968  11.874 -0.0469 -0.2289 -0.4387
14107TIP3    H263737   0.131   5.949  12.025  2.0863 -2.1801 -0.5985
14108TIP3   OH263738   0.773   5.558   5.194 -0.4642 -0.1832 -0.0522
14108TIP3    H163739   0.732   5.644   5.181 -0.1851 -0.1296 -0.6020
14108TIP3    H263740   0.865   5.572   5.171 -0.6542 -0.9107 -1.3354
14109TIP3   OH263741   0.229   1.298  12.062 -0.0896 -0.2027  0.1214
14109TIP3    H163742   0.300   1.316  12.124 -0.5429 -0.0126  0.5866
14109TIP3    H263743   0.157   1.266  12.116 -0.9038  1.1032 -0.1500
14110TIP3   OH263744   2.159   4.162  11.483  0.4626 -0.0586 -0.0933
14110TIP3    H163745   2.241   4.169  11.434  0.9349  0.1006  0.7135
14110TIP3    H263746   2.103   4.107  11.428  0.5706  1.0684 -1.3526
14111TIP3   OH263747   4.438   4.083   1.492  0.5054  0.0756 -0.2990
14111TIP3    H163748   4.415   4.013   1.431 -1.2974  0.2023  0.1880
14111TIP3    H263749   4.463   4.157   1.437  0.9833 -0.4892 -0.8360
14112TIP3   OH263750   2.509   3.636  11.122 -0.2610  0.5196  0.5456
14112TIP3    H163751   2.491   3.701  11.053  0.6798 -0.7520 -0.9305
14112TIP3    H263752   2.448   3.564  11.104  3.1844 -1.9337 -1.9292
14113TIP3   OH263753   3.788   3.022   0.285  0.1064 -0.3457 -0.0910
14113TIP3    H163754   3.726   2.951   0.269 -0.6545  0.1962  0.4052
14113TIP3    H263755   3.797   3.026   0.380  0.9512 -0.4643 -0.1651
14114TIP3   OH263756   6.173   3.813   1.846 -0.6164 -0.1973  1.3670
14114TIP3    H163757   6.124   3.784   1.923  0.3143 -2.1926  1.2569
14114TIP3    H263758   6.263   3.787   1.864 -0.3894 -0.7091 -0.3966
14115TIP3   OH263759   0.436   5.522   2.725 -0.1919 -0.1339  0.2687
14115TIP3    H163760   0.531   5.532   2.718 -0.3810  0.4579 -1.5825
14115TIP3    H263761   0.416   5.444   2.674 -0.6984 -0.2533  0.6479
14116TIP3   OH263762   0.827   3.584   4.496 -0.4672  0.5517 -0.0836
14116TIP3    H163763   0.867   3.603   4.581 -0.8118  0.1147  0.1826
14116TIP3    H263764   0.818   3.670   4.454 -0.3738  0.7798  0.3592
14117TIP3   OH263765   4.377   2.740   1.171 -0.5434  0.3995 -1.0409
14117TIP3    H163766   4.399   2.700   1.087  1.0994  0.6377 -0.7552
14117TIP3    H263767   4.439   2.814   1.179 -1.9437  1.5400 -0.4965
14118TIP3   OH263768   1.466   3.247   3.730 -0.2829  0.1793 -0.2315
14118TIP3    H163769   1.482   3.248   3.824 -4.7243  2.1251  0.5850
14118TIP3    H263770   1.426   3.161   3.714 -2.5453  1.1160  0.2572
14119TIP3   OH263771   3.320   2.239   0.876  0.2060 -0.2258  0.3099
14119TIP3    H163772   3.307   2.152   0.838 -0.2871  0.3269 -0.8103
14119TIP3    H263773   3.235   2.282   0.866  0.4178  0.3522  0.9715
14120TIP3   OH263774   1.600   0.084   1.933 -0.0832 -0.4385 -0.2678
14120TIP3    H163775   1.549   0.098   1.853 -2.6841  0.1946  1.4170
14120TIP3    H263776   1.569   0.152   1.993  2.9358  0.0761  0.8055
14121TIP3   OH263777   4.497   1.363  12.131  0.0916  0.0019  0.1084
14121TIP3    H163778   4.402   1.375  12.143  0.1096 -0.5649  0.9084
14121TIP3    H263779   4.520   1.298  12.197  1.2436  0.9684  0.6640
14122TIP3   OH263780   3.493   0.490  11.446 -0.2552 -0.1006  0.3750
14122TIP3    H163781   3.442   0.447  11.515 -1.8492  0.0211 -0.7042
14122TIP3    H263782   3.448   0.574  11.433  1.2041  0.7201  0.5477
14123TIP3   OH263783   4.320   3.600  11.145  0.3188 -0.5953 -0.2095
14123TIP3    H163784   4.270   3.580  11.066  0.3683  0.5992 -0.5415
14123TIP3    H263785   4.263   3.657  11.196  0.8279 -0.2742  0.0042
14124TIP3   OH263786   5.305   5.870  16.769  0.5738  0.8729 -0.1755
14124TIP3    H163787   5.287   5.778  16.750  0.3141  1.0744 -0.8910
14124TIP3    H263788   5.398   5.881  16.748  1.6940 -0.2245  3.7533
14125TIP3   OH263789   6.643   5.502   5.308 -0.0421 -0.1105 -0.1101
14125TIP3    H163790   6.589   5.569   5.264 -0.1139  0.1957  0.4472
14125TIP3    H263791   6.682   5.453   5.236  1.1042  1.3988 -0.5482
14126TIP3   OH263792   3.915   2.190   2.685 -0.0138 -0.0737 -0.2775
14126TIP3    H163793   3.966   2.186   2.766  1.3699 -1.1141 -1.1802
14126TIP3    H263794   3.835   2.235   2.710  0.3182 -0.5225  1.7207
14127TIP3   OH263795   5.701   2.005  15.685  0.4995 -0.4351 -0.0848
14127TIP3    H163796   5.663   2.092  15.675  0.4233 -0.4846 -0.2331
14127TIP3    H263797   5.795   2.018  15.676  0.7503  0.0543  2.6290
14128TIP3   OH263798   2.729   2.872   5.243  0.0187  0.2089  0.0382
14128TIP3    H163799   2.727   2.781   5.212 -0.3082  0.2848 -0.1748
14128TIP3    H263800   2.654   2.913   5.199 -0.6376  0.2451  1.1620
14129TIP3   OH263801   1.119   2.444   3.329  0.0881  0.1157 -0.1249
14129TIP3    H163802   1.056   2.431   3.258 -0.0469  0.2286 -0.0255
14129TIP3    H263803   1.118   2.538   3.346 -0.2050  0.0321  0.3253
14130TIP3   OH263804   2.048   6.634   1.604 -0.1181 -0.2229 -0.1304
14130TIP3    H163805   2.071   6.675   1.521  0.4813 -0.4256 -0.0740
14130TIP3    H263806   1.980   6.689   1.641 -0.9199 -0.5531 -1.1051
14131TIP3   OH263807   1.540   5.984  15.241  0.2022 -0.4856  0.2617
14131TIP3    H163808   1.575   5.938  15.317 -3.1033 -1.8679  1.0432
14131TIP3    H263809   1.542   6.076  15.266 -0.3360 -0.8783  1.8172
14132TIP3   OH263810   5.635   1.855  13.912  0.4761  0.1873  0.1152
14132TIP3    H163811   5.607   1.871  13.822 -1.2682  2.4892  1.0243
14132TIP3    H263812   5.675   1.768  13.910  1.8674  0.8364 -3.1842
14133TIP3   OH263813   4.746   0.267   5.200  0.4632  0.6072  0.8046
14133TIP3    H163814   4.756   0.213   5.122  0.7356  0.0711  1.2076
14133TIP3    H263815   4.755   0.206   5.273  0.7313  1.1868  1.2610
14134TIP3   OH263816   1.362   5.162  13.314  0.5202 -0.0325  0.5137
14134TIP3    H163817   1.419   5.215  13.370  0.0290 -0.0420  1.0239
14134TIP3    H263818   1.296   5.126  13.374  0.5906 -0.8668  0.0969
14135TIP3   OH263819   2.079   4.619   3.880 -0.2887  0.0368  0.0587
14135TIP3    H163820   2.116   4.609   3.967 -0.7368  2.1765  0.5319
14135TIP3    H263821   2.142   4.577   3.822  1.8177  1.7189  1.0578
14136TIP3   OH263822   2.519   6.433   4.454 -0.6995 -1.0082 -0.5549
14136TIP3    H163823   2.440   6.388   4.485 -0.7144 -0.6218 -0.0236
14136TIP3    H263824   2.487   6.495   4.388 -1.2972  1.5155  2.0107
14137TIP3   OH263825   1.890   4.277  16.792 -0.3768 -0.1775  0.3964
14137TIP3    H163826   1.816   4.258  16.733 -2.2752  1.4375  2.1569
14137TIP3    H263827   1.967   4.249  16.744 -2.0911 -1.2744 -1.8075
14138TIP3   OH263828   0.605   5.289  14.296 -0.1505 -0.2192  0.0418
14138TIP3    H163829   0.668   5.272  14.366  0.0186  0.5455  0.0734
14138TIP3    H263830   0.529   5.236  14.319  0.0645 -0.2965  0.5767
14139TIP3   OH263831   2.077   3.979  11.298 -0.2282 -0.7930 -0.3177
14139TIP3    H163832   2.150   3.917  11.296  1.1701  0.8073 -0.4080
14139TIP3    H263833   2.072   4.012  11.209  0.2179  0.5556  0.1521
14140TIP3   OH263834   1.566   3.484  14.997 -0.3455 -0.2947  0.2115
14140TIP3    H163835   1.586   3.393  15.016 -1.1176 -0.5281 -0.0999
14140TIP3    H263836   1.477   3.483  14.962  0.0410  0.4485 -0.8174
14141TIP3   OH263837   5.227   4.759  13.940  0.1875 -0.3121  0.1086
14141TIP3    H163838   5.136   4.750  13.970  0.1432 -1.0900 -0.2632
14141TIP3    H263839   5.224   4.832  13.878 -0.1201 -0.1071  0.3606
14142TIP3   OH263840   2.336   4.405   0.853  0.2944 -0.2825 -0.2350
14142TIP3    H163841   2.297   4.479   0.805 -1.5735 -1.5834 -0.8002
14142TIP3    H263842   2.315   4.423   0.945  0.3665  0.1868 -0.3079
14143TIP3   OH263843   0.648   4.549  12.469  0.4891 -0.4255  0.4862
14143TIP3    H163844   0.693   4.618  12.517  2.9066 -1.2802 -0.4580
14143TIP3    H263845   0.632   4.587  12.382  0.0230 -0.3529  0.6072
14144TIP3   OH263846   2.169   2.417   5.709  0.5986  0.0492  0.4937
14144TIP3    H163847   2.124   2.362   5.774  1.3694  1.2355  2.0744
14144TIP3    H263848   2.121   2.500   5.711  0.6776  0.1161 -0.4074
14145TIP3   OH263849   5.011   5.010  16.911 -0.3146  0.0844 -0.2999
14145TIP3    H163850   5.060   5.057  16.978  0.7235  0.3099 -1.2155
14145TIP3    H263851   5.076   4.957  16.866 -0.9823  0.0241 -1.2113
14146TIP3   OH263852   6.648   4.071  12.787  1.0214 -0.4988 -0.0380
14146TIP3    H163853   6.666   4.155  12.829 -2.9503  1.0627 -1.2525
14146TIP3    H263854   6.595   4.023  12.851  0.3045 -0.6550 -0.7408
14147TIP3   OH263855   1.162   2.513  12.132 -0.2561 -0.6587 -0.0387
14147TIP3    H163856   1.090   2.523  12.070  1.3604 -0.8676 -2.0075
14147TIP3    H263857   1.156   2.422  12.162 -2.1952 -0.0156  1.6306
14148TIP3   OH263858   4.255   1.708  16.259 -0.1699 -0.0325  0.0675
14148TIP3    H163859   4.333   1.727  16.312  0.0285  1.1985 -0.6491
14148TIP3    H263860   4.261   1.614  16.241  2.5770  0.4953 -2.1560
14149TIP3   OH263861   5.898   4.261  14.463  0.2827  0.3316  0.2449
14149TIP3    H163862   5.971   4.266  14.524  0.6363 -0.9836 -0.0365
14149TIP3    H263863   5.937   4.276  14.377  0.3715 -1.0878  0.0165
14150TIP3   OH263864   2.727   4.988   3.352  0.2001 -0.1702 -0.0290
14150TIP3    H163865   2.662   4.931   3.393  0.4731  0.1106  0.8047
14150TIP3    H263866   2.807   4.974   3.403  0.5611  0.1300 -0.5063
14151TIP3   OH263867   0.730   2.413   2.273 -0.4556  0.4656  0.4808
14151TIP3    H163868   0.807   2.398   2.218 -1.3589  1.4984 -1.1160
14151TIP3    H263869   0.688   2.327   2.281  0.8936 -0.1075  1.4158
14152TIP3   OH263870   1.813   1.773  16.555 -0.1831 -0.1669 -0.1738
14152TIP3    H163871   1.728   1.813  16.572  0.1979 -0.2573  2.1338
14152TIP3    H263872   1.865   1.842  16.514 -1.6026 -0.3642 -2.3820
14153TIP3   OH263873   4.474   4.463  10.522 -0.1855  0.3542 -0.6117
14153TIP3    H163874   4.466   4.554  10.495 -1.0517  0.9963  1.6640
14153TIP3    H263875   4.385   4.429  10.519 -0.2210  0.2915  0.8442
14154TIP3   OH263876   2.794   6.173  13.907 -0.3647 -0.2781 -0.2018
14154TIP3    H163877   2.769   6.262  13.884 -1.6329 -0.7282 -0.5889
14154TIP3    H263878   2.770   6.121  13.831  0.3023 -0.9674  0.0523
14155TIP3   OH263879   3.555   5.717   2.856  0.3566  0.3216  0.3006
14155TIP3    H163880   3.533   5.635   2.811 -0.0746  0.5395  0.1080
14155TIP3    H263881   3.576   5.690   2.945 -1.9690  0.2203  0.8550
14156TIP3   OH263882   4.187   5.895   5.453 -0.5372  0.5839  0.3591
14156TIP3    H163883   4.252   5.837   5.494 -0.8503  0.9633  1.4050
14156TIP3    H263884   4.147   5.942   5.526  0.3388  2.7843 -0.5458
14157TIP3   OH263885   2.275   3.403   5.667  0.1282  0.4443 -0.0790
14157TIP3    H163886   2.366   3.421   5.643  0.4431  0.1109  0.8355
14157TIP3    H263887   2.228   3.397   5.584  0.9709  0.4778 -0.5567
14158TIP3   OH263888   6.272   6.037  16.480 -0.3428 -0.4246  0.4658
14158TIP3    H163889   6.344   6.030  16.417 -0.8772  0.3676 -0.2394
14158TIP3    H263890   6.199   6.074  16.430 -1.7086 -2.5567  0.8127
14159TIP3   OH263891   5.663   5.568  10.881 -0.3077  0.5337 -0.6612
14159TIP3    H163892   5.644   5.480  10.914 -0.3007  1.0442  0.7482
14159TIP3    H263893   5.704   5.554  10.796 -0.2013 -0.8271 -0.3897
14160TIP3   OH263894   2.763   2.865   2.730  0.3792 -0.1521  0.0645
14160TIP3    H163895   2.672   2.871   2.700  0.6568  0.1850 -0.7301
14160TIP3    H263896   2.777   2.947   2.777  0.0033 -0.5950  0.9604
14161TIP3   OH263897   1.736   3.222   0.704  0.1784 -0.1340  0.3148
14161TIP3    H163898   1.756   3.159   0.635  0.3348 -0.2058  0.4253
14161TIP3    H263899   1.642   3.215   0.716  0.2653 -0.7051  0.6739
14162TIP3   OH263900   2.191   3.001   2.928 -0.2798 -0.2704 -0.8100
14162TIP3    H163901   2.139   3.080   2.911 -0.2448 -0.8161 -3.8210
14162TIP3    H263902   2.142   2.953   2.995 -1.2918  1.3689 -0.3504
14163TIP3   OH263903   6.336   4.518  14.751  0.0607  0.4921  0.4998
14163TIP3    H163904   6.419   4.563  14.759  0.4274 -0.1915  0.6020
14163TIP3    H263905   6.294   4.557  14.674  1.1037 -0.1370 -0.4016
14164TIP3   OH263906   1.774   4.487   3.289 -0.8698 -0.7427  0.5468
14164TIP3    H163907   1.743   4.519   3.205 -1.0678 -1.1423  0.4628
14164TIP3    H263908   1.857   4.532   3.304 -0.3477 -1.3873 -0.3270
14165TIP3   OH263909   2.582   1.162  12.466  0.0832 -0.0665  0.1399
14165TIP3    H163910   2.607   1.075  12.435 -0.3659  0.3380 -1.4474
14165TIP3    H263911   2.564   1.211  12.385  0.0652  1.4093  1.0275
14166TIP3   OH263912   1.612   2.633  10.909 -0.3958  0.0570  0.3631
14166TIP3    H163913   1.567   2.692  10.849 -1.0734 -1.0209 -0.2016
14166TIP3    H263914   1.648   2.691  10.977  1.6875  1.4558 -1.8577
14167TIP3   OH263915   3.784   5.354  12.094  0.1700  0.5333 -0.7958
14167TIP3    H163916   3.778   5.389  12.183 -2.3596  1.1676 -1.1803
14167TIP3    H263917   3.795   5.431  12.038 -0.8826  0.3625 -1.2503
14168TIP3   OH263918   0.512   1.419   1.334 -0.0058  0.5519  0.2246
14168TIP3    H163919   0.576   1.410   1.405 -0.4510  2.1268  0.8539
14168TIP3    H263920   0.483   1.510   1.340 -0.5434  0.5096 -1.5680
14169TIP3   OH263921   3.441   4.703  16.631  0.0343 -0.3005 -0.2273
14169TIP3    H163922   3.387   4.632  16.597 -1.4730 -0.0656  1.5816
14169TIP3    H263923   3.434   4.772  16.564 -1.3383 -0.5544 -0.3691
14170TIP3   OH263924   5.332   3.412   1.499 -0.2733  0.0619  0.2818
14170TIP3    H163925   5.316   3.328   1.457 -1.5120  1.0371 -1.2562
14170TIP3    H263926   5.259   3.422   1.560  0.6255 -0.5924  1.4857
14171TIP3   OH263927   3.253   1.070  12.525  0.2727 -0.1511  0.3788
14171TIP3    H163928   3.280   1.049  12.436  1.3046  0.1535  0.6153
14171TIP3    H263929   3.306   1.013  12.580  0.7449  0.7481  0.8633
14172TIP3   OH263930   3.252   4.132  13.843  0.2115  0.1858  0.0045
14172TIP3    H163931   3.270   4.218  13.882  3.0916 -1.2844  2.1649
14172TIP3    H263932   3.179   4.098  13.895  2.1769 -0.5762  2.3637
14173TIP3   OH263933   2.333   4.809  12.831 -0.6549 -0.8054 -0.3399
14173TIP3    H163934   2.264   4.804  12.765  0.3516  0.2190 -1.4931
14173TIP3    H263935   2.385   4.731  12.817 -0.2777 -0.4436 -0.9411
14174TIP3   OH263936   0.391   3.388   6.455 -0.6038 -0.3174 -0.2380
14174TIP3    H163937   0.437   3.305   6.443  0.0600  0.0485 -0.2444
14174TIP3    H263938   0.366   3.414   6.367 -0.3740 -0.2615 -0.2863
14175TIP3   OH263939   4.130   2.565   3.326  0.3837  0.1160 -0.2163
14175TIP3    H163940   4.158   2.474   3.333 -1.8616 -0.6829 -1.1449
14175TIP3    H263941   4.036   2.562   3.343  0.8627  2.7945  3.5926
14176TIP3   OH263942   6.686   0.801  15.884  0.5439  0.0369  0.7116
14176TIP3    H163943   6.671   0.708  15.866 -0.7289 -0.1841  2.7313
14176TIP3    H263944   6.781   0.809  15.892  0.7508 -0.8245 -0.8055
14177TIP3   OH263945   6.008   6.263  11.404  0.0365 -0.2130  0.1039
14177TIP3    H163946   5.959   6.279  11.323 -2.4863  0.2171  1.6533
14177TIP3    H263947   6.068   6.337  11.410 -1.3764  0.9854 -0.2080
14178TIP3   OH263948   2.887   0.014  13.439  0.6303 -0.0594  0.3964
14178TIP3    H163949   2.809  -0.012  13.488 -0.9531 -0.1042 -2.0480
14178TIP3    H263950   2.915  -0.067  13.395  0.7280  0.4514 -0.4846
14179TIP3   OH263951   4.444   1.288   3.456 -0.2111  0.3055 -0.1763
14179TIP3    H163952   4.427   1.273   3.549  0.3265  0.1165 -0.1038
14179TIP3    H263953   4.366   1.333   3.424 -2.5325 -3.7823 -0.6750
14180TIP3   OH263954   6.431   2.436  16.686 -0.1666  0.2854 -0.7375
14180TIP3    H163955   6.443   2.344  16.664 -1.8068  0.2956 -1.7441
14180TIP3    H263956   6.340   2.442  16.715  0.6576  1.1196  1.8491
14181TIP3   OH263957   6.763   4.173  17.096 -0.1338  0.1387 -0.0780
14181TIP3    H163958   6.816   4.104  17.135 -1.4089 -1.2421 -0.7543
14181TIP3    H263959   6.675   4.137  17.091 -1.4174  2.7722  1.9461
14182TIP3   OH263960   2.797   4.537   5.394  0.7743  0.3835 -0.2281
14182TIP3    H163961   2.771   4.472   5.328  0.6469 -1.4373  1.5622
14182TIP3    H263962   2.736   4.610   5.382  0.5502 -0.0570 -1.9026
14183TIP3   OH263963   6.136   4.579  15.687 -0.5275 -0.0734 -0.3193
14183TIP3    H163964   6.169   4.545  15.604  1.0919  0.1010  0.2345
14183TIP3    H263965   6.122   4.502  15.742  0.8403 -0.0274  0.1083
14184TIP3   OH263966   0.933   3.033  15.985 -0.4223  0.0328 -0.1393
14184TIP3    H163967   0.972   3.026  15.899  0.3818 -0.2445  0.2422
14184TIP3    H263968   0.840   3.049  15.968 -0.3578 -0.5209 -1.0520
14185TIP3   OH263969   6.435   6.177  14.655  0.1195 -0.7477  0.4708
14185TIP3    H163970   6.521   6.197  14.690  1.0318 -1.8667 -1.0714
14185TIP3    H263971   6.406   6.100  14.705 -0.4787  0.2986  1.7522
14186TIP3   OH263972   1.290   5.417  11.558  0.0677 -0.3937  0.2430
14186TIP3    H163973   1.280   5.433  11.652  1.5483 -0.4796  0.4172
14186TIP3    H263974   1.218   5.357  11.537  0.5644 -1.5052  1.6006
14187TIP3   OH263975   4.665   1.854  11.478 -0.2002 -0.0089  0.0996
14187TIP3    H163976   4.631   1.797  11.547 -0.0123  0.9224  0.9712
14187TIP3    H263977   4.715   1.795  11.421 -0.8066 -0.8791  0.4484
14188TIP3   OH263978   3.730   6.671   2.326 -0.3625 -0.1055 -0.2413
14188TIP3    H163979   3.753   6.728   2.400  1.7176 -0.5327 -0.5181
14188TIP3    H263980   3.749   6.583   2.357  0.0171 -0.3253 -1.0946
14189TIP3   OH263981   0.702   2.533   1.840  0.4798 -0.2558  0.0767
14189TIP3    H163982   0.689   2.600   1.907  1.0060 -2.8349  2.8040
14189TIP3    H263983   0.614   2.513   1.809  0.3459  1.9722 -1.0979
14190TIP3   OH263984   2.220   2.076   1.326 -0.4425 -0.7403 -0.1068
14190TIP3    H163985   2.228   2.142   1.395  0.6417 -1.8208  0.8115
14190TIP3    H263986   2.126   2.069   1.311 -0.5644  1.4525 -0.6626
14191TIP3   OH263987   4.439   3.801   5.371 -0.3316 -0.1445  0.0008
14191TIP3    H163988   4.409   3.741   5.440  0.3419 -0.6269 -0.1249
14191TIP3    H263989   4.363   3.810   5.314 -0.2982 -1.2588 -0.2421
14192TIP3   OH263990   2.909   6.416  15.931 -1.0568 -0.2723 -0.3314
14192TIP3    H163991   2.866   6.455  16.007 -0.7838 -0.2041 -0.2138
14192TIP3    H263992   2.838   6.405  15.867 -0.8771  1.8496 -0.9485
14193TIP3   OH263993   0.465   1.962  17.093 -0.4214 -0.0886  0.3266
14193TIP3    H163994   0.454   1.912  17.174  0.8045  0.4860  0.8595
14193TIP3    H263995   0.556   1.991  17.095  0.2694 -1.8693 -2.2971
14194TIP3   OH263996   2.189   5.785  17.028 -0.6580  0.0979 -0.2882
14194TIP3    H163997   2.284   5.782  17.040 -0.6526  0.5613 -0.2195
14194TIP3    H263998   2.174   5.738  16.946 -0.3875 -0.1234 -0.2132
14195TIP3   OH263999   1.792   4.936   5.567  0.1127  0.7290 -0.0578
14195TIP3    H164000   1.739   4.980   5.633 -0.8848  0.9624 -0.9876
14195TIP3    H264001   1.883   4.947   5.596 -0.3031  1.0340  1.1247
14196TIP3   OH264002   2.271   4.969  15.331  0.4047 -0.2556  0.3583
14196TIP3    H164003   2.328   4.893  15.319  0.2187 -0.5645  1.3608
14196TIP3    H264004   2.182   4.933  15.331  0.0974  0.3682 -2.4274
14197TIP3   OH264005   4.615   4.689   1.912 -0.2908  0.3029 -0.0020
14197TIP3    H164006   4.575   4.607   1.941  0.4893 -0.9317 -2.3247
14197TIP3    H264007   4.579   4.705   1.825  1.2133  1.2956 -0.4690
14198TIP3   OH264008   6.209   5.759  14.820 -0.2292 -0.5540 -0.2182
14198TIP3    H164009   6.199   5.665  14.802  4.2920 -1.4700  1.5043
14198TIP3    H264010   6.243   5.763  14.909 -1.0275  2.8358  0.0141
14199TIP3   OH264011   4.417   4.853  16.518 -0.2022 -0.6957  0.3338
14199TIP3    H164012   4.494   4.803  16.546  0.2280  0.5826  1.4994
14199TIP3    H264013   4.357   4.788  16.483  1.3471 -1.7322 -0.4407
14200TIP3   OH264014   1.732   5.057   0.510 -0.1293 -0.6459 -0.1646
14200TIP3    H164015   1.705   4.989   0.572 -0.2580 -1.1985 -0.8299
14200TIP3    H264016   1.694   5.137   0.546 -0.2821 -0.9768  0.4273
14201TIP3   OH264017   1.284   5.403  12.272  0.4334  0.3957 -0.5057
14201TIP3    H164018   1.339   5.369  12.343  1.1213 -1.0176 -1.6831
14201TIP3    H264019   1.204   5.432  12.315  1.8311  1.8633  1.1554
14202TIP3   OH264020   2.728   5.601   1.389 -0.2242  0.5956 -0.4083
14202TIP3    H164021   2.813   5.572   1.422 -0.4346  0.0631 -0.3368
14202TIP3    H264022   2.664   5.556   1.444 -0.5648  0.3334 -1.0261
14203TIP3   OH264023   1.536   2.687  11.970  0.1251 -0.8452  0.3102
14203TIP3    H164024   1.503   2.708  12.057 -0.4310  1.5523 -0.4559
14203TIP3    H264025   1.629   2.671  11.983  0.1339 -0.0551  1.2818
14204TIP3   OH264026   4.747   2.797  15.224  0.2614  0.2310  0.2488
14204TIP3    H164027   4.835   2.832  15.233  1.2476 -1.5136 -2.1701
14204TIP3    H264028   4.740   2.772  15.132 -2.2727 -0.9689  0.7140
14205TIP3   OH264029   6.438   1.916   5.657 -0.5464  0.2403  0.3078
14205TIP3    H164030   6.498   1.954   5.721 -0.6190 -1.0764  1.1762
14205TIP3    H264031   6.387   1.990   5.625 -1.1031  0.7984  2.4316
14206TIP3   OH264032   2.020   6.560  13.814 -0.3358  0.0117 -0.0007
14206TIP3    H164033   2.014   6.593  13.725 -0.7298 -1.2723 -0.4644
14206TIP3    H264034   1.970   6.478  13.813  2.6467 -1.9073  0.4735
14207TIP3   OH264035   3.670   0.769   1.343  0.2347  0.1522  0.8708
14207TIP3    H164036   3.658   0.833   1.414  0.5808 -0.8183  1.8150
14207TIP3    H264037   3.759   0.736   1.356  0.5043  0.3781 -0.3657
14208TIP3   OH264038   3.617   2.063   3.901 -0.1298  0.0669  0.1406
14208TIP3    H164039   3.594   1.998   3.835 -1.0253 -1.0309  1.5068
14208TIP3    H264040   3.679   2.017   3.959  0.1062  0.7938  0.4682
14209TIP3   OH264041   3.223   4.699   3.140 -0.2208 -0.4006 -0.5779
14209TIP3    H164042   3.315   4.718   3.158  0.7836 -0.5528 -4.9157
14209TIP3    H264043   3.220   4.604   3.128 -1.0335 -0.4486 -0.0302
14210TIP3   OH264044   5.831   1.988  14.304 -0.0910 -0.4466 -0.1288
14210TIP3    H164045   5.756   1.952  14.350  0.1545 -1.2872 -0.3712
14210TIP3    H264046   5.793   2.044  14.236 -0.4658  0.1200  0.5483
14211TIP3   OH264047   2.229   1.849  11.329  0.0209 -0.5916  0.0234
14211TIP3    H164048   2.214   1.758  11.304  1.5860 -0.7001 -0.5256
14211TIP3    H264049   2.238   1.896  11.246 -1.2160  0.1562  0.2911
14212TIP3   OH264050   1.586   0.561  11.747  0.2271 -0.0725  0.2862
14212TIP3    H164051   1.515   0.593  11.691 -1.2654 -1.4935  1.3127
14212TIP3    H264052   1.542   0.528  11.826  1.9439 -1.8140  0.5659
14213TIP3   OH264053   1.829   6.180   1.165  0.1660  0.0523 -0.0687
14213TIP3    H164054   1.829   6.174   1.260  1.3895 -1.6280 -0.1604
14213TIP3    H264055   1.895   6.246   1.144  0.8068 -0.5031  0.2014
14214TIP3   OH264056   6.364   4.054  16.562  0.3300  0.7250  0.2191
14214TIP3    H164057   6.407   4.021  16.641  0.6139  0.8913  0.1368
14214TIP3    H264058   6.351   3.977  16.507 -0.3753  0.5274  0.6626
14215TIP3   OH264059   5.294   0.029   5.802  0.6454  0.2339 -0.3284
14215TIP3    H164060   5.368   0.069   5.847 -0.5903  2.3852 -0.1515
14215TIP3    H264061   5.231   0.011   5.871  0.7849 -1.1689 -0.5427
14216TIP3   OH264062   2.958   5.417  15.373  0.0344 -0.4281  0.1328
14216TIP3    H164063   2.939   5.511  15.379  1.0538 -0.2157  0.1823
14216TIP3    H264064   3.024   5.402  15.440  0.4466 -1.0229 -0.3985
14217TIP3   OH264065   1.775   3.665  16.147  0.0317  0.5386  0.3602
14217TIP3    H164066   1.754   3.637  16.058 -0.6922 -1.3048  1.0791
14217TIP3    H264067   1.716   3.738  16.165 -0.1260  0.6242 -0.5194
14218TIP3   OH264068   5.002   0.585  16.580  0.6750  0.0599 -0.1399
14218TIP3    H164069   5.010   0.601  16.486 -1.1717  0.6213 -0.2327
14218TIP3    H264070   5.085   0.615  16.617  0.9166  1.0436 -1.4346
14219TIP3   OH264071   5.800   5.036   6.280 -0.2108 -0.1238  0.3281
14219TIP3    H164072   5.721   5.079   6.246 -0.6538 -0.5642  0.8070
14219TIP3    H264073   5.768   4.980   6.351  0.6483  0.3974  1.1293
14220TIP3   OH264074   4.628   3.396  15.761  0.9765 -0.8581  0.0437
14220TIP3    H164075   4.571   3.321  15.777  0.8450 -0.6566  0.5304
14220TIP3    H264076   4.618   3.415  15.668  0.5302 -1.0496  0.0503
14221TIP3   OH264077   2.567   1.741  15.276  0.7546 -0.0568 -0.2417
14221TIP3    H164078   2.482   1.698  15.282 -0.1719  1.8273  0.7682
14221TIP3    H264079   2.615   1.692  15.209 -1.5224 -0.4568 -1.6064
14222TIP3   OH264080   5.945   4.018  15.090 -0.1537 -0.0879  0.3080
14222TIP3    H164081   5.975   4.026  14.999 -0.7416  0.2114  0.1333
14222TIP3    H264082   5.853   3.991  15.082 -0.4424  0.7480  0.8034
14223TIP3   OH264083   6.731   4.044  14.979 -0.1933  0.6916  0.2202
14223TIP3    H164084   6.759   4.135  14.985 -1.3763  1.2195 -1.6674
14223TIP3    H264085   6.662   4.045  14.912  1.3437 -1.9387 -1.4862
14224TIP3   OH264086   0.747   5.758  13.160  0.0742  0.3595 -0.4037
14224TIP3    H164087   0.827   5.805  13.135  0.1422 -0.5068 -1.8902
14224TIP3    H264088   0.758   5.741  13.253  1.1912  1.1094 -0.3833
14225TIP3   OH264089   2.049   6.734  12.354  0.4838  0.0692 -0.5483
14225TIP3    H164090   2.131   6.701  12.317  1.3467  1.1604  0.3787
14225TIP3    H264091   2.040   6.823  12.320  0.0024  0.1822 -0.1504
14226TIP3   OH264092   4.915   0.702  12.706 -0.1782  0.3459  0.2463
14226TIP3    H164093   4.835   0.703  12.758  0.9361 -1.4989  2.0842
14226TIP3    H264094   4.913   0.784  12.656 -3.1442  0.3548  0.3231
14227TIP3   OH264095   1.433   4.248   5.161 -0.0516  0.1706  0.5078
14227TIP3    H164096   1.385   4.205   5.090 -1.5622  1.8203  0.4892
14227TIP3    H264097   1.406   4.201   5.240  1.9588 -1.9451 -0.0252
14228TIP3   OH264098   0.679   0.121  16.054  0.2402  0.2890  0.4015
14228TIP3    H164099   0.718   0.058  15.994 -0.9133  0.7851 -0.8876
14228TIP3    H264100   0.598   0.148  16.011 -0.3295  1.0620  1.9286
14229TIP3   OH264101   5.492   4.560   3.498 -0.7822 -0.0113 -0.3954
14229TIP3    H164102   5.430   4.556   3.425  0.6877  0.7158 -1.7244
14229TIP3    H264103   5.569   4.511   3.466  0.3383  1.3525  0.1742
14230TIP3   OH264104   2.741   3.023  12.371 -0.2249 -0.5019  0.5867
14230TIP3    H164105   2.695   3.089  12.422 -1.9487 -1.9126  0.9342
14230TIP3    H264106   2.722   2.941  12.416 -0.3077 -1.5586 -1.3180
14231TIP3   OH264107   1.285   5.880  16.324 -0.3806  0.3520 -0.1913
14231TIP3    H164108   1.332   5.894  16.241  0.1608 -2.3800 -0.3939
14231TIP3    H264109   1.194   5.868  16.299 -0.4716  1.1325 -0.2359
14232TIP3   OH264110   3.762   3.390   0.364  0.1795  0.4401  0.5767
14232TIP3    H164111   3.689   3.347   0.409  0.8537 -0.7458  0.5351
14232TIP3    H264112   3.761   3.479   0.399 -2.3519  0.9597 -0.6882
14233TIP3   OH264113   3.545   6.275  16.291 -0.3542 -0.1143  0.1951
14233TIP3    H164114   3.625   6.327  16.281  0.7381 -1.8566 -0.3730
14233TIP3    H264115   3.545   6.249  16.384 -1.9299  2.4682  0.9681
14234TIP3   OH264116   2.874   4.470  14.706 -0.4566 -0.3212 -0.2889
14234TIP3    H164117   2.905   4.389  14.746  1.0176 -0.3736 -1.4769
14234TIP3    H264118   2.860   4.447  14.614 -0.0367  0.7612 -0.6274
14235TIP3   OH264119   5.050   5.698  11.382  0.1806 -0.2315  0.2078
14235TIP3    H164120   5.014   5.614  11.409 -2.2761  0.8814  0.5062
14235TIP3    H264121   5.099   5.678  11.302 -0.5133 -1.9000  0.1834
14236TIP3   OH264122   0.393   5.684  14.601  0.0750  0.0327  0.0591
14236TIP3    H164123   0.329   5.731  14.655 -0.6490 -0.2878 -0.5132
14236TIP3    H264124   0.444   5.752  14.558 -0.5636  0.2990 -0.2833
14237TIP3   OH264125   4.200   6.243  16.206 -0.1787  0.1550  0.3387
14237TIP3    H164126   4.121   6.269  16.254 -0.9350 -0.7220 -0.4160
14237TIP3    H264127   4.199   6.147  16.207  0.7148  0.1346  0.0544
14238TIP3   OH264128   6.091   0.260  14.124  0.0170 -0.0299 -0.1181
14238TIP3    H164129   6.066   0.170  14.105  0.8858  0.0086 -1.5514
14238TIP3    H264130   6.149   0.284  14.051 -0.3444  1.7371  0.1661
14239TIP3   OH264131   2.284   0.061  16.020 -0.1120  0.0921 -0.1573
14239TIP3    H164132   2.269  -0.015  15.964  2.7128 -0.3100 -0.4503
14239TIP3    H264133   2.310   0.131  15.959  1.4312  0.0866  0.4668
14240TIP3   OH264134   6.371   3.442   1.599 -0.1131  1.0771 -0.0402
14240TIP3    H164135   6.433   3.509   1.627  1.3324  0.0986 -0.8323
14240TIP3    H264136   6.316   3.426   1.676  2.6013 -0.2628  1.6910
14241TIP3   OH264137   3.482   0.131  15.519  0.6488  0.1674 -0.6705
14241TIP3    H164138   3.524   0.133  15.433  0.0691 -0.8898 -0.9868
14241TIP3    H264139   3.502   0.044  15.553  1.5454  0.8709  0.6040
14242TIP3   OH264140   3.489   2.173  16.366 -0.8933  0.6034  0.3214
14242TIP3    H164141   3.567   2.225  16.348  0.1211 -2.0121 -3.4271
14242TIP3    H264142   3.517   2.111  16.433  0.2468 -0.2238 -0.8904
14243TIP3   OH264143   6.177   1.657   2.088 -0.8529 -0.1345  0.2717
14243TIP3    H164144   6.272   1.659   2.077 -0.8713  0.0915  0.1603
14243TIP3    H264145   6.143   1.639   2.001 -0.9744  1.1958  0.0424
14244TIP3   OH264146   4.020   0.731  10.764 -0.7941  0.2100  0.0508
14244TIP3    H164147   4.016   0.806  10.823  0.5069 -0.5563  1.1449
14244TIP3    H264148   3.929   0.702  10.755 -1.2721  1.7346 -0.1716
14245TIP3   OH264149   3.679   3.865  16.663 -0.6611  0.7308 -0.4244
14245TIP3    H164150   3.616   3.897  16.600 -1.8364  0.7788  0.7649
14245TIP3    H264151   3.629   3.849  16.743  1.1128  2.4700  1.1067
14246TIP3   OH264152   3.107   5.141   4.422 -0.4545  0.1473 -0.4308
14246TIP3    H164153   3.026   5.111   4.462  0.7442 -1.4212  0.8910
14246TIP3    H264154   3.169   5.069   4.436  2.0692  2.5912  1.4672
14247TIP3   OH264155   3.694   4.985   2.882 -0.4190 -1.0938 -0.4516
14247TIP3    H164156   3.682   5.023   2.795 -1.1206 -1.8822 -0.6982
14247TIP3    H264157   3.783   4.950   2.880 -0.0970 -0.2917 -0.5297
14248TIP3   OH264158   3.416   6.402   0.800  0.0172 -0.1426  0.0347
14248TIP3    H164159   3.347   6.416   0.865  0.1985 -0.2941  0.2588
14248TIP3    H264160   3.378   6.432   0.717  0.0256  0.7013  0.3315
14249TIP3   OH264161   6.116   6.107   3.538  0.4920  0.0815 -0.5734
14249TIP3    H164162   6.208   6.122   3.514  0.7340 -1.0987 -0.3945
14249TIP3    H264163   6.103   6.013   3.525  0.2293 -0.3565  2.5618
14250TIP3   OH264164   2.269   5.568  15.993 -0.6273  0.0354 -0.4351
14250TIP3    H164165   2.342   5.553  15.934  0.2378  0.6779  0.4686
14250TIP3    H264166   2.192   5.537  15.945  0.0545  0.6702 -1.9316
14251TIP3   OH264167   0.259   1.742  16.034  0.0081 -0.0765 -0.2909
14251TIP3    H164168   0.226   1.658  16.002  1.8898 -0.4806 -1.2980
14251TIP3    H264169   0.261   1.732  16.129 -0.4324 -0.9232 -0.3619
14252TIP3   OH264170   0.094   4.530  11.300 -0.5179  0.3417  0.2444
14252TIP3    H164171   0.024   4.551  11.239  0.6234 -1.0929 -1.6068
14252TIP3    H264172   0.050   4.519  11.384 -2.4005  0.1868 -0.7452
14253TIP3   OH264173   0.194   2.893  16.097 -0.4079  0.4829 -0.0206
14253TIP3    H164174   0.281   2.928  16.080 -0.1218 -0.0150  0.3928
14253TIP3    H264175   0.209   2.802  16.122 -1.1836 -0.1457 -1.7391
14254TIP3   OH264176   2.056   4.294   5.353  0.1618  0.5931  0.2973
14254TIP3    H164177   2.052   4.338   5.438 -1.1048 -0.2517  0.7031
14254TIP3    H264178   1.964   4.274   5.333  0.4125  1.2489 -1.5159
14255TIP3   OH264179   0.865   4.919  11.334  0.1388 -0.5538  0.3030
14255TIP3    H164180   0.786   4.972  11.330 -0.3098 -1.2183  0.4066
14255TIP3    H264181   0.868   4.886  11.423  0.7949 -0.1444  0.4449
14256TIP3   OH264182   2.155   4.302  15.974 -0.3115 -0.1294  0.2589
14256TIP3    H164183   2.175   4.352  16.053  0.4907  0.9622 -0.6189
14256TIP3    H264184   2.239   4.291  15.929 -0.7605 -0.6782 -0.4736
14257TIP3   OH264185   3.252   5.446  10.932  0.5754 -0.0159  0.7393
14257TIP3    H164186   3.284   5.362  10.966 -0.3099 -0.4640  0.5005
14257TIP3    H264187   3.212   5.423  10.848  0.3678  0.6573  0.6576
14258TIP3   OH264188   4.761   5.806  14.082 -0.0394 -0.0666  0.1108
14258TIP3    H164189   4.667   5.808  14.098 -0.1990 -0.5798 -0.7293
14258TIP3    H264190   4.781   5.714  14.063  0.6118  0.0502  0.2029
14259TIP3   OH264191   3.397   6.316   1.570 -0.1374  0.3344 -0.3238
14259TIP3    H164192   3.434   6.325   1.658 -0.7235  0.4272 -0.0885
14259TIP3    H264193   3.357   6.401   1.552 -0.9294 -0.0182 -0.2618
14260TIP3   OH264194   1.370   1.310  12.181  0.3185 -0.1409  0.2283
14260TIP3    H164195   1.315   1.386  12.164 -2.6620 -2.6233 -1.7366
14260TIP3    H264196   1.428   1.303  12.105  0.7465  0.2748  0.5142
14261TIP3   OH264197   0.099   1.867  16.793 -0.2739  0.3074  0.0554
14261TIP3    H164198   0.194   1.873  16.805 -0.2891  0.1378  0.2544
14261TIP3    H264199   0.073   1.792  16.845 -0.3580 -0.3286 -0.8961
14262TIP3   OH264200   1.691   0.859  12.879  0.2301 -0.0015  0.0769
14262TIP3    H164201   1.596   0.848  12.873  0.1251  0.3324  1.0466
14262TIP3    H264202   1.727   0.790  12.823 -0.5619 -0.9036  0.6642
14263TIP3   OH264203   3.662   6.762   1.690  0.6958 -0.4880 -0.6304
14263TIP3    H164204   3.678   6.851   1.722 -1.3845 -0.8154  1.4475
14263TIP3    H264205   3.730   6.710   1.732 -0.1942 -0.4228  0.9162
14264TIP3   OH264206   5.713   6.544   1.473 -0.2173  0.2447  0.2539
14264TIP3    H164207   5.742   6.532   1.383 -1.6049  1.5115 -0.3736
14264TIP3    H264208   5.793   6.543   1.525  0.6887  0.6942 -1.1280
14265TIP3   OH264209   4.809   1.714   2.572 -0.1593 -0.1222  0.8455
14265TIP3    H164210   4.714   1.710   2.588 -0.2721  0.4557  0.3406
14265TIP3    H264211   4.847   1.659   2.641 -0.7185  1.3642  2.3715
14266TIP3   OH264212   3.761   4.711   2.090  0.2642 -0.1362 -0.3376
14266TIP3    H164213   3.848   4.718   2.050  0.1686 -2.5359 -1.0502
14266TIP3    H264214   3.701   4.705   2.016 -0.2303 -1.2287  0.1373
14267TIP3   OH264215   1.053   1.309   3.372 -0.1499 -0.3672  0.2204
14267TIP3    H164216   0.988   1.239   3.380 -0.0388 -0.5040 -0.0689
14267TIP3    H264217   1.040   1.363   3.450  0.8833 -1.6372  1.2794
14268TIP3   OH264218   5.455   3.921  16.664 -0.3949 -0.9306  0.2809
14268TIP3    H164219   5.550   3.931  16.668 -0.3787 -0.8663 -0.3671
14268TIP3    H264220   5.440   3.830  16.640 -0.4806 -0.6041 -0.9397
14269TIP3   OH264221   4.042   0.882   3.761  0.4038  0.2862  0.1366
14269TIP3    H164222   4.075   0.968   3.786 -0.8440  0.3846  1.5029
14269TIP3    H264223   4.025   0.889   3.667  1.4239  1.1491  0.0034
14270TIP3   OH264224   2.761   1.192  15.403  0.2275  0.0178  0.2478
14270TIP3    H164225   2.853   1.174  15.385  0.4720 -0.5025  1.9126
14270TIP3    H264226   2.724   1.108  15.429 -0.8208  0.1488 -0.7563
14271TIP3   OH264227   2.584   1.131  10.830  0.0896 -0.0612 -0.0685
14271TIP3    H164228   2.547   1.188  10.762  2.0794  2.1655  0.6495
14271TIP3    H264229   2.568   1.177  10.912  2.8092  0.1008  0.4218
14272TIP3   OH264230   6.342   5.823   5.764  0.2123  0.4947 -0.4699
14272TIP3    H164231   6.386   5.894   5.809  0.3511  0.5061 -0.6221
14272TIP3    H264232   6.341   5.751   5.827  1.7252  0.0257 -0.9608
14273TIP3   OH264233   2.088   0.836  16.932 -0.1612 -0.2049 -0.0268
14273TIP3    H164234   1.998   0.842  16.900  0.1051  0.4758 -0.6888
14273TIP3    H264235   2.133   0.909  16.888  0.7952 -0.7714  0.0071
14274TIP3   OH264236   3.750   5.227  14.908 -0.3288 -0.1265 -0.0853
14274TIP3    H164237   3.766   5.305  14.854 -1.9965 -1.1644 -2.1598
14274TIP3    H264238   3.831   5.177  14.904  0.1833  0.7018 -0.1049
14275TIP3   OH264239   5.250   6.649   1.180 -0.0978  0.0375  0.6345
14275TIP3    H164240   5.325   6.703   1.155 -0.3289  0.2978  0.4954
14275TIP3    H264241   5.237   6.668   1.273  0.5404 -0.6612  0.8638
14276TIP3   OH264242   1.636   3.885   6.161  0.0362 -0.2545 -0.0964
14276TIP3    H164243   1.600   3.910   6.246  1.4025  1.6394 -0.0412
14276TIP3    H264244   1.684   3.803   6.178 -0.9331 -0.6722  0.6320
14277TIP3   OH264245   5.117   1.366   0.012  0.1646  1.0936  0.0307
14277TIP3    H164246   5.189   1.396  -0.044 -1.2690  1.7084 -1.5059
14277TIP3    H264247   5.058   1.320  -0.047  0.0342 -0.7577  1.5568
14278TIP3   OH264248   6.704   4.683   0.887 -0.1904  0.2392  0.1311
14278TIP3    H164249   6.799   4.680   0.898 -0.0899 -2.5287 -1.0783
14278TIP3    H264250   6.687   4.634   0.806 -2.6551  0.5347  0.4175
14279TIP3   OH264251   1.505   5.207  16.712 -0.0780 -0.6603  0.3002
14279TIP3    H164252   1.586   5.242  16.749 -0.0206  0.4875 -0.8913
14279TIP3    H264253   1.533   5.163  16.631 -0.4780 -1.3445  0.5342
14280TIP3   OH264254   5.270   5.472  15.975 -0.1289  0.4720 -0.0244
14280TIP3    H164255   5.320   5.393  15.957  0.0807  0.6123 -0.0626
14280TIP3    H264256   5.335   5.534  16.008 -0.3584  0.5026  0.3762
14281TIP3   OH264257   2.745   3.707  15.797  0.4985  0.2369 -0.0110
14281TIP3    H164258   2.739   3.699  15.701 -0.2202  1.0241 -0.0417
14281TIP3    H264259   2.829   3.669  15.819  2.1054  2.8978 -1.2995
14282TIP3   OH264260   0.406   0.433   1.064  0.1576  0.1491  0.3749
14282TIP3    H164261   0.443   0.347   1.045 -1.3017 -0.2694 -0.7372
14282TIP3    H264262   0.465   0.495   1.021  0.5225 -0.3937  0.0862
14283TIP3   OH264263   5.832   1.860   0.572 -0.3664  0.0789 -0.5129
14283TIP3    H164264   5.824   1.953   0.553  0.8766  0.5837  1.2875
14283TIP3    H264265   5.754   1.820   0.534 -1.4779  2.0110 -0.2871
14284TIP3   OH264266   4.723   2.541  15.364  0.0122  0.6127 -0.5598
14284TIP3    H164267   4.785   2.607  15.332 -1.1700  0.4907 -3.1881
14284TIP3    H264268   4.641   2.588  15.374 -0.4307 -0.1058 -0.8264
14285TIP3   OH264269   0.828   2.762   2.290  0.1932 -0.1263  0.3040
14285TIP3    H164270   0.906   2.715   2.260  0.3638  0.1738  0.2732
14285TIP3    H264271   0.833   2.847   2.245 -1.9230 -1.3488 -2.4146
14286TIP3   OH264272   0.149   5.038  16.025  0.2919 -0.1412 -0.1842
14286TIP3    H164273   0.150   5.060  15.932  0.6268  0.6018 -0.0074
14286TIP3    H264274   0.229   4.987  16.038  0.1578 -0.3929 -0.3349
14287TIP3   OH264275   4.213   4.400  11.088  0.1883 -0.2172  1.2355
14287TIP3    H164276   4.231   4.422  11.180  0.2706  0.8248  0.9740
14287TIP3    H264277   4.284   4.441  11.039  0.3579 -1.0922  0.7329
14288TIP3   OH264278   5.281   4.646   0.866 -0.2120 -0.3212 -0.4141
14288TIP3    H164279   5.314   4.733   0.844 -0.6892 -0.5865 -2.2034
14288TIP3    H264280   5.306   4.591   0.792 -0.8825 -1.4662  0.2008
14289TIP3   OH264281   5.619   1.254  13.739  0.5757  0.5064 -0.3954
14289TIP3    H164282   5.651   1.201  13.665  0.0639  0.1520 -0.3654
14289TIP3    H264283   5.626   1.344  13.709  0.3971  0.3652 -0.8725
14290TIP3   OH264284   3.849   0.020   4.345  0.3403 -0.3746 -0.2003
14290TIP3    H164285   3.868   0.080   4.273  1.3992 -0.9562 -0.4111
14290TIP3    H264286   3.858   0.073   4.424 -1.9166  0.5534 -0.5164
14291TIP3   OH264287   3.604   5.904   2.245 -0.0789 -0.6140  0.5563
14291TIP3    H164288   3.589   5.834   2.309  1.3491 -1.0486  0.4408
14291TIP3    H264289   3.641   5.976   2.297 -0.2770 -0.4372  0.4524
14292TIP3   OH264290   0.533   3.584   3.810 -0.1447 -0.8616 -0.3424
14292TIP3    H164291   0.479   3.574   3.731 -1.4291 -1.7856  0.6231
14292TIP3    H264292   0.620   3.555   3.784 -0.0919  0.5796 -1.9138
14293TIP3   OH264293   5.871   5.237  17.150 -0.7213  0.1043  0.3500
14293TIP3    H164294   5.782   5.268  17.167 -0.4152  0.2339  1.7853
14293TIP3    H264295   5.924   5.317  17.149 -0.7195  0.0841 -1.1544
14294TIP3   OH264296   1.859   1.358   0.256  0.1387 -0.0439 -0.0902
14294TIP3    H164297   1.938   1.387   0.210  0.1009  0.0606 -0.0893
14294TIP3    H264298   1.887   1.284   0.309  0.2377 -0.0008 -0.0837
14295TIP3   OH264299   1.210   4.959   5.459 -0.6917  0.2561  0.0103
14295TIP3    H164300   1.141   5.008   5.415  0.5843  1.9503 -0.1546
14295TIP3    H264301   1.263   4.921   5.389 -1.1650 -0.6326  0.1300
14296TIP3   OH264302   6.787   3.643   4.810  0.1288  0.0178  0.1135
14296TIP3    H164303   6.835   3.603   4.738 -1.2644  1.0317 -1.4227
14296TIP3    H264304   6.723   3.577   4.837  0.2532 -0.1360  0.0328
14297TIP3   OH264305   4.137   4.738   3.094 -0.3704 -0.4457 -0.6715
14297TIP3    H164306   4.220   4.695   3.074  0.0123  0.1759 -0.4112
14297TIP3    H264307   4.159   4.831   3.101 -0.6422 -0.5408  1.7803
14298TIP3   OH264308   6.697   5.399   1.919 -0.1105 -0.0479  0.4832
14298TIP3    H164309   6.792   5.390   1.907 -0.0184  0.3623  0.8921
14298TIP3    H264310   6.681   5.493   1.908 -0.8317 -0.4513 -2.1782
14299TIP3   OH264311   3.130   0.658   1.736 -0.0457 -0.1737  0.0977
14299TIP3    H164312   3.174   0.574   1.745  1.6441  0.8950  2.0332
14299TIP3    H264313   3.119   0.669   1.641  3.6624 -0.5905 -0.4610
14300TIP3   OH264314   4.179   1.502   5.865  0.5788  0.3132 -0.1481
14300TIP3    H164315   4.202   1.512   5.957 -1.4761 -0.8153  0.5281
14300TIP3    H264316   4.211   1.582   5.823  1.2108  1.0018  1.6063
14301TIP3   OH264317   1.894   3.484   1.588 -0.5072  0.5735  0.0731
14301TIP3    H164318   1.921   3.499   1.679 -0.0970  1.4175 -0.1781
14301TIP3    H264319   1.806   3.448   1.595 -0.6029  0.9215  0.7963
14302TIP3   OH264320   3.871   4.323  11.589  0.0619  0.1432 -0.6688
14302TIP3    H164321   3.933   4.388  11.623  0.7685 -1.1912  0.6686
14302TIP3    H264322   3.863   4.344  11.496  1.9309  0.8421 -0.6976
14303TIP3   OH264323   3.340   5.448   0.396  0.3247  0.2489  0.2135
14303TIP3    H164324   3.329   5.414   0.307 -0.0373  0.3695  0.2124
14303TIP3    H264325   3.251   5.455   0.430  0.2402  3.0730 -0.4858
14304TIP3   OH264326   5.697   4.895   5.119 -0.1426  0.3817  0.2427
14304TIP3    H164327   5.786   4.888   5.085 -0.1111 -1.0762  0.5670
14304TIP3    H264328   5.701   4.965   5.183  0.3046  1.6613 -1.1621
14305TIP3   OH264329   4.945   5.341  14.566 -0.1867  0.3652 -0.3069
14305TIP3    H164330   4.921   5.428  14.596 -0.0294 -0.2902  1.8342
14305TIP3    H264331   5.040   5.336  14.578 -0.0527  0.2156 -1.3213
14306TIP3   OH264332   2.525   5.344   0.650  0.1183  0.0298  0.3364
14306TIP3    H164333   2.478   5.260   0.648  0.1373  0.0259 -0.1027
14306TIP3    H264334   2.582   5.341   0.573  1.4983 -0.3270  1.3593
14307TIP3   OH264335   4.540   4.323   1.753 -0.0804  0.1555 -1.1003
14307TIP3    H164336   4.519   4.393   1.815 -0.5180  0.5155 -1.6577
14307TIP3    H264337   4.466   4.262   1.760 -1.5442  1.6112 -3.3430
14308TIP3   OH264338   5.718   2.462  15.613 -0.2883  0.4278  0.0171
14308TIP3    H164339   5.810   2.473  15.587 -0.3877 -0.0837 -0.5461
14308TIP3    H264340   5.670   2.517  15.552 -0.3815  0.4702  0.1296
14309TIP3   OH264341   1.881   0.029  16.436 -0.0237  0.4644  0.2305
14309TIP3    H164342   1.824   0.089  16.387 -0.7994  1.3615  2.1766
14309TIP3    H264343   1.824  -0.045  16.457  0.4807 -0.2074 -0.7303
14310TIP3   OH264344   5.754   0.354  10.788  0.2283  0.1171  0.2057
14310TIP3    H164345   5.767   0.419  10.856  2.3015 -0.9286  0.8699
14310TIP3    H264346   5.751   0.404  10.707  3.1051  0.9833  0.5757
14311TIP3   OH264347   2.492   5.048   5.519 -0.1966 -0.5922 -0.1340
14311TIP3    H164348   2.415   5.105   5.521  0.3446  0.1966 -1.1125
14311TIP3    H264349   2.536   5.063   5.603  0.5880  1.3728 -0.8523
14312TIP3   OH264350   3.554   5.860   0.876 -0.0218 -0.1026 -0.2751
14312TIP3    H164351   3.648   5.840   0.883 -0.1211 -0.3990  0.2209
14312TIP3    H264352   3.551   5.948   0.839  0.4249 -0.9650 -2.4593
14313TIP3   OH264353   3.216   6.616   0.267  0.2512 -0.1667 -0.2350
14313TIP3    H164354   3.148   6.586   0.327 -0.0556 -0.4685 -0.7310
14313TIP3    H264355   3.261   6.537   0.240 -0.6359 -0.2056 -1.6401
14314TIP3   OH264356   1.088   0.850   2.483  0.5631 -0.1749  0.0422
14314TIP3    H164357   1.030   0.773   2.481 -0.0052  0.1220  2.6496
14314TIP3    H264358   1.149   0.831   2.554  1.3113  1.1755 -0.2384
14315TIP3   OH264359   5.344   0.098  11.027 -0.0043  0.2328 -0.6279
14315TIP3    H164360   5.363   0.100  10.933  1.7622  0.7157 -0.2631
14315TIP3    H264361   5.330   0.190  11.050  0.4259  0.2008 -0.2451
14316TIP3   OH264362   5.189   5.409  16.863 -0.6570  0.5576 -0.1277
14316TIP3    H164363   5.100   5.404  16.827 -0.6675  1.2013 -0.2029
14316TIP3    H264364   5.229   5.325  16.842 -0.9033  0.6626 -1.0207
14317TIP3   OH264365   0.684   2.179  16.730 -0.4918  0.4944  0.3629
14317TIP3    H164366   0.774   2.171  16.700 -0.3912  1.1206  0.4815
14317TIP3    H264367   0.630   2.162  16.653 -0.2480  1.4834 -0.0268
14318TIP3   OH264368   4.924   0.732  10.962 -0.0136 -0.2813  0.0465
14318TIP3    H164369   4.880   0.771  10.887  1.7334  0.5216 -0.5818
14318TIP3    H264370   5.007   0.700  10.928  0.4343 -0.6655  1.4501
14319TIP3   OH264371   4.574   5.998   1.053 -0.5374  1.0822 -0.4153
14319TIP3    H164372   4.578   6.009   1.148  2.1624  1.3021 -0.4984
14319TIP3    H264373   4.533   5.912   1.040 -0.0235  0.6037  1.0022
14320TIP3   OH264374   2.806   3.623   0.664  0.1731  0.4909  0.2001
14320TIP3    H164375   2.761   3.698   0.625 -0.3992 -0.2350 -0.5542
14320TIP3    H264376   2.840   3.656   0.747 -1.4953  1.1362  0.6516
14321TIP3   OH264377   5.552   6.193   0.943 -0.3201  0.0659  0.0953
14321TIP3    H164378   5.484   6.195   0.875 -1.5370  1.7001  1.3211
14321TIP3    H264379   5.581   6.102   0.944 -0.4868 -0.0624 -2.4002
14322TIP3   OH264380   1.401   4.797   6.640 -0.1300 -0.6300  0.0460
14322TIP3    H164381   1.368   4.869   6.694  1.7342  0.5803 -0.3935
14322TIP3    H264382   1.354   4.720   6.673 -0.6215  0.4323  1.9387
14323TIP3   OH264383   4.865   0.373  11.390  0.0500  0.5889 -0.0557
14323TIP3    H164384   4.907   0.447  11.346 -0.2373  0.3220 -0.7946
14323TIP3    H264385   4.806   0.336  11.324  0.7732 -0.7842  0.0375
14324TIP3   OH264386   4.035   3.510  16.759  0.0653 -0.7947 -0.3082
14324TIP3    H164387   4.037   3.605  16.767 -0.2942 -0.8248  0.1740
14324TIP3    H264388   3.975   3.481  16.828 -0.2978 -1.3298 -0.8399
14325TIP3   OH264389   0.056   2.585  14.276 -0.0570  0.5188  0.4774
14325TIP3    H164390  -0.007   2.653  14.299 -1.5476 -0.9655  0.8565
14325TIP3    H264391   0.053   2.523  14.349  2.1432  0.6010  0.6876
14326TIP3   OH264392   4.560   2.569  16.606  0.0877  0.3452 -0.3896
14326TIP3    H164393   4.563   2.648  16.551 -0.3959  0.0836 -0.7906
14326TIP3    H264394   4.469   2.542  16.604  0.2646 -0.2623 -0.3013
14327TIP3   OH264395   2.999   1.860   0.410  0.4582 -0.5808  0.4708
14327TIP3    H164396   2.966   1.799   0.476 -2.4363 -0.1891 -0.5590
14327TIP3    H264397   2.998   1.809   0.329 -0.0096  0.2070 -0.0190
14328TIP3   OH264398   2.716   4.683   0.687 -0.2992 -1.0390  0.1422
14328TIP3    H164399   2.638   4.721   0.727 -0.8927 -0.4018 -1.5493
14328TIP3    H264400   2.785   4.695   0.752 -1.2031  0.0634  0.9261
14329TIP3   OH264401   5.128   5.794  12.004 -0.3255 -0.0868 -0.3645
14329TIP3    H164402   5.187   5.730  12.043 -2.0591 -1.4644  0.0530
14329TIP3    H264403   5.105   5.758  11.919  0.5385  1.1489 -1.1526
14330TIP3   OH264404   2.688   5.022  17.053  0.0191 -0.3849 -0.3128
14330TIP3    H164405   2.711   4.980  17.136  0.6175 -1.0742 -0.8230
14330TIP3    H264406   2.635   4.958  17.007 -0.6732  0.1651 -0.2832
14331TIP3   OH264407   2.223   3.763  11.263 -0.4940  0.7734  0.3723
14331TIP3    H164408   2.150   3.725  11.311  0.9136 -1.4358  0.8863
14331TIP3    H264409   2.231   3.709  11.184  1.1089  0.3859  0.7630
14332TIP3   OH264410   0.901   5.504   2.074  0.2591 -0.6270 -0.4301
14332TIP3    H164411   0.910   5.418   2.115 -0.3966 -0.5710 -0.1546
14332TIP3    H264412   0.957   5.562   2.127 -0.1886 -0.6563  0.0779
14333TIP3   OH264413   2.814   1.060   2.646 -0.5849 -0.0555  0.1221
14333TIP3    H164414   2.871   0.989   2.676  0.2487  1.1041  1.3807
14333TIP3    H264415   2.848   1.083   2.559 -0.5860 -0.8930 -0.1024
14334TIP3   OH264416   5.422   3.693  12.708 -0.3915  0.7095  0.2086
14334TIP3    H164417   5.437   3.774  12.659  0.0360  1.1254  1.0214
14334TIP3    H264418   5.391   3.721  12.794 -3.4765 -0.0739 -0.5603
14335TIP3   OH264419   5.276   0.464  16.025  0.4104 -0.4188 -0.1131
14335TIP3    H164420   5.263   0.556  16.049  1.7645 -0.5311  1.1016
14335TIP3    H264421   5.206   0.418  16.071 -0.4706  0.0318 -0.9840
14336TIP3   OH264422   2.543   1.502   0.933  0.1914 -0.0605 -0.4120
14336TIP3    H164423   2.511   1.415   0.912  0.3857 -0.2199 -0.0507
14336TIP3    H264424   2.475   1.539   0.991  0.0330  0.0872 -0.6908
14337TIP3   OH264425   5.609   3.965   3.657  0.2771 -0.5355 -0.3351
14337TIP3    H164426   5.557   3.906   3.603 -2.9532  1.0412  0.9533
14337TIP3    H264427   5.610   4.048   3.609  1.3140 -0.4375 -0.1643
14338TIP3   OH264428   4.226   4.774  11.236  0.0993  0.5150  0.0750
14338TIP3    H164429   4.218   4.713  11.310 -0.3269 -0.4881 -0.7822
14338TIP3    H264430   4.311   4.751  11.196  0.9677  1.9630  1.0409
14339TIP3   OH264431   0.141   0.206  13.852  1.1036  0.0389 -0.1539
14339TIP3    H164432   0.224   0.183  13.809  1.0012 -2.9793  1.1355
14339TIP3    H264433   0.078   0.211  13.781  1.9562  0.1064 -0.9149
14340TIP3   OH264434   6.714   3.616   0.185 -0.0436  0.2716 -0.3368
14340TIP3    H164435   6.618   3.608   0.179 -0.0483 -1.6034  1.4611
14340TIP3    H264436   6.745   3.526   0.178  1.3960  0.5755  1.8275
14341TIP3   OH264437   4.187   5.568  12.113 -0.3058  0.6709  0.1666
14341TIP3    H164438   4.163   5.608  12.029  0.0886  0.7704  0.1011
14341TIP3    H264439   4.140   5.620  12.179 -1.1878  0.1450 -0.0342
14342TIP3   OH264440   6.712   3.172   0.315  0.0983 -0.5244 -0.0279
14342TIP3    H164441   6.620   3.181   0.340  0.4150  0.6460  0.7562
14342TIP3    H264442   6.758   3.152   0.397  0.5155 -1.4106 -0.4634
14343TIP3   OH264443   5.054   0.468   5.820  0.0230  0.0483  0.2290
14343TIP3    H164444   5.062   0.413   5.898 -0.8386 -0.3083  0.0738
14343TIP3    H264445   4.983   0.429   5.771 -1.1859  1.7988  0.5230
14344TIP3   OH264446   2.895   1.993  12.046  0.9758  0.4234 -0.0209
14344TIP3    H164447   2.890   2.087  12.060 -0.7079  0.2010  1.0837
14344TIP3    H264448   2.980   1.967  12.083  2.1380  1.7112 -1.7559
14345TIP3   OH264449   0.741   4.861  14.874 -0.0820 -0.6885 -0.1161
14345TIP3    H164450   0.791   4.928  14.921  0.4828 -0.6650 -0.7375
14345TIP3    H264451   0.701   4.808  14.943  1.5744 -1.2758  0.4124
14346TIP3   OH264452   1.768   0.989  11.019 -0.2198  0.8470  0.2305
14346TIP3    H164453   1.713   0.936  11.076  1.1421 -0.5146  0.3217
14346TIP3    H264454   1.779   0.935  10.940  0.5882  1.3067  0.0254
14347TIP3   OH264455   4.880   3.115  16.464  0.3369 -0.0668 -0.4027
14347TIP3    H164456   4.917   3.063  16.536  0.7057  0.2610 -0.3549
14347TIP3    H264457   4.811   3.060  16.428 -0.4962  0.1629  0.8140
14348TIP3   OH264458   3.223   4.901  11.590 -0.1499 -0.8117  0.4625
14348TIP3    H164459   3.143   4.953  11.601  0.0345 -0.5714  0.6692
14348TIP3    H264460   3.203   4.842  11.518 -0.7284 -1.1576  0.8968
14349TIP3   OH264461   0.087   6.337   4.817 -0.2187  0.0152 -0.1138
14349TIP3    H164462   0.017   6.333   4.751 -0.6984 -0.4909  0.4300
14349TIP3    H264463   0.084   6.428   4.848 -0.3941  0.0898 -0.3417
14350TIP3   OH264464   5.827   0.040  13.713  0.1889  0.3808  0.4692
14350TIP3    H164465   5.868   0.114  13.757  1.2128  0.1988 -0.1665
14350TIP3    H264466   5.734   0.049  13.732  0.2957  1.9073  0.2746
14351TIP3   OH264467   3.450   1.638   4.395  0.4173 -0.1184  0.0691
14351TIP3    H164468   3.466   1.731   4.378  1.7505 -0.3351  0.0919
14351TIP3    H264469   3.376   1.637   4.456 -0.2150  0.8887 -0.6712
14352TIP3   OH264470   0.252   3.277   4.958 -0.1418 -0.2187  0.3541
14352TIP3    H164471   0.236   3.266   5.051  0.0404 -0.8073  0.3140
14352TIP3    H264472   0.347   3.280   4.950 -0.1769  1.0289  0.3271
14353TIP3   OH264473   3.222   4.858  12.370  0.1234 -0.5170 -0.1499
14353TIP3    H164474   3.290   4.844  12.305 -0.8777  2.3235 -1.9113
14353TIP3    H264475   3.259   4.922  12.431 -0.2986 -0.3508 -0.0652
14354TIP3   OH264476   5.936   1.230   3.579  0.3369 -0.1746  0.0344
14354TIP3    H164477   6.023   1.246   3.543  1.1556  0.6564  2.2424
14354TIP3    H264478   5.878   1.226   3.503  2.2391 -0.3298 -1.4435
14355TIP3   OH264479   3.057   3.352  11.559 -0.0090  0.8167  0.0045
14355TIP3    H164480   2.962   3.343  11.569 -0.4002  1.1628 -2.9415
14355TIP3    H264481   3.090   3.263  11.555 -0.3983  0.6892 -0.4122
14356TIP3   OH264482   6.391   0.529  14.282  0.1237 -0.3225  0.0873
14356TIP3    H164483   6.400   0.455  14.222 -0.1066  0.3666 -0.8274
14356TIP3    H264484   6.470   0.528  14.335  0.9856 -0.1315 -1.1804
14357TIP3   OH264485   6.477   4.931  14.499 -0.4136  0.1529  0.4827
14357TIP3    H164486   6.401   4.989  14.492  0.8763  1.8369  0.1605
14357TIP3    H264487   6.548   4.988  14.526  1.0063 -1.1951 -0.3328
14358TIP3   OH264488   4.376   5.554  15.005 -0.5611 -0.6946  0.8006
14358TIP3    H164489   4.292   5.563  14.961  0.8093  0.7439 -1.6556
14358TIP3    H264490   4.390   5.638  15.048  1.2593  0.5056 -1.9522
14359TIP3   OH264491   3.599   6.783  14.995  0.2047  0.1234 -0.2298
14359TIP3    H164492   3.586   6.805  15.087 -1.4398 -1.8754  0.0382
14359TIP3    H264493   3.686   6.742  14.992  1.3728  2.5018 -0.0213
14360TIP3   OH264494   3.404   5.268  10.657 -0.0087 -0.0069 -0.0290
14360TIP3    H164495   3.382   5.282  10.565  1.4187  0.4176 -0.3137
14360TIP3    H264496   3.499   5.256  10.658 -0.0217 -0.1043  1.3788
14361TIP3   OH264497   5.045   6.515   0.936 -0.2673  0.3893  0.2310
14361TIP3    H164498   5.092   6.505   1.019 -0.5646 -1.5240  0.1816
14361TIP3    H264499   4.973   6.452   0.941 -0.3211  0.2931 -1.4575
14362TIP3   OH264500   1.300   4.091   4.962  0.1401 -0.6373  0.0407
14362TIP3    H164501   1.313   4.000   4.989 -0.8840 -0.6982  0.3537
14362TIP3    H264502   1.253   4.085   4.880  3.3400 -0.4516 -1.8991
14363TIP3   OH264503   2.616   0.430  14.147  0.1546  0.1930 -0.1015
14363TIP3    H164504   2.706   0.400  14.131  0.2091  0.9946 -1.3837
14363TIP3    H264505   2.575   0.358  14.196  2.2988  1.0476  3.0365
14364TIP3   OH264506   2.507   3.966  13.357 -0.2242  0.8974  0.5181
14364TIP3    H164507   2.517   3.973  13.452  2.0280  1.1799  0.2935
14364TIP3    H264508   2.586   4.006  13.322  1.4393 -3.7124 -1.3857
14365TIP3   OH264509   3.557   5.494   4.762  0.5382 -0.3131 -0.3407
14365TIP3    H164510   3.563   5.401   4.783 -0.4744 -1.1583 -3.5463
14365TIP3    H264511   3.488   5.500   4.697 -0.9295  3.0195  1.3671
14366TIP3   OH264512   4.327   1.439   0.091 -0.2434 -0.3003 -0.1400
14366TIP3    H164513   4.418   1.421   0.067  0.6431  1.6354  1.6389
14366TIP3    H264514   4.296   1.357   0.129  1.2447 -0.5447  0.5972
14367TIP3   OH264515   0.520   6.740  15.560 -0.0243 -0.4957  0.3626
14367TIP3    H164516   0.441   6.702  15.524 -0.4256  1.1349 -0.5480
14367TIP3    H264517   0.510   6.733  15.655 -0.2625 -2.2317  0.2227
14368TIP3   OH264518   6.548   4.515   1.447  0.4101  0.5088  0.4615
14368TIP3    H164519   6.454   4.502   1.435  0.4029  0.2324  0.8163
14368TIP3    H264520   6.588   4.435   1.413  0.5398  0.7380  0.0586
14369TIP3   OH264521   2.486   6.549  10.490  0.3330  0.1066 -0.0616
14369TIP3    H164522   2.490   6.597  10.407 -0.1461 -3.8189 -2.5203
14369TIP3    H264523   2.564   6.493  10.488  0.0460 -0.4030  1.9449
14370TIP3   OH264524   6.618   0.588  14.646  0.1884  0.6893  0.1109
14370TIP3    H164525   6.586   0.585  14.736  1.4110 -2.2291  0.5298
14370TIP3    H264526   6.710   0.612  14.654  0.2204  0.7322 -0.3744
14371TIP3   OH264527   3.507   3.000  12.537 -0.1436 -0.4008 -0.1938
14371TIP3    H164528   3.470   3.013  12.624  0.9734  2.0181 -0.0234
14371TIP3    H264529   3.595   3.039  12.542  0.5555 -1.6786 -1.9476
14372TIP3   OH264530   1.129   1.913  13.231  0.1161 -0.0895  0.0220
14372TIP3    H164531   1.099   1.976  13.165  2.1591 -1.1269 -1.9667
14372TIP3    H264532   1.136   1.830  13.183  2.7284 -0.6152  1.2223
14373TIP3   OH264533   6.372   0.473  11.489  0.4181 -0.0584  0.5319
14373TIP3    H164534   6.339   0.438  11.406  1.2198 -0.3862  0.3405
14373TIP3    H264535   6.467   0.479  11.476  0.3910  1.3108  0.9002
14374TIP3   OH264536   3.752   2.876  11.737 -0.2763  0.0693  0.0929
14374TIP3    H164537   3.836   2.843  11.707 -0.5118 -0.4766  0.0166
14374TIP3    H264538   3.715   2.921  11.661  0.8909  2.1843  0.7727
14375TIP3   OH264539   4.451   5.922  15.674  0.0466 -0.1711  0.1739
14375TIP3    H164540   4.486   5.850  15.621 -0.8702  0.7057 -1.6513
14375TIP3    H264541   4.507   5.997  15.651  0.2236 -0.0090  1.1415
14376TIP3   OH264542   1.756   6.199  11.128 -0.5118 -0.3930  0.6912
14376TIP3    H164543   1.678   6.218  11.076  1.9294 -0.7377 -3.3757
14376TIP3    H264544   1.773   6.106  11.113  3.2754  0.6743 -2.5297
14377TIP3   OH264545   4.373   4.045   2.254  0.6171  0.0407  0.4707
14377TIP3    H164546   4.377   4.095   2.335 -0.4105 -0.6787  0.9698
14377TIP3    H264547   4.316   3.971   2.274  1.8115 -1.1272 -0.3657
14378TIP3   OH264548   5.893   5.565   5.321  0.1913  0.4560 -0.2291
14378TIP3    H164549   5.982   5.585   5.292 -0.4681  1.2598 -1.7524
14378TIP3    H264550   5.897   5.475   5.352  1.1177 -0.1488 -2.0606
14379TIP3   OH264551   1.218   3.744   0.359  0.4345 -0.3276 -0.2110
14379TIP3    H164552   1.175   3.707   0.282  1.0724 -2.1347  0.2605
14379TIP3    H264553   1.311   3.725   0.346  0.7169  0.6294  0.3263
14380TIP3   OH264554   5.595   0.139   5.110 -0.3317  0.2213  0.5035
14380TIP3    H164555   5.518   0.187   5.079  0.9666  1.4841 -0.8898
14380TIP3    H264556   5.660   0.207   5.127  1.1526 -0.9495 -0.3424
14381TIP3   OH264557   2.831   4.248  13.053 -0.3451 -0.0558  0.1446
14381TIP3    H164558   2.870   4.212  12.973  0.0561 -0.0929  0.3528
14381TIP3    H264559   2.881   4.328  13.069 -2.0022  1.2332 -0.9653
14382TIP3   OH264560   4.787   6.675  16.294  0.0290 -0.2562  0.2639
14382TIP3    H164561   4.760   6.672  16.386  1.3108 -0.4691  0.6394
14382TIP3    H264562   4.818   6.586  16.275  0.2844 -0.0650 -0.2292
14383TIP3   OH264563   1.801   2.151  12.024 -0.2610 -0.1008 -0.4477
14383TIP3    H164564   1.833   2.069  12.063 -0.5827 -0.7221 -1.4869
14383TIP3    H264565   1.850   2.219  12.070  1.3908 -0.9617 -0.8936
14384TIP3   OH264566   2.758   2.546  11.942  0.3701 -0.3178  0.0662
14384TIP3    H164567   2.775   2.599  11.864  1.4376  0.1002  0.5758
14384TIP3    H264568   2.663   2.535  11.943  0.2144  0.9000 -0.4925
14385TIP3   OH264569   1.502   5.297  14.682 -0.1190 -0.1630  0.4540
14385TIP3    H164570   1.587   5.303  14.726  0.3507 -0.9515 -0.3192
14385TIP3    H264571   1.516   5.341  14.598 -0.4265 -0.4293  0.2657
14386TIP3   OH264572   1.976   4.729  15.975 -0.7043  0.0680  0.1868
14386TIP3    H164573   1.997   4.806  15.921 -3.9832  0.4481 -0.6650
14386TIP3    H264574   2.023   4.657  15.933  1.5221  1.3832  0.3484
14387TIP3   OH264575   4.708   0.229   6.409 -0.2289 -0.4483 -0.2681
14387TIP3    H164576   4.633   0.215   6.467 -1.1383 -1.2439 -1.6285
14387TIP3    H264577   4.784   0.223   6.467 -1.2303  0.9994  1.2364
14388TIP3   OH264578   1.382   1.852  11.049  0.0275 -0.4309 -0.2340
14388TIP3    H164579   1.318   1.789  11.016 -0.7155  0.1186  0.1451
14388TIP3    H264580   1.420   1.891  10.970  0.5366 -1.3976 -0.4678
14389TIP3   OH264581   3.623   2.324   2.214 -0.1360 -0.2501  0.1072
14389TIP3    H164582   3.675   2.282   2.146  0.7759  2.2618 -0.8076
14389TIP3    H264583   3.542   2.350   2.170 -0.5983 -0.8043  0.6151
14390TIP3   OH264584   2.894   4.985  16.853  0.4912  0.0745  0.7286
14390TIP3    H164585   2.961   5.047  16.827 -0.4572  0.2597 -1.3878
14390TIP3    H264586   2.842   5.031  16.919  0.7392  0.9541  0.3143
14391TIP3   OH264587   0.827   5.415  15.759  0.1997  0.0344 -0.4802
14391TIP3    H164588   0.908   5.466  15.765  0.9761 -1.1314 -0.8529
14391TIP3    H264589   0.761   5.479  15.732  1.3862  0.6178 -2.0770
14392TIP3   OH264590   4.401   6.182  13.563  0.3349  0.2291 -0.6535
14392TIP3    H164591   4.372   6.246  13.628  0.7230  0.2607 -0.5132
14392TIP3    H264592   4.319   6.143  13.531  0.1658 -0.3189  0.4038
14393TIP3   OH264593   3.942   5.142  14.289  0.5586  0.2135 -0.2949
14393TIP3    H164594   4.018   5.110  14.337  1.3148  0.2312 -1.4622
14393TIP3    H264595   3.967   5.136  14.197 -0.5072  1.0845 -0.6572
14394TIP3   OH264596   4.516   5.198  10.764  0.0981 -0.0258 -0.5064
14394TIP3    H164597   4.472   5.253  10.700  1.9824  0.2783 -1.5683
14394TIP3    H264598   4.491   5.108  10.741  0.9261  0.0690 -1.8056
14395TIP3   OH264599   5.313   3.852  14.548 -0.1199 -0.6852 -0.0951
14395TIP3    H164600   5.263   3.873  14.627  0.5890 -1.5048  0.5988
14395TIP3    H264601   5.254   3.800  14.495 -1.0464  0.9624 -0.7062
14396TIP3   OH264602   1.980   4.817   5.020 -0.2078  0.1484 -0.1887
14396TIP3    H164603   1.976   4.843   5.112 -1.2812 -0.3671 -0.0746
14396TIP3    H264604   2.008   4.725   5.023 -1.3166 -0.2055 -0.3020
14397TIP3   OH264605   4.318   3.893  11.438 -0.3895 -0.2104 -0.0187
14397TIP3    H164606   4.288   3.806  11.465 -0.5448  0.7059  3.0340
14397TIP3    H264607   4.412   3.893  11.455  0.1755 -0.7580 -2.9379
14398TIP3   OH264608   6.714   5.237   3.836  0.4905  0.4459 -0.4576
14398TIP3    H164609   6.632   5.282   3.856  1.2242  1.6068 -0.0546
14398TIP3    H264610   6.741   5.272   3.751  0.4429 -0.1344 -0.7199
14399TIP3   OH264611   6.645   0.752   4.682 -0.1140 -0.4924  0.2583
14399TIP3    H164612   6.612   0.776   4.769  2.3045  0.3159  0.9920
14399TIP3    H264613   6.707   0.821   4.660  1.5076 -2.2444 -0.7922
14400TIP3   OH264614   2.822   4.796  11.987  0.2384  0.7171 -0.3401
14400TIP3    H164615   2.879   4.841  11.925  0.2071  0.8017 -0.3081
14400TIP3    H264616   2.788   4.867  12.043 -0.7529  0.8140 -1.0437
14401TIP3   OH264617   3.003   4.196  10.579  0.2718 -0.1275  0.2138
14401TIP3    H164618   2.944   4.135  10.623 -1.1079  0.7021 -0.4523
14401TIP3    H264619   2.949   4.273  10.562  0.4646 -0.7562 -3.7536
14402TIP3   OH264620   3.899   3.426   5.377 -0.6381  0.7231  0.4812
14402TIP3    H164621   3.948   3.478   5.439 -0.5619  0.6692  0.4663
14402TIP3    H264622   3.874   3.487   5.308  2.8619 -0.0526 -1.5648
14403TIP3   OH264623   5.921   6.598   0.736 -0.1128 -0.1736  0.5137
14403TIP3    H164624   5.980   6.534   0.776 -0.1448  0.7298  2.0431
14403TIP3    H264625   5.978   6.654   0.684 -0.0903 -1.4473 -0.8725
14404TIP3   OH264626   6.737   0.105   5.070 -0.2698 -0.5172  0.0029
14404TIP3    H164627   6.675   0.053   5.019 -0.3804 -0.4954  0.1149
14404TIP3    H264628   6.723   0.076   5.160 -0.1218 -0.5069  0.0291
14405TIP3   OH264629   5.914   2.685   0.837 -0.4377 -0.1000  0.4123
14405TIP3    H164630   5.852   2.693   0.764 -0.2187 -0.7725  0.1498
14405TIP3    H264631   5.906   2.594   0.865 -1.4846  0.4893  2.0924
14406TIP3   OH264632   2.588   2.986   1.622  0.1972  0.2305 -0.6977
14406TIP3    H164633   2.497   2.966   1.641  0.1389  0.2998 -0.9099
14406TIP3    H264634   2.595   2.980   1.527  1.1464 -2.9163 -0.4950
14407TIP3   OH264635   5.712   1.352   6.425  0.1670  0.2829  0.2757
14407TIP3    H164636   5.680   1.262   6.421  0.6322  0.1306 -0.1417
14407TIP3    H264637   5.806   1.344   6.441 -0.1312  0.7427  2.3522
14408TIP3   OH264638   3.936   5.293   4.936  0.4053  0.7181 -0.1784
14408TIP3    H164639   3.891   5.279   4.852  0.9323 -0.3295 -0.2891
14408TIP3    H264640   3.986   5.374   4.923  1.7429 -0.2887 -1.4075
14409TIP3   OH264641   6.481   1.300  16.203  0.3256  0.2121 -0.0463
14409TIP3    H164642   6.492   1.226  16.263 -0.0988  0.0190 -0.2056
14409TIP3    H264643   6.567   1.313  16.164 -0.3717 -2.4271 -2.6266
14410TIP3   OH264644   1.333   4.987  11.601  0.0861  0.1580  0.1905
14410TIP3    H164645   1.305   4.939  11.679  0.9034 -0.7586 -0.0745
14410TIP3    H264646   1.421   5.019  11.622 -1.6455  4.3899  1.6290
14411TIP3   OH264647   3.364   3.447  10.764 -0.6939 -0.6929 -0.0721
14411TIP3    H164648   3.348   3.475  10.674  0.7928  0.2045 -0.0828
14411TIP3    H264649   3.450   3.485  10.785 -0.3728 -2.1163  1.2202
14412TIP3   OH264650   5.021   2.623  17.135 -0.5278  0.2289  0.4142
14412TIP3    H164651   4.938   2.579  17.115 -0.7255  0.5342  0.5789
14412TIP3    H264652   5.048   2.586  17.219 -1.5425  1.6551  1.4023
14413TIP3   OH264653   4.503   5.180   5.879  0.1588 -0.7026  0.5026
14413TIP3    H164654   4.537   5.124   5.809  1.6337  0.3115  0.3997
14413TIP3    H264655   4.578   5.230   5.909 -0.4108 -1.2369  2.9568
14414TIP3   OH264656   5.142   5.606  12.322  0.2844 -0.1015 -0.0383
14414TIP3    H164657   5.155   5.522  12.366  0.5688 -1.1142 -2.0153
14414TIP3    H264658   5.097   5.660  12.387  3.5965 -0.4254  2.7087
14415TIP3   OH264659   2.784   0.465  15.895  0.3466 -0.5764 -0.6704
14415TIP3    H164660   2.725   0.398  15.930  0.8444 -0.9215 -0.4750
14415TIP3    H264661   2.828   0.501  15.972 -0.6387  0.6793 -0.6765
14416TIP3   OH264662   0.597   2.786   3.917  0.2195  0.4692 -0.8469
14416TIP3    H164663   0.564   2.741   3.839  0.5013 -0.3809 -0.4777
14416TIP3    H264664   0.518   2.814   3.964 -0.0104 -1.4487 -0.0343
14417TIP3   OH264665   3.250   2.819  11.138  0.0602 -0.1298  0.2198
14417TIP3    H164666   3.191   2.768  11.083  0.6792 -1.1071  0.4490
14417TIP3    H264667   3.295   2.877  11.077 -0.4619 -0.0383 -0.0825
14418TIP3   OH264668   2.626   4.442   3.424  0.0615  0.1567 -0.1311
14418TIP3    H164669   2.614   4.349   3.442 -1.2377  0.1756 -0.8094
14418TIP3    H264670   2.679   4.444   3.344 -1.3774 -0.0428 -1.1157
14419TIP3   OH264671   4.135   3.611   5.453  0.0992  0.3057  0.4619
14419TIP3    H164672   4.216   3.565   5.475 -0.7792 -1.8000 -0.6436
14419TIP3    H264673   4.148   3.641   5.363 -1.2266 -2.0727 -0.5580
14420TIP3   OH264674   4.694   4.994   5.387  0.0628  0.3998 -0.0633
14420TIP3    H164675   4.639   4.918   5.369  1.1245 -0.3692 -0.0972
14420TIP3    H264676   4.715   5.030   5.301  2.3885 -1.3099 -0.2427
14421TIP3   OH264677   0.591   0.565   3.763 -0.4042  0.2015  0.6216
14421TIP3    H164678   0.686   0.555   3.762 -0.2214  1.8063  0.1758
14421TIP3    H264679   0.572   0.626   3.691 -1.5949  1.1244  1.6823
14422TIP3   OH264680   6.463   4.242  11.981 -0.0409  0.3509 -0.0422
14422TIP3    H164681   6.485   4.307  11.914  1.2738  0.7360  0.7505
14422TIP3    H264682   6.367   4.237  11.979 -0.0785  1.3489 -1.0155
14423TIP3   OH264683   2.134   4.114  16.271  0.6043  0.0919  0.2806
14423TIP3    H164684   2.224   4.143  16.286  0.9087 -1.1843  1.0028
14423TIP3    H264685   2.109   4.072  16.353 -0.6970  0.5329  0.1205
14424TIP3   OH264686   5.142   5.081   3.306 -0.1139 -0.0391  0.4406
14424TIP3    H164687   5.210   5.049   3.366  2.7836  0.7452 -2.2991
14424TIP3    H264688   5.129   5.172   3.332  0.5983  0.0886  0.3675
14425TIP3   OH264689   4.637   4.393   2.598  0.0365  0.2217  0.0959
14425TIP3    H164690   4.700   4.452   2.558  1.3451 -1.0743  0.1914
14425TIP3    H264691   4.636   4.417   2.691 -0.3789  0.9120 -0.0850
14426TIP3   OH264692   6.517   1.391  16.473  0.5583  0.0472  0.3840
14426TIP3    H164693   6.508   1.396  16.378 -0.4428 -0.1046  0.4627
14426TIP3    H264694   6.531   1.481  16.501 -0.2854  0.2489  0.1916
14427TIP3   OH264695   2.052   2.341  16.400 -0.1985 -0.0545  1.1272
14427TIP3    H164696   1.979   2.399  16.420 -0.0770  0.7512 -0.6411
14427TIP3    H264697   2.112   2.351  16.475 -0.5165  1.5568  1.1858
14428TIP3   OH264698   4.841   5.263  15.105 -0.2704  0.3198 -0.7922
14428TIP3    H164699   4.839   5.182  15.052  2.1206  1.1741 -2.2733
14428TIP3    H264700   4.903   5.244  15.175 -1.3488  0.1552  0.1351
14429TIP3   OH264701   1.522   2.551  12.347  0.2584  0.3496  0.2010
14429TIP3    H164702   1.516   2.458  12.369  0.6042  0.0970 -0.7414
14429TIP3    H264703   1.605   2.580  12.386  1.8574 -0.5705 -2.3629
14430TIP3   OH264704   0.079   0.031  15.518  0.0208  0.1190  0.3951
14430TIP3    H164705   0.005   0.011  15.461  0.0824  0.1004  0.3201
14430TIP3    H264706   0.144   0.071  15.460 -0.0113  0.3250  0.5010
14431TIP3   OH264707   0.567   2.261  10.991  0.1393  0.1011 -0.2368
14431TIP3    H164708   0.599   2.335  11.042 -2.2653  0.8140  0.2960
14431TIP3    H264709   0.646   2.221  10.954  1.7870  0.7142  2.4629
14432TIP3   OH264710   0.199   5.903  12.993 -0.2979  0.4593  0.1038
14432TIP3    H164711   0.131   5.873  12.933 -1.3423  2.7726  0.0732
14432TIP3    H264712   0.221   5.826  13.046 -0.9614 -1.0254 -1.7227
14433TIP3   OH264713   0.217   2.145   4.622 -0.4745 -0.0365  0.0335
14433TIP3    H164714   0.144   2.083   4.624 -1.0861  0.6247 -1.0384
14433TIP3    H264715   0.182   2.222   4.576 -0.2806  1.8389  2.9335
14434TIP3   OH264716   4.097   4.131  16.909  0.4298  0.4365 -0.0809
14434TIP3    H164717   4.098   4.063  16.976 -0.2690  0.2475 -0.2540
14434TIP3    H264718   4.183   4.172  16.914  0.6470 -0.0798  0.4158
14435TIP3   OH264719   2.248   3.714  14.881  0.4534 -0.2233  0.5482
14435TIP3    H164720   2.225   3.624  14.906  0.2358 -0.9812 -2.2669
14435TIP3    H264721   2.171   3.746  14.835  1.1937  0.8158  0.0246
14436TIP3   OH264722   1.549   0.030  13.425  0.5183 -0.4871 -0.2548
14436TIP3    H164723   1.543   0.101  13.488  2.4255  0.1991 -0.8275
14436TIP3    H264724   1.600   0.066  13.352  1.2582 -2.3442 -0.6762
14437TIP3   OH264725   6.672   1.919  13.973  0.5505  0.5065  0.2310
14437TIP3    H164726   6.690   1.995  13.918 -1.0499  1.0278  0.3985
14437TIP3    H264727   6.637   1.854  13.913 -0.7114  0.8964  0.5178
14438TIP3   OH264728   0.856   0.465   3.844  0.2515  0.0900  0.3002
14438TIP3    H164729   0.880   0.462   3.751 -0.8915 -2.3204  0.0626
14438TIP3    H264730   0.879   0.379   3.878 -1.7149  0.0660  1.6394
14439TIP3   OH264731   3.832   4.634  10.363  0.8239  0.1504 -0.3468
14439TIP3    H164732   3.821   4.565  10.429  2.2575 -0.5077 -0.7817
14439TIP3    H264733   3.844   4.714  10.414  0.2283 -0.0928  0.1753
14440TIP3   OH264734   2.257   6.452  12.417  0.2224 -0.5530  0.0696
14440TIP3    H164735   2.291   6.518  12.357 -0.6105 -0.8940 -0.7906
14440TIP3    H264736   2.191   6.405  12.366 -3.0972  1.4497  2.2458
14441TIP3   OH264737   1.210   5.239   6.220  0.0909  0.5297 -0.0659
14441TIP3    H164738   1.163   5.247   6.137  0.5029  0.6584 -0.2877
14441TIP3    H264739   1.181   5.155   6.257  0.3287  0.2145 -0.5996
14442TIP3   OH264740   4.994   4.864   3.188 -0.2703 -0.5088 -0.7770
14442TIP3    H164741   4.998   4.892   3.096 -1.1548  1.3242 -0.2919
14442TIP3    H264742   5.042   4.931   3.236 -1.4889 -0.3842  0.3148
14443TIP3   OH264743   2.199   0.620   2.190  0.2443  0.0191 -0.2474
14443TIP3    H164744   2.260   0.549   2.171 -0.9157 -1.2230  0.6844
14443TIP3    H264745   2.184   0.615   2.284 -1.8970 -0.1762 -0.5772
14444TIP3   OH264746   1.066   0.535  15.097  0.0575  0.3795  0.5877
14444TIP3    H164747   1.109   0.533  15.183 -0.2857  0.6905  0.7656
14444TIP3    H264748   1.073   0.445  15.065 -0.9769 -0.0357  1.5144
14445TIP3   OH264749   1.426   5.462  16.813 -0.7331  0.3058  0.6134
14445TIP3    H164750   1.495   5.422  16.865 -0.4810  0.6315  0.5302
14445TIP3    H264751   1.463   5.469  16.725 -1.7917 -1.8961 -0.0525
14446TIP3   OH264752   1.739   3.326   6.089 -0.1239 -0.0205  0.0082
14446TIP3    H164753   1.807   3.366   6.144 -3.2589  2.4257  2.2992
14446TIP3    H264754   1.734   3.236   6.120  1.0155  0.1982  0.8718
14447TIP3   OH264755   4.667   3.840   6.008 -0.1285 -0.0140 -0.4502
14447TIP3    H164756   4.752   3.858   6.048 -0.7602 -0.4134  1.1054
14447TIP3    H264757   4.683   3.845   5.914  1.3614  1.0577 -0.1504
14448TIP3   OH264758   5.168   5.987  14.016 -0.2188  0.0265  0.2383
14448TIP3    H164759   5.178   6.024  14.104 -1.2349  1.4865 -0.2477
14448TIP3    H264760   5.105   5.915  14.028 -2.6648  2.0694  0.2528
14449TIP3   OH264761   4.428   2.105   2.821  0.7721 -0.2471 -0.5102
14449TIP3    H164762   4.383   2.128   2.903  0.1392 -0.9636 -0.6481
14449TIP3    H264763   4.478   2.027   2.842  0.2251 -0.7159 -0.9261
14450TIP3   OH264764   3.060   3.762  13.645  0.2249 -0.3743 -0.2608
14450TIP3    H164765   2.977   3.756  13.598 -0.1760 -2.2991  0.6342
14450TIP3    H264766   3.035   3.761  13.738  1.1967  0.0614  0.0165
14451TIP3   OH264767   1.877   0.579   2.515  0.3235 -0.3718  0.1068
14451TIP3    H164768   1.844   0.668   2.529  0.1079 -0.5020  0.4422
14451TIP3    H264769   1.817   0.541   2.451  2.3113  0.7913 -2.5231
14452TIP3   OH264770   0.334   3.470   6.198  0.3011 -0.4321 -0.0787
14452TIP3    H164771   0.425   3.500   6.196  0.1504  0.0464  0.2115
14452TIP3    H264772   0.289   3.525   6.135 -0.3923  1.3467  1.9061
14453TIP3   OH264773   3.090   1.246  12.713 -0.2789  0.0539  0.3638
14453TIP3    H164774   3.163   1.192  12.682 -1.1457 -1.9639  1.6697
14453TIP3    H264775   3.028   1.248  12.640  0.3427  0.3635 -0.1526
14454TIP3   OH264776   3.694   4.329  13.307 -0.0572  0.7236 -0.4595
14454TIP3    H164777   3.718   4.402  13.364  0.1205  0.5821 -0.3503
14454TIP3    H264778   3.637   4.274  13.360 -0.7498  1.1424 -0.7733
14455TIP3   OH264779   2.564   2.013   2.435 -0.4736  0.4575 -0.5935
14455TIP3    H164780   2.609   2.008   2.519  0.4666  1.0767 -1.0495
14455TIP3    H264781   2.571   1.925   2.399 -1.6748 -0.0426  0.3771
14456TIP3   OH264782   4.928   0.798   5.503  0.4650 -0.7592  0.1835
14456TIP3    H164783   4.871   0.869   5.475  1.2632  0.1024  0.7019
14456TIP3    H264784   4.944   0.814   5.596  3.3583  0.3385 -0.4512
14457TIP3   OH264785   3.674   5.145   0.110 -0.6255  0.0317  0.2734
14457TIP3    H164786   3.769   5.149   0.102 -0.7551  1.8382 -0.6389
14457TIP3    H264787   3.644   5.106   0.027 -0.5630 -2.8590  1.5443
14458TIP3   OH264788   5.351   3.061   1.472 -0.4515 -0.5472  0.4659
14458TIP3    H164789   5.344   2.985   1.531 -1.4339 -2.0064 -1.4721
14458TIP3    H264790   5.445   3.080   1.469  0.0514 -2.9516 -0.5129
14459TIP3   OH264791   4.995   4.452   4.415  0.4473  0.1582 -0.6620
14459TIP3    H164792   5.061   4.383   4.417  1.0876  0.7868  1.2137
14459TIP3    H264793   4.913   4.408   4.394  0.8341 -1.1820  0.6075
14460TIP3   OH264794   6.043   4.940   1.265 -0.7809 -0.1057  0.3067
14460TIP3    H164795   6.022   5.030   1.241  1.0605  0.2187 -0.1291
14460TIP3    H264796   6.073   4.946   1.356 -0.5034 -0.2543  0.2254
14461TIP3   OH264797   6.613   5.223  11.378 -0.1400  0.0171  0.3129
14461TIP3    H164798   6.577   5.252  11.295 -0.4700  0.4598  0.6075
14461TIP3    H264799   6.668   5.296  11.408  2.5815 -1.4194 -1.0672
14462TIP3   OH264800   0.181   5.615   0.585 -0.0842 -0.1043  0.0086
14462TIP3    H164801   0.158   5.675   0.656  0.5520 -0.1338  0.2396
14462TIP3    H264802   0.243   5.554   0.624 -0.8379 -1.0115 -0.1885
14463TIP3   OH264803   2.794   5.450   4.353  0.3317  0.0013  0.9920
14463TIP3    H164804   2.777   5.544   4.348 -0.5079 -0.1518  0.9413
14463TIP3    H264805   2.786   5.420   4.262 -2.6098 -0.6627  1.4267
14464TIP3   OH264806   4.720   6.403   1.394  0.0356 -0.1283  0.1958
14464TIP3    H164807   4.796   6.393   1.337  0.4526  0.4579  0.6561
14464TIP3    H264808   4.645   6.404   1.334  0.4277 -0.1522 -0.2931
14465TIP3   OH264809   6.623   0.569   0.461 -0.1211 -0.3428  0.0096
14465TIP3    H164810   6.619   0.601   0.372 -1.0608  1.2956  0.6280
14465TIP3    H264811   6.716   0.561   0.480  0.0820 -0.0476 -0.8753
14466TIP3   OH264812   6.276   6.324  14.888  0.2690 -0.2141 -0.2272
14466TIP3    H164813   6.244   6.331  14.798 -0.0946  0.3876 -0.0518
14466TIP3    H264814   6.366   6.292  14.879  0.5997  0.8715 -0.8520
14467TIP3   OH264815   4.783   5.437  14.327  0.1800 -0.2296 -0.5227
14467TIP3    H164816   4.791   5.404  14.416  2.1025  0.3876 -0.4445
14467TIP3    H264817   4.732   5.370  14.280 -1.8473 -0.0215  1.2859
14468TIP3   OH264818   4.636   0.626  14.763  0.2337  0.1105  0.0776
14468TIP3    H164819   4.612   0.604  14.853  0.8864  0.8685  0.4345
14468TIP3    H264820   4.673   0.545  14.728 -0.1692 -0.2308  0.4289
14469TIP3   OH264821   2.431   0.713  14.446 -0.0718 -0.1124 -0.2013
14469TIP3    H164822   2.501   0.772  14.473  0.4464 -1.0736  0.5538
14469TIP3    H264823   2.433   0.716  14.350  0.0746  0.9380 -0.1716
14470TIP3   OH264824   1.353   3.489   3.965 -0.4996 -0.0046  0.5350
14470TIP3    H164825   1.375   3.554   3.898 -1.2920  0.8377  1.0725
14470TIP3    H264826   1.425   3.426   3.962  0.7534  1.3976  0.6331
14471TIP3   OH264827   1.219   0.332  11.194  0.3974  0.3750  0.3045
14471TIP3    H164828   1.144   0.314  11.250  0.7297 -1.7106  0.1231
14471TIP3    H264829   1.264   0.405  11.236 -0.7294  0.4318  1.4088
14472TIP3   OH264830   3.481   1.531   5.102 -0.2590 -0.0583 -0.5670
14472TIP3    H164831   3.516   1.612   5.139  0.5187 -0.6104 -0.0617
14472TIP3    H264832   3.404   1.512   5.155  0.8275 -0.8238  0.7894
14473TIP3   OH264833   6.113   2.409   5.841  0.0002  0.4176  0.1922
14473TIP3    H164834   6.153   2.338   5.892  0.4278  0.2953 -0.3032
14473TIP3    H264835   6.023   2.414   5.872 -0.8191 -2.1223 -1.5994
14474TIP3   OH264836   4.917   1.540  12.935 -0.4171 -0.1742 -0.3331
14474TIP3    H164837   4.940   1.486  13.010 -0.8434 -1.0410 -0.8189
14474TIP3    H264838   4.914   1.629  12.969  1.8115 -0.2631  0.1467
14475TIP3   OH264839   2.897   2.612   2.749  0.8107  0.1545  0.4664
14475TIP3    H164840   2.973   2.653   2.708  1.9757  0.4577  2.8403
14475TIP3    H264841   2.830   2.680   2.750  0.5769 -0.0337 -1.4013
14476TIP3   OH264842   2.460   6.037  14.223 -0.3435 -0.7107 -0.1717
14476TIP3    H164843   2.388   5.984  14.257 -1.5190  0.7174 -0.3886
14476TIP3    H264844   2.442   6.125  14.255  0.6895 -0.1166 -1.1939
14477TIP3   OH264845   5.831   2.803  15.536  0.0839  0.4489  0.1784
14477TIP3    H164846   5.763   2.836  15.477 -0.6765 -0.3862  0.5807
14477TIP3    H264847   5.799   2.824  15.624  1.6140  2.4656  0.3071
14478TIP3   OH264848   3.196   5.773  15.803 -0.0210 -0.3326 -0.1618
14478TIP3    H164849   3.272   5.785  15.859  0.4456 -0.6265 -0.7159
14478TIP3    H264850   3.232   5.775  15.714 -0.8309  0.7912 -0.4788
14479TIP3   OH264851   4.900   3.701   0.276  0.3473 -0.0119  0.0404
14479TIP3    H164852   4.944   3.623   0.243  0.9149 -0.0353  0.8295
14479TIP3    H264853   4.807   3.681   0.269  0.4804 -0.3948 -0.6250
14480TIP3   OH264854   6.368   1.562  13.673  0.6438  0.2100 -0.4435
14480TIP3    H164855   6.457   1.552  13.636  1.0023  0.4426  0.3605
14480TIP3    H264856   6.334   1.472  13.675  0.0484  0.3346 -2.7243
14481TIP3   OH264857   0.268   3.795  12.575  0.0678  0.0629 -0.3478
14481TIP3    H164858   0.233   3.880  12.601  1.6926  0.6647  0.0031
14481TIP3    H264859   0.362   3.802  12.593  0.5786 -1.0353 -2.4083
14482TIP3   OH264860   5.514   2.733  12.056  0.1746  0.0138 -0.3393
14482TIP3    H164861   5.536   2.795  11.986  2.6157  1.9853  2.0257
14482TIP3    H264862   5.479   2.788  12.127 -1.5259 -1.8272  0.2978
14483TIP3   OH264863   4.524   2.096  14.633  0.4989  0.0118 -0.0079
14483TIP3    H164864   4.588   2.046  14.683 -0.3469 -1.1954 -0.1130
14483TIP3    H264865   4.463   2.128  14.698 -1.2724 -2.5478 -0.3322
14484TIP3   OH264866   4.589   3.633   6.322 -0.1151  0.1169  0.2441
14484TIP3    H164867   4.519   3.626   6.387  0.6431 -1.2735  0.9424
14484TIP3    H264868   4.664   3.666   6.370  0.3950 -0.7268  0.0385
14485TIP3   OH264869   5.988   4.617   0.717  0.6405 -0.4544 -0.2105
14485TIP3    H164870   6.045   4.693   0.719  1.3615 -0.9961 -0.1836
14485TIP3    H264871   5.901   4.652   0.737  1.2645  0.0794  1.6706
14486TIP3   OH264872   5.294   5.963   3.194  0.1103 -0.2751 -0.1564
14486TIP3    H164873   5.370   6.010   3.159  0.8749  1.5231  3.5869
14486TIP3    H264874   5.244   6.031   3.239 -2.4210 -1.9132 -0.4243
14487TIP3   OH264875   1.954   0.520  11.248 -0.3359 -1.1716  0.7640
14487TIP3    H164876   1.966   0.508  11.343  1.5223 -0.2705  0.6538
14487TIP3    H264877   1.945   0.431  11.214 -0.9785 -1.5102  1.7688
14488TIP3   OH264878   4.607   5.289  13.786 -0.1714 -0.1192  0.4673
14488TIP3    H164879   4.569   5.226  13.846  2.1487 -0.3581  1.7490
14488TIP3    H264880   4.585   5.375  13.823 -0.4682 -0.2279  0.5432
14489TIP3   OH264881   5.866   0.781  14.612  0.2353 -0.8028 -0.1564
14489TIP3    H164882   5.870   0.688  14.587  1.8129 -0.7084 -0.2924
14489TIP3    H264883   5.900   0.828  14.536  1.5139 -0.2705  0.7195
14490TIP3   OH264884   3.183   4.984   3.204  0.2590 -0.0381 -0.0500
14490TIP3    H164885   3.122   5.020   3.139 -0.5174  0.0483  0.7129
14490TIP3    H264886   3.227   4.913   3.159 -2.9525 -2.4547  0.4389
14491TIP3   OH264887   0.689   5.768   0.791 -0.3127  0.7410 -0.1378
14491TIP3    H164888   0.692   5.687   0.841  0.9026  1.4503  0.9628
14491TIP3    H264889   0.764   5.819   0.822 -0.5784  1.9443 -1.4004
14492TIP3   OH264890   6.660   2.040  16.314  0.3284 -0.7058  0.0024
14492TIP3    H164891   6.619   2.088  16.242  0.0200  0.5098  0.9769
14492TIP3    H264892   6.629   2.083  16.393  0.7139 -1.9963  0.8744
14493TIP3   OH264893   2.324   4.045  12.322 -0.3715  0.2048 -0.0603
14493TIP3    H164894   2.256   4.111  12.334  1.1949  1.6805  0.9867
14493TIP3    H264895   2.351   4.055  12.230  0.1571  1.3302  0.2125
14494TIP3   OH264896   4.790   3.190  14.602 -0.4651 -0.4240  0.0015
14494TIP3    H164897   4.742   3.255  14.550  0.3701  1.0464  1.0123
14494TIP3    H264898   4.789   3.226  14.691  0.6834 -1.4290  0.4268
14495TIP3   OH264899   4.238   0.184  13.706 -0.3171  0.2447 -0.1837
14495TIP3    H164900   4.214   0.096  13.678  0.8329 -0.2041  0.2357
14495TIP3    H264901   4.317   0.205  13.656  0.4147  0.3459  0.9932
14496TIP3   OH264902   5.647   3.133   2.531  0.3655  0.2558  0.1855
14496TIP3    H164903   5.598   3.199   2.481  1.3607  0.3050 -0.7578
14496TIP3    H264904   5.678   3.179   2.608  0.3026  0.6514 -0.0231
14497TIP3   OH264905   0.261   0.131  16.150  0.3816 -0.0448 -0.0192
14497TIP3    H164906   0.216   0.164  16.228  1.6765 -2.2109  1.7549
14497TIP3    H264907   0.213   0.051  16.127  2.3682 -1.6050  1.0471
14498TIP3   OH264908   5.576   1.627  12.631  0.1203  0.1053  0.1720
14498TIP3    H164909   5.528   1.619  12.548 -0.8468  1.5223  0.5909
14498TIP3    H264910   5.514   1.597  12.698  0.7239 -0.5363  0.4573
14499TIP3   OH264911   2.788   5.785   4.298  0.4935  0.0859 -0.1584
14499TIP3    H164912   2.806   5.771   4.205  0.6165 -3.4148  0.3279
14499TIP3    H264913   2.790   5.880   4.309 -0.8334  0.6241 -3.9729
14500TIP3   OH264914   0.857   2.170   0.126  0.6362 -0.0046 -0.4442
14500TIP3    H164915   0.816   2.255   0.109 -1.7713 -0.9466  0.4793
14500TIP3    H264916   0.856   2.125   0.041 -1.3408 -0.4569 -0.2107
14501TIP3   OH264917   5.953   0.648  12.464  0.3530  0.9008  0.1209
14501TIP3    H164918   5.889   0.677  12.399 -0.5491 -1.4394 -0.0545
14501TIP3    H264919   6.038   0.668  12.424 -0.2142  1.3790 -0.8630
14502TIP3   OH264920   5.906   1.722  13.569 -0.3211  0.3024 -0.2449
14502TIP3    H164921   5.931   1.811  13.594 -2.7602  0.6906  0.9553
14502TIP3    H264922   5.923   1.670  13.647  2.1366 -0.5320 -1.2942
14503TIP3   OH264923   1.969   0.627  13.862 -0.3812  0.0177 -0.0819
14503TIP3    H164924   2.040   0.690  13.851 -0.0525  0.2853  2.9757
14503TIP3    H264925   1.997   0.550  13.812  1.5397  0.5331  0.1635
14504TIP3   OH264926   2.881   3.098   2.196  0.2201  0.0091 -0.3362
14504TIP3    H164927   2.822   3.115   2.123  0.2053  1.9189  0.1073
14504TIP3    H264928   2.963   3.139   2.171  0.1160  0.9609  0.8577
14505TIP3   OH264929   2.520   6.499   5.862  0.2421  0.0436  0.5422
14505TIP3    H164930   2.440   6.548   5.847  0.4856  0.4700  0.6239
14505TIP3    H264931   2.542   6.515   5.954  0.3225 -0.2176  0.5703
14506TIP3   OH264932   6.527   0.498  10.477  0.3680 -0.2215  0.2511
14506TIP3    H164933   6.457   0.433  10.468 -0.2694  0.3710  0.8821
14506TIP3    H264934   6.489   0.567  10.531  0.9993  0.7303 -0.4964
14507TIP3   OH264935   0.882   6.746  15.490  0.1737 -0.2901  0.5091
14507TIP3    H164936   0.824   6.687  15.441  0.6373  0.5184 -1.0370
14507TIP3    H264937   0.963   6.696  15.500  0.6291  0.1089 -0.9547
14508TIP3   OH264938   1.137   5.518  12.473  0.0477 -0.0887 -0.4487
14508TIP3    H164939   1.077   5.540  12.544 -0.3582  0.1027 -0.8507
14508TIP3    H264940   1.221   5.557  12.500 -0.3634  0.8915 -0.5703
14509TIP3   OH264941   0.357   3.706   2.971 -0.3437  0.0526  0.2321
14509TIP3    H164942   0.347   3.799   2.991 -3.9452 -0.3541  0.8300
14509TIP3    H264943   0.337   3.700   2.877  0.5299 -0.0284  0.0541
14510TIP3   OH264944   0.989   0.084  10.526 -0.5095  0.0298 -0.0277
14510TIP3    H164945   0.993   0.121  10.438  0.1612  0.7673  0.3042
14510TIP3    H264946   1.015  -0.007  10.515  1.1517  0.5335 -0.3646
14511TIP3   OH264947   3.903   6.529   1.769  0.0067 -0.0297 -0.2053
14511TIP3    H164948   3.924   6.608   1.718 -2.2110  1.9263  1.7742
14511TIP3    H264949   3.985   6.505   1.811  0.5576  1.6911 -0.2381
14512TIP3   OH264950   3.000   4.148  13.355 -0.7693  0.5226 -0.0649
14512TIP3    H164951   2.967   4.236  13.373 -0.1105  0.9040 -0.6599
14512TIP3    H264952   2.977   4.096  13.432 -1.9748  0.9899 -0.1176
14513TIP3   OH264953   6.564   6.700   5.007  0.1809 -0.2236  0.1172
14513TIP3    H164954   6.510   6.641   5.060 -0.3305  1.7061  1.8052
14513TIP3    H264955   6.501   6.752   4.957  0.5854 -0.2048 -0.3850
14514TIP3   OH264956   1.800   0.254   4.733  0.0255  0.5606  0.2052
14514TIP3    H164957   1.894   0.267   4.725 -0.2239  1.1496 -2.1419
14514TIP3    H264958   1.782   0.172   4.687 -0.3855 -0.5315  2.2439
14515TIP3   OH264959   2.988   6.147  15.911 -0.0502 -0.3156  0.4546
14515TIP3    H164960   2.903   6.107  15.892 -1.2216  1.3407  2.0159
14515TIP3    H264961   2.975   6.240  15.892  1.0763  0.1199  1.7518
14516TIP3   OH264962   6.465   4.055  11.513 -0.2552 -0.2575  0.0962
14516TIP3    H164963   6.388   4.093  11.555 -0.3543 -0.8929  0.4815
14516TIP3    H264964   6.524   4.129  11.501 -0.5713  0.0763  0.5829
14517TIP3   OH264965   2.381   4.399   0.515 -0.7057  0.1826 -0.2120
14517TIP3    H164966   2.353   4.425   0.603  0.0449  1.9130 -0.4786
14517TIP3    H264967   2.476   4.414   0.515 -0.6846  0.0609 -1.2838
14518TIP3   OH264968   2.051   4.585  12.576  0.2575  0.2737 -1.3033
14518TIP3    H164969   2.001   4.649  12.525 -2.1390 -0.1038  0.4703
14518TIP3    H264970   2.072   4.631  12.657 -0.5412 -0.8106 -0.4685
14519TIP3   OH264971   6.620   2.849  10.887 -0.1503 -0.0199 -0.0569
14519TIP3    H164972   6.623   2.923  10.827 -1.1519  1.3433  1.5174
14519TIP3    H264973   6.706   2.848  10.930 -0.4033  0.7244  0.4762
14520TIP3   OH264974   4.391   5.964  14.310  0.0260 -0.0909  0.0550
14520TIP3    H164975   4.480   5.931  14.316 -0.4946 -1.6383 -0.3421
14520TIP3    H264976   4.336   5.890  14.337 -1.1175  0.9972  0.7715
14521TIP3   OH264977   4.269   0.130  11.708 -0.3930  0.1996 -0.6501
14521TIP3    H164978   4.339   0.148  11.646  0.3877  0.9655  0.4302
14521TIP3    H264979   4.210   0.205  11.701 -1.1137 -0.4355 -1.5461
14522TIP3   OH264980   2.558   0.208  11.171 -0.2237  0.3641  0.6287
14522TIP3    H164981   2.514   0.209  11.086  0.7753 -0.1856  0.1080
14522TIP3    H264982   2.490   0.180  11.232 -1.4814  2.5730  0.3149
14523TIP3   OH264983   0.417   5.383   0.513 -0.1734  0.0691 -0.2976
14523TIP3    H164984   0.453   5.329   0.583  0.7792  0.1025 -0.7446
14523TIP3    H264985   0.468   5.464   0.517  0.0883 -0.0434 -1.1969
14524TIP3   OH264986   5.041   0.914  17.153  0.1789 -0.3836 -0.3635
14524TIP3    H164987   4.999   0.968  17.221 -0.9505 -2.7803  0.8968
14524TIP3    H264988   4.974   0.903  17.086  0.0401 -1.1583 -0.0961
14525TIP3   OH264989   3.505   1.562   3.273 -0.3774  0.3775 -0.0260
14525TIP3    H164990   3.556   1.570   3.192 -0.2700 -0.1979 -0.0157
14525TIP3    H264991   3.532   1.478   3.310 -1.0541  0.2462  0.1764
14526TIP3   OH264992   0.679   0.658   5.453 -0.0454  1.1116 -0.3749
14526TIP3    H164993   0.745   0.728   5.448 -0.9635  1.9236 -1.4281
14526TIP3    H264994   0.646   0.662   5.543  0.5000  1.4713 -0.1876
14527TIP3   OH264995   0.813   2.928  13.222  0.3571  0.0246  0.3859
14527TIP3    H164996   0.779   2.842  13.196 -1.0706  0.5992  0.3151
14527TIP3    H264997   0.823   2.975  13.140 -1.5067  0.8705  0.6059
14528TIP3   OH264998   2.630   4.995  10.271  0.2104 -0.3268  0.3375
14528TIP3    H164999   2.586   4.936  10.332  1.4287 -1.2000  0.3724
14528TIP3    H265000   2.720   4.998  10.301  0.5318  0.2507 -0.6602
14529TIP3   OH265001   2.640   4.674  16.076 -0.0434  0.2012  0.0815
14529TIP3    H165002   2.667   4.763  16.054  0.5026  0.3033  1.1238
14529TIP3    H265003   2.567   4.656  16.018  0.9124  0.7090 -1.2915
14530TIP3   OH265004   1.876   0.605   6.352  0.6855 -0.4731 -0.1977
14530TIP3    H165005   1.849   0.593   6.443  0.7010  0.5662 -0.0454
14530TIP3    H265006   1.795   0.593   6.302  0.2070  1.1816  0.1403
14531TIP3   OH265007   4.483   0.682  14.541 -0.2565 -0.1212 -0.2161
14531TIP3    H165008   4.397   0.697  14.581 -0.1440  1.8113 -0.6499
14531TIP3    H265009   4.539   0.656  14.614 -0.5931  1.2022  0.5400
14532TIP3   OH265010   2.142   2.624   5.975  0.0443 -0.4864 -0.3219
14532TIP3    H165011   2.138   2.590   6.064  0.7995  1.5367  0.5113
14532TIP3    H265012   2.054   2.610   5.939 -0.6995  0.1108  1.2576
14533TIP3   OH265013   6.476   5.856  13.630  0.1482  0.3684  0.2253
14533TIP3    H165014   6.523   5.920  13.577  0.2700 -0.0819 -0.2195
14533TIP3    H265015   6.539   5.829  13.697  0.4754 -0.1275 -0.2804
14534TIP3   OH265016   0.568   2.953  11.643  0.8102  0.0414 -0.6181
14534TIP3    H165017   0.631   2.995  11.701 -1.4660  0.2944  1.8076
14534TIP3    H265018   0.502   3.020  11.626 -1.1648 -1.5080  0.6462
14535TIP3   OH265019   2.719   5.902  16.672 -0.1372 -0.1040 -0.3101
14535TIP3    H165020   2.751   5.822  16.713  0.4325 -0.1371 -0.8079
14535TIP3    H265021   2.723   5.885  16.578 -2.2065 -0.3214 -0.3826
14536TIP3   OH265022   5.327   5.242  12.641  0.7210 -0.1674 -0.2445
14536TIP3    H165023   5.335   5.230  12.736  0.6964 -1.4153 -0.3918
14536TIP3    H265024   5.398   5.302  12.618  1.0583 -0.2815  0.4914
14537TIP3   OH265025   1.419   2.131   2.190 -0.0176 -0.1714  0.3124
14537TIP3    H165026   1.437   2.224   2.204  0.8930 -0.1441 -0.9434
14537TIP3    H265027   1.460   2.088   2.265 -1.2130  0.4959  1.3709
14538TIP3   OH265028   5.777   1.770  12.542  0.1333 -0.2238 -1.0575
14538TIP3    H165029   5.759   1.840  12.479 -1.1236 -1.4327 -2.0828
14538TIP3    H265030   5.691   1.732  12.560  0.6778 -0.8360  0.2866
14539TIP3   OH265031   3.220   0.245  15.605 -0.1040  0.1976 -0.0967
14539TIP3    H165032   3.261   0.195  15.675  2.8015  1.2990 -0.9374
14539TIP3    H265033   3.284   0.245  15.534 -0.4235  4.1407 -0.5300
14540TIP3   OH265034   4.739   0.086  15.848 -0.1464 -0.0003 -0.1136
14540TIP3    H165035   4.777   0.032  15.917  0.6646  0.8852  0.1532
14540TIP3    H265036   4.814   0.120  15.800 -0.5504  2.0416  0.6229
14541TIP3   OH265037   5.326   0.097  12.638  0.3737  0.5552  0.4493
14541TIP3    H165038   5.377   0.063  12.712  0.4532 -2.5742 -0.9755
14541TIP3    H265039   5.356   0.187  12.628  3.8596 -0.4504  1.2199
14542TIP3   OH265040   0.675   0.783  12.728  0.2047  0.1402  0.0397
14542TIP3    H165041   0.661   0.869  12.767 -1.3659  0.5050 -1.2752
14542TIP3    H265042   0.696   0.801  12.636 -3.6710 -0.9631 -1.1539
14543TIP3   OH265043   1.338   2.859   1.457 -0.2306  0.2498 -0.1257
14543TIP3    H165044   1.263   2.869   1.516 -0.3035  0.0480 -0.1851
14543TIP3    H265045   1.326   2.928   1.392  0.3742  1.1003  0.6535
14544TIP3   OH265046   0.489   5.212   0.121  0.5734 -0.0547 -0.8374
14544TIP3    H165047   0.440   5.169   0.192  1.5755  1.2628  0.6652
14544TIP3    H265048   0.556   5.148   0.097  1.5016  0.2893  0.7804
14545TIP3   OH265049   2.479   3.867   4.812  0.3039 -0.2853  0.0027
14545TIP3    H165050   2.440   3.926   4.876  1.2198 -0.1702  0.4713
14545TIP3    H265051   2.433   3.886   4.730 -1.5779 -1.1548  0.8296
14546TIP3   OH265052   1.071   5.362  16.971 -0.5546  0.0416  0.4031
14546TIP3    H165053   1.166   5.355  16.957 -0.5415 -0.0868  0.5581
14546TIP3    H265054   1.061   5.371  17.066 -0.6762  0.4504  0.3505
14547TIP3   OH265055   0.087   6.382  13.725 -0.6247 -0.2498 -0.3587
14547TIP3    H165056   0.052   6.294  13.741  0.3217 -0.5294  0.2187
14547TIP3    H265057   0.009   6.438  13.720 -1.2777 -1.2275 -1.4303
14548TIP3   OH265058   5.700   3.956  16.349 -0.9831 -0.1053 -0.0996
14548TIP3    H165059   5.610   3.927  16.356 -0.6620 -1.2265 -0.4614
14548TIP3    H265060   5.752   3.882  16.381 -0.1901  0.5122  0.0749
14549TIP3   OH265061   0.179   0.559  11.987 -0.4730 -0.4069  0.0551
14549TIP3    H165062   0.177   0.464  11.977 -0.5676 -0.2808 -1.1122
14549TIP3    H265063   0.114   0.577  12.056  0.4139 -1.2845  1.1377
14550TIP3   OH265064   6.255   4.913  13.357  0.5279  0.2839  0.2152
14550TIP3    H165065   6.286   4.875  13.439 -0.3483 -1.7149 -0.3446
14550TIP3    H265066   6.301   4.996  13.350  2.5283 -0.6817  1.4764
14551TIP3   OH265067   3.779   1.218   0.862 -0.4570  0.5849  0.3226
14551TIP3    H165068   3.854   1.276   0.851 -0.1518  0.0167 -0.6635
14551TIP3    H265069   3.804   1.159   0.932  0.3841 -0.1811 -0.6220
14552TIP3   OH265070   3.460   5.075  12.392  0.1822  0.3521  0.0129
14552TIP3    H165071   3.418   5.032  12.318 -2.1483 -1.6815  2.4001
14552TIP3    H265072   3.396   5.142  12.420  0.7199  0.6246  0.6059
14553TIP3   OH265073   0.727   2.187   5.128 -0.0870  0.5967 -0.3361
14553TIP3    H165074   0.718   2.211   5.220 -0.2005  1.8471 -0.6551
14553TIP3    H265075   0.713   2.093   5.126  0.8612  0.3970  1.0570
14554TIP3   OH265076   5.124   0.727  13.461 -0.9763  0.2862  0.5109
14554TIP3    H165077   5.075   0.648  13.485 -2.7180  0.9968 -0.5972
14554TIP3    H265078   5.198   0.696  13.409 -0.3412 -0.7914  2.0248
14555TIP3   OH265079   0.177   2.200  15.904 -0.2742  0.5883 -0.0515
14555TIP3    H165080   0.172   2.295  15.898 -0.7177  0.5391 -0.4653
14555TIP3    H265081   0.164   2.181  15.997  0.2885  0.9575  0.1047
14556TIP3   OH265082   4.966   1.801  14.482  0.8945  0.1876 -0.2226
14556TIP3    H165083   5.011   1.802  14.397 -0.0423  2.1271 -0.7349
14556TIP3    H265084   4.934   1.891  14.493 -0.8082 -0.5597  1.2233
14557TIP3   OH265085   5.972   0.806   3.307 -0.1753  0.4314 -0.4544
14557TIP3    H165086   5.990   0.713   3.300 -0.5965  0.3500 -0.4600
14557TIP3    H265087   6.050   0.849   3.271  0.4497  0.0969  0.4817
14558TIP3   OH265088   3.081   0.161   3.439  0.0893  0.2857 -0.5775
14558TIP3    H165089   3.046   0.073   3.424  1.1376  0.0751 -1.9458
14558TIP3    H265090   3.004   0.216   3.453 -0.4817 -1.5304  4.6278
14559TIP3   OH265091   2.064   3.210  15.734 -0.0368  0.1585 -0.0076
14559TIP3    H165092   2.090   3.118  15.748 -0.7072 -0.3490 -1.8946
14559TIP3    H265093   2.080   3.252  15.818 -0.6632 -1.9179  1.2003
14560TIP3   OH265094   4.908   3.923   3.209 -0.0479  0.2230 -0.3437
14560TIP3    H165095   4.954   3.844   3.183  2.1655  1.1346  0.6592
14560TIP3    H265096   4.901   3.975   3.129 -1.7028 -1.0470 -1.0489
14561TIP3   OH265097   4.379   6.095   0.305  0.0839  0.0690  0.4031
14561TIP3    H165098   4.432   6.089   0.384  0.9205 -0.0112 -0.1620
14561TIP3    H265099   4.343   6.183   0.306 -0.9995 -0.3654  1.5653
14562TIP3   OH265100   2.771   6.068   1.125  0.7955 -0.3662 -0.0564
14562TIP3    H165101   2.755   6.152   1.168 -0.8947 -0.5292 -0.3153
14562TIP3    H265102   2.740   6.003   1.188 -1.7767 -0.6019 -1.4792
14563TIP3   OH265103   3.632   0.177   1.968 -0.4480  0.0545  0.4865
14563TIP3    H165104   3.626   0.082   1.959  2.1941 -0.1173 -0.1835
14563TIP3    H265105   3.723   0.192   1.994 -1.1419  2.3297  1.6741
14564TIP3   OH265106   2.677   1.812   1.246 -0.3216 -0.6966 -1.5109
14564TIP3    H165107   2.766   1.845   1.235 -0.1656 -0.5596  0.0803
14564TIP3    H265108   2.623   1.891   1.250 -0.3627 -0.7420 -1.1865
14565TIP3   OH265109   5.048   3.114  14.412  0.0494  0.5076  0.2522
14565TIP3    H165110   4.969   3.060  14.409  1.0486 -1.0327  0.6700
14565TIP3    H265111   5.019   3.198  14.447 -1.7593  0.6668 -1.5475
14566TIP3   OH265112   0.641   2.552   2.496  0.5453 -0.6382  0.0642
14566TIP3    H165113   0.677   2.546   2.407  0.2802 -0.8180 -0.0320
14566TIP3    H265114   0.597   2.468   2.509  0.3883 -0.5194  0.2811
14567TIP3   OH265115   1.597   3.642   5.138 -0.2150  0.0258 -0.2760
14567TIP3    H165116   1.624   3.630   5.229 -0.1119 -1.2782 -0.4665
14567TIP3    H265117   1.650   3.578   5.090  0.1845  1.1284 -1.3343
14568TIP3   OH265118   3.728   5.181   0.667  0.0418  0.0828 -0.8104
14568TIP3    H165119   3.791   5.205   0.734  0.6778 -0.5604 -1.1785
14568TIP3    H265120   3.669   5.120   0.710 -0.3908  0.7496 -0.4427
14569TIP3   OH265121   4.173   6.199   0.800 -0.1560 -0.7086  0.2827
14569TIP3    H165122   4.213   6.281   0.773 -0.2992 -0.7356 -0.0210
14569TIP3    H265123   4.082   6.206   0.771 -0.1538 -0.9980  0.1973
14570TIP3   OH265124   5.981   1.467  16.742  0.5273  0.1556  0.4255
14570TIP3    H165125   5.948   1.383  16.709 -0.4380  1.3606 -1.8031
14570TIP3    H265126   6.073   1.469  16.714 -0.1858  1.0072 -1.9832
14571TIP3   OH265127   6.411   0.785   4.536 -0.5699  0.1676 -0.0098
14571TIP3    H165128   6.380   0.698   4.510  1.1036 -0.1443 -0.9979
14571TIP3    H265129   6.487   0.767   4.591 -0.3472  1.0128 -0.0442
14572TIP3   OH265130   5.699   0.014   4.887 -0.5872 -0.2552  0.1333
14572TIP3    H165131   5.644   0.058   4.952  0.6177  1.0375  0.3129
14572TIP3    H265132   5.783   0.003   4.931 -0.1062 -0.3949 -0.8181
14573TIP3   OH265133   5.912   1.207   6.173  0.5190  0.2645  0.1550
14573TIP3    H165134   5.973   1.134   6.178 -0.6926 -0.8856 -1.4181
14573TIP3    H265135   5.829   1.168   6.145 -0.2033  2.1983 -0.5128
14574TIP3   OH265136   3.647   4.495  12.243  0.8591  0.0579  0.0867
14574TIP3    H165137   3.614   4.574  12.286 -0.4906 -0.1841 -0.4760
14574TIP3    H265138   3.723   4.525  12.193  0.3149  1.0215 -0.1778
14575TIP3   OH265139   5.790   3.753  12.698  0.2048 -0.5521 -0.2660
14575TIP3    H165140   5.796   3.681  12.760  0.7111 -0.4041 -0.1397
14575TIP3    H265141   5.796   3.832  12.751  2.4290 -0.4344 -0.6567
14576TIP3   OH265142   3.314   3.248   4.893 -0.0576 -0.0747  0.4714
14576TIP3    H165143   3.328   3.154   4.880  0.3482  0.1108 -0.4764
14576TIP3    H265144   3.386   3.276   4.949  1.5467  0.2285 -1.6647
14577TIP3   OH265145   4.457   6.500   4.507 -0.3083 -0.3825  0.1585
14577TIP3    H165146   4.372   6.493   4.550  0.4020 -1.1817  1.4615
14577TIP3    H265147   4.514   6.539   4.573  1.1535 -2.9601  0.4643
14578TIP3   OH265148   3.338   5.811  14.451 -0.2216 -0.1323 -0.4387
14578TIP3    H165149   3.244   5.810  14.434 -0.5887 -1.4957  1.4988
14578TIP3    H265150   3.363   5.903  14.442 -1.5978  0.1534 -1.6095
14579TIP3   OH265151   5.421   5.754   2.186  0.0319 -0.3336 -0.2484
14579TIP3    H165152   5.493   5.743   2.247 -0.5620 -1.9530  0.2072
14579TIP3    H265153   5.416   5.848   2.170  1.5707 -0.1100  0.5112
14580TIP3   OH265154   5.675   6.311  11.445  0.3528  0.5105  0.3277
14580TIP3    H165155   5.695   6.218  11.456  1.6612  0.5585 -1.5160
14580TIP3    H265156   5.584   6.314  11.416  0.4597 -0.2115 -0.0685
14581TIP3   OH265157   1.321   1.647   3.614 -0.0809  0.1076  0.0435
14581TIP3    H165158   1.282   1.701   3.545 -0.8266  0.4895  0.7591
14581TIP3    H265159   1.387   1.595   3.569 -2.4594 -1.6744 -1.4763
14582TIP3   OH265160   0.106   0.595   0.491 -0.7338 -0.2496  0.1604
14582TIP3    H165161   0.175   0.589   0.425  0.0145  0.2423  0.8894
14582TIP3    H265162   0.097   0.689   0.508 -0.6795 -0.3937  1.0041
14583TIP3   OH265163   0.953   1.211  11.080 -0.2028 -0.1417 -0.2662
14583TIP3    H165164   0.896   1.141  11.111 -0.8924 -0.1221 -1.4870
14583TIP3    H265165   0.895   1.285  11.064  0.1456 -0.1289 -1.5307
14584TIP3   OH265166   5.267   3.189  12.140 -0.4167 -0.4710  0.2185
14584TIP3    H165167   5.313   3.272  12.128  1.2575 -1.1906  1.4075
14584TIP3    H265168   5.283   3.166  12.232 -0.4156 -2.3543 -0.2295
14585TIP3   OH265169   4.822   2.424  11.812 -0.9308  0.5155 -0.6752
14585TIP3    H165170   4.850   2.509  11.847 -0.5008 -0.6865  1.9507
14585TIP3    H265171   4.863   2.419  11.726 -0.5312  2.7404 -0.6422
14586TIP3   OH265172   4.821   3.361  13.682  0.3192  0.1589  0.1500
14586TIP3    H165173   4.765   3.304  13.631  0.1754  1.4099 -1.1175
14586TIP3    H265174   4.887   3.393  13.620  2.0432 -0.7541  1.4569
14587TIP3   OH265175   4.788   1.297   0.611 -0.0981 -0.5247 -0.1158
14587TIP3    H165176   4.700   1.275   0.641  0.7133 -3.4203  0.2954
14587TIP3    H265177   4.842   1.299   0.690 -0.2100  3.9066 -0.0161
14588TIP3   OH265178   1.328   4.942  12.423 -0.2585  0.6505 -0.0878
14588TIP3    H165179   1.312   5.021  12.371 -0.6227  1.3580  1.0530
14588TIP3    H265180   1.311   4.869  12.364 -1.8796  1.4236 -0.6001
14589TIP3   OH265181   4.718   1.539  10.686  0.0521 -0.0964 -0.7195
14589TIP3    H165182   4.668   1.618  10.705  0.4021  0.5674 -2.4186
14589TIP3    H265183   4.797   1.547  10.739 -1.4098 -0.9499  1.6575
14590TIP3   OH265184   3.701   3.032  13.719 -0.2335  0.0695  0.1382
14590TIP3    H165185   3.721   3.002  13.807  2.2348  0.9308 -0.0841
14590TIP3    H265186   3.687   3.127  13.728  1.0041  0.3226 -0.5285
14591TIP3   OH265187   2.135   4.057   0.134 -0.3253 -0.2261  0.5965
14591TIP3    H165188   2.212   4.061   0.192 -0.0225  0.5586  0.1436
14591TIP3    H265189   2.170   4.075   0.047 -0.6600 -2.1380  0.0417
14592TIP3   OH265190   1.478   2.049   0.568  0.8898 -0.3387 -0.3408
14592TIP3    H165191   1.565   2.071   0.600  1.2004 -1.2096 -0.5699
14592TIP3    H265192   1.453   2.123   0.513  0.6996  0.7859  1.2323
14593TIP3   OH265193   2.072   6.288  17.117 -0.3686 -0.2896 -0.0606
14593TIP3    H165194   2.134   6.235  17.167 -0.5525 -0.7001 -0.2622
14593TIP3    H265195   2.119   6.369  17.097  0.6666 -1.2388 -1.5784
14594TIP3   OH265196   1.033   0.658  12.475 -0.3580 -0.3769  0.3964
14594TIP3    H165197   1.104   0.716  12.504  0.7535 -1.8912  0.7499
14594TIP3    H265198   1.043   0.651  12.380 -1.3094  1.0489  0.1715
14595TIP3   OH265199   2.332   5.987  13.971 -0.0642 -0.1514 -0.2388
14595TIP3    H165200   2.294   5.957  14.054  1.6616 -1.6380  0.0346
14595TIP3    H265201   2.364   6.076  13.990 -0.2598 -0.2378  0.4971
14596TIP3   OH265202   5.521   3.312  12.842 -0.0524 -0.1264  0.0837
14596TIP3    H165203   5.610   3.324  12.808 -0.0560  1.2982  0.5082
14596TIP3    H265204   5.464   3.320  12.765  0.1949 -1.1892 -0.2100
14597TIP3   OH265205   6.172   4.836  12.530 -0.0187  0.0397 -0.5813
14597TIP3    H165206   6.163   4.745  12.500 -0.0550 -0.1373 -0.0279
14597TIP3    H265207   6.194   4.829  12.623 -0.1784  0.6021 -0.4980
14598TIP3   OH265208   0.241   5.086   3.442 -0.4385  0.4392  0.1202
14598TIP3    H165209   0.319   5.042   3.476 -0.6791 -0.1419 -0.0694
14598TIP3    H265210   0.168   5.037   3.479 -0.7137  0.7237 -0.0422
14599TIP3   OH265211   4.114   3.422   3.673  0.0235 -0.4664 -0.0053
14599TIP3    H165212   4.207   3.439   3.687  0.2384 -1.5703 -0.0285
14599TIP3    H265213   4.107   3.326   3.672 -1.0720 -0.3916 -0.2586
14600TIP3   OH265214   4.232   0.652  15.583 -0.3416 -0.6031 -0.2008
14600TIP3    H165215   4.312   0.603  15.602 -0.3835 -0.0365  1.4907
14600TIP3    H265216   4.247   0.738  15.621 -2.2483 -0.8808  1.2529
14601TIP3   OH265217   3.295   1.001  11.564  0.4008 -0.1516 -0.0188
14601TIP3    H165218   3.368   0.980  11.506 -0.9352 -0.0013 -1.7893
14601TIP3    H265219   3.291   1.097  11.564  0.8657 -0.1190  0.9527
14602TIP3   OH265220   2.636   6.268  12.226 -0.3372  0.1421  0.1905
14602TIP3    H165221   2.692   6.332  12.182 -2.4812  1.7389 -0.3083
14602TIP3    H265222   2.667   6.268  12.317  0.1210  1.4176  0.0458
14603TIP3   OH265223   3.304   1.673  15.041  0.9598 -0.1242  0.1256
14603TIP3    H165224   3.215   1.698  15.015  1.2157  1.2865  0.5986
14603TIP3    H265225   3.340   1.632  14.962  0.2256  0.1552 -0.3672
14604TIP3   OH265226   0.206   3.693  16.543 -0.5127 -0.0971 -0.3154
14604TIP3    H165227   0.207   3.700  16.447  1.1944  0.9499 -0.2526
14604TIP3    H265228   0.243   3.606  16.560 -2.2330 -0.8968 -0.6375
14605TIP3   OH265229   6.297   3.886   2.249 -0.1670 -0.3744 -0.2314
14605TIP3    H165230   6.341   3.952   2.195 -2.7709  0.2661 -1.6915
14605TIP3    H265231   6.256   3.936   2.319  0.3838 -0.8152  0.4093
14606TIP3   OH265232   3.687   5.900  16.550 -0.2066 -0.4545 -0.7007
14606TIP3    H165233   3.597   5.872  16.531 -0.0242 -0.2789 -1.8582
14606TIP3    H265234   3.699   5.879  16.643 -1.4943 -0.3356 -0.4889
14607TIP3   OH265235   1.318   0.422   5.826  0.6837  0.1395  0.2789
14607TIP3    H165236   1.340   0.343   5.777 -1.3433 -1.1874  1.4022
14607TIP3    H265237   1.285   0.483   5.760  1.3133 -0.3144 -0.4623
14608TIP3   OH265238   2.061   0.857   0.669  0.3587  0.1440 -0.7291
14608TIP3    H165239   1.994   0.789   0.661 -0.3727  0.7874 -0.1012
14608TIP3    H265240   2.065   0.877   0.762 -0.6991  2.2151 -1.0875
14609TIP3   OH265241   4.345   3.616  15.627 -0.0073  0.0705 -0.1665
14609TIP3    H165242   4.387   3.530  15.622  1.0136  0.3160  3.0463
14609TIP3    H265243   4.409   3.672  15.672 -1.3282  2.0704 -0.6866
14610TIP3   OH265244   2.083   0.605   2.766  0.4206  0.0607  0.0890
14610TIP3    H165245   2.019   0.675   2.756  0.0994 -0.1558  0.5921
14610TIP3    H265246   2.042   0.543   2.826  1.3462  0.2286  0.9194
14611TIP3   OH265247   3.741   1.121  10.804  0.0711  0.1881  0.3081
14611TIP3    H165248   3.830   1.153  10.812  0.1789  0.3290 -1.3579
14611TIP3    H265249   3.749   1.026  10.801  0.1568  0.1968  0.2768
14612TIP3   OH265250   2.548   5.615  15.638  0.1101  0.5007  0.1994
14612TIP3    H165251   2.616   5.680  15.622 -0.7194  0.7984 -2.3400
14612TIP3    H265252   2.583   5.534  15.603 -0.3589  0.3919 -0.0200
14613TIP3   OH265253   6.563   4.912  14.211  0.0937  0.5368  0.2636
14613TIP3    H165254   6.547   4.817  14.211 -0.1028  0.5696  0.2740
14613TIP3    H265255   6.513   4.944  14.286  2.1728  0.2991  1.8046
14614TIP3   OH265256   5.777   0.222  11.212  0.1274  0.2091  0.2984
14614TIP3    H165257   5.834   0.277  11.158  1.4021 -0.8068  0.5850
14614TIP3    H265258   5.701   0.277  11.230  0.6311  1.2883 -0.8054
14615TIP3   OH265259   1.288   1.125  14.743 -0.3600  0.2039  0.4508
14615TIP3    H165260   1.263   1.046  14.791  0.2667 -0.8528 -0.9284
14615TIP3    H265261   1.237   1.122  14.662  0.2255  0.8171  0.0442
14616TIP3   OH265262   5.742   3.513   2.596  0.8798 -0.1009  0.2336
14616TIP3    H165263   5.725   3.472   2.681  0.0985  3.2434  1.7527
14616TIP3    H265264   5.816   3.571   2.612  0.7580  0.5264 -1.4138
14617TIP3   OH265265   3.212   6.440   4.471  0.1102  0.0377  0.0490
14617TIP3    H165266   3.252   6.518   4.509  0.3319  0.5261 -1.1562
14617TIP3    H265267   3.286   6.389   4.437 -0.0251 -0.7606  0.9518
14618TIP3   OH265268   5.261   0.632  14.980 -0.0756  0.1295 -0.1573
14618TIP3    H165269   5.309   0.598  14.905  0.7051 -0.2366  0.4881
14618TIP3    H265270   5.238   0.554  15.031 -2.8604  0.1665 -1.3164
14619TIP3   OH265271   3.874   3.452   4.403  0.1357 -0.2933  0.6553
14619TIP3    H165272   3.831   3.454   4.318  0.2383 -1.3452  0.5767
14619TIP3    H265273   3.968   3.449   4.382  0.4402  4.6326  0.8172
14620TIP3   OH265274   4.626   1.086   0.148 -0.0544  0.4740 -0.5678
14620TIP3    H165275   4.552   1.028   0.160 -1.4236  1.8164 -2.1726
14620TIP3    H265276   4.628   1.141   0.226 -1.3719  1.0709 -0.9430
14621TIP3   OH265277   5.422   1.360   2.534 -0.1916 -0.1556  0.1735
14621TIP3    H165278   5.411   1.348   2.440 -1.4725 -3.0514  0.6266
14621TIP3    H265279   5.512   1.334   2.551  0.0021  0.2434 -0.2281
14622TIP3   OH265280   2.011   5.688   4.965  1.0106  0.1397  0.3577
14622TIP3    H165281   2.039   5.607   5.006 -0.4279 -0.4383  0.2228
14622TIP3    H265282   1.919   5.696   4.988  0.5519  0.5498 -1.5284
14623TIP3   OH265283   2.491   2.023   2.131  0.0765 -0.4196 -0.0104
14623TIP3    H165284   2.521   2.055   2.216 -0.0846 -1.0624  0.2895
14623TIP3    H265285   2.404   2.062   2.121  0.0809 -0.3713  0.1358
14624TIP3   OH265286   0.557   0.838  12.103 -0.2176 -0.5174 -0.0021
14624TIP3    H165287   0.572   0.855  12.010  1.2489 -1.4833  0.0488
14624TIP3    H265288   0.488   0.899  12.127 -1.3354 -0.9434 -1.9669
14625TIP3   OH265289   2.585   2.830   6.194  0.5832  0.2009 -0.2800
14625TIP3    H165290   2.558   2.912   6.236  1.4967  1.3293 -1.8733
14625TIP3    H265291   2.511   2.806   6.139  1.0623  0.9761 -1.2761
14626TIP3   OH265292   4.921   2.461   4.415  0.2252 -0.0056  0.5328
14626TIP3    H165293   4.887   2.505   4.493  2.3966  2.0441  0.3572
14626TIP3    H265294   4.913   2.368   4.435  3.3854  0.4505  4.4198
14627TIP3   OH265295   4.918   4.512   3.621 -0.6336  0.4831 -0.3815
14627TIP3    H165296   4.890   4.421   3.612 -0.5274  0.2279  1.5567
14627TIP3    H265297   5.009   4.512   3.592 -0.0678 -0.4296  1.3041
14628TIP3   OH265298   0.515   6.403   5.764 -0.3555  0.0877  0.3061
14628TIP3    H165299   0.436   6.378   5.812 -0.4572  0.3928  0.2971
14628TIP3    H265300   0.518   6.498   5.770 -0.5720  0.1567 -0.6318
14629TIP3   OH265301   2.329   4.539   0.079  0.2739 -0.0993  0.4740
14629TIP3    H165302   2.235   4.552   0.065  0.4667  0.0098 -0.7785
14629TIP3    H265303   2.340   4.444   0.078  0.2096 -0.1072  0.4701
14630TIP3   OH265304   0.401   5.945  11.753 -0.0529 -0.0352 -0.3013
14630TIP3    H165305   0.441   5.975  11.834 -1.5437 -0.1324  0.4810
14630TIP3    H265306   0.335   5.882  11.781  0.4650 -1.2262 -1.6877
14631TIP3   OH265307   1.899   4.311  12.552 -0.0623  0.2434 -0.5122
14631TIP3    H165308   1.859   4.396  12.534 -0.1298  0.2920 -0.1510
14631TIP3    H265309   1.831   4.263  12.600  0.4747  0.4942  0.5269
14632TIP3   OH265310   0.214   5.677   5.382 -0.3646  0.2767  0.2737
14632TIP3    H165311   0.141   5.646   5.435 -2.3233  1.5570 -1.5952
14632TIP3    H265312   0.239   5.761   5.420 -0.2852  0.1395  0.5237
14633TIP3   OH265313   3.523   6.146  12.961 -0.2972 -1.0206 -0.2930
14633TIP3    H165314   3.541   6.240  12.960  0.0124 -1.0590 -4.3474
14633TIP3    H265315   3.574   6.113  13.035 -1.0276  2.0739  1.6783
14634TIP3   OH265316   5.811   3.478   0.340 -0.5869  0.1136 -0.0920
14634TIP3    H165317   5.873   3.414   0.374 -1.3890 -1.1465 -0.9539
14634TIP3    H265318   5.865   3.544   0.297  0.1307 -1.4201 -1.5844
14635TIP3   OH265319   6.591   2.765  16.072 -0.1940  0.2109  0.4713
14635TIP3    H165320   6.570   2.723  16.156 -0.6608  1.5808  1.0511
14635TIP3    H265321   6.542   2.847  16.073  0.8822  0.8843 -0.5627
14636TIP3   OH265322   5.922   0.950  11.538  0.1977  0.1593 -0.4289
14636TIP3    H165323   5.855   1.015  11.517 -0.3089 -0.6216 -1.2456
14636TIP3    H265324   5.912   0.883  11.471 -0.5084 -1.6580  1.4361
14637TIP3   OH265325   3.174   3.650  16.120  0.5461  0.2047 -0.0500
14637TIP3    H165326   3.138   3.705  16.050 -0.7093  0.8537  1.0900
14637TIP3    H265327   3.268   3.647  16.102  0.2690  0.5260 -1.6569
14638TIP3   OH265328   1.748   3.225  14.221 -0.0861 -0.4609 -0.3622
14638TIP3    H165329   1.696   3.162  14.171 -0.8345  0.0789 -0.2714
14638TIP3    H265330   1.692   3.303  14.227  0.4034 -0.1652  0.4375
14639TIP3   OH265331   0.095   5.660  13.997 -0.0990 -0.4707 -0.2360
14639TIP3    H165332   0.047   5.688  13.919  0.7263  0.9195 -0.2790
14639TIP3    H265333   0.070   5.723  14.064  0.9067 -0.2933 -0.0080
14640TIP3   OH265334   4.570   0.461   5.292  0.4493  0.2823  0.3757
14640TIP3    H165335   4.626   0.529   5.328  1.0722 -1.2159  2.3021
14640TIP3    H265336   4.630   0.391   5.266 -0.2514  0.0933 -0.7478
14641TIP3   OH265337   1.751   5.740  16.389  0.2288 -0.0834  0.1727
14641TIP3    H165338   1.711   5.827  16.396  1.7616  0.8398 -1.8570
14641TIP3    H265339   1.721   5.693  16.467 -1.0172  2.0940  1.0546
14642TIP3   OH265340   3.577   5.082   3.768 -0.2429  0.2128 -0.0599
14642TIP3    H165341   3.547   4.992   3.752  0.8492 -0.5147  1.8051
14642TIP3    H265342   3.653   5.092   3.712  0.7586 -0.6913  1.1140
14643TIP3   OH265343   6.183   5.452   3.544 -0.1275 -0.2954  0.8744
14643TIP3    H165344   6.116   5.467   3.611  0.5915  0.6879  1.3869
14643TIP3    H265345   6.256   5.412   3.591  0.2578  0.1047  0.6230
14644TIP3   OH265346   4.808   3.124  13.283  0.4483 -0.0102 -0.0782
14644TIP3    H165347   4.751   3.052  13.312 -0.3097  0.7198  0.2729
14644TIP3    H265348   4.877   3.127  13.349 -1.3742  1.7675  1.8296
14645TIP3   OH265349   5.681   6.248  13.167 -0.3046  0.2466 -0.3453
14645TIP3    H165350   5.667   6.175  13.228 -2.4115  0.2502 -0.7840
14645TIP3    H265351   5.613   6.312  13.191  2.8998  3.1574  1.5819
14646TIP3   OH265352   1.644   3.794  14.971 -0.1898 -0.3545  0.1205
14646TIP3    H165353   1.673   3.818  15.059 -1.8798 -0.7455  0.7977
14646TIP3    H265354   1.610   3.705  14.981 -0.8124 -0.2268 -0.8400
14647TIP3   OH265355   3.790   0.848  15.175 -0.0116 -0.4222 -0.0265
14647TIP3    H165356   3.830   0.813  15.254 -0.6911  0.9896  0.9633
14647TIP3    H265357   3.832   0.800  15.104  0.3053 -2.0207  1.1938
14648TIP3   OH265358   5.122   2.348  11.943  0.0971 -0.0708  0.1799
14648TIP3    H165359   5.054   2.413  11.961 -0.6215 -1.0371  1.0419
14648TIP3    H265360   5.180   2.352  12.019 -1.9194 -2.8710  1.9782
14649TIP3   OH265361   3.319   4.222   0.640  0.0876 -0.0205 -0.3489
14649TIP3    H165362   3.387   4.242   0.705 -0.0429  0.4527 -0.3573
14649TIP3    H265363   3.293   4.307   0.606 -1.1473 -0.1390  0.2867
14650TIP3   OH265364   0.984   3.568   3.573 -0.2433 -0.3367 -0.4178
14650TIP3    H165365   0.998   3.475   3.555  1.1705 -0.0127 -1.0554
14650TIP3    H265366   0.991   3.610   3.487  0.9333  0.5679  0.1194
14651TIP3   OH265367   0.323   2.506  11.834  0.3217 -0.4339  0.1440
14651TIP3    H165368   0.392   2.517  11.900  1.4189 -1.1992 -0.8305
14651TIP3    H265369   0.255   2.455  11.878  0.8621 -0.5904  0.8061
14652TIP3   OH265370   2.216   4.019  15.157 -0.2235 -0.2454 -0.7896
14652TIP3    H165371   2.263   4.085  15.106 -0.9967  0.6589 -0.3462
14652TIP3    H265372   2.125   4.025  15.126 -0.1360 -1.7409 -1.3971
14653TIP3   OH265373   4.113   2.483  13.359  0.2636 -0.4313 -0.2593
14653TIP3    H165374   4.172   2.559  13.352 -1.4478  0.9615  0.2328
14653TIP3    H265375   4.141   2.439  13.439  0.7549  0.1178 -0.1172
14654TIP3   OH265376   0.115   4.911   4.011 -0.2525  0.3333  0.3830
14654TIP3    H165377   0.120   4.922   4.106  1.9329  1.5874  0.1802
14654TIP3    H265378   0.197   4.949   3.979 -0.7470 -0.5038 -1.9701
14655TIP3   OH265379   1.735   3.940  14.547  0.3770  0.2859  0.0081
14655TIP3    H165380   1.650   3.919  14.508  0.7590 -1.3425  0.0153
14655TIP3    H265381   1.766   4.015  14.497  0.7116 -1.5437 -2.6408
14656TIP3   OH265382   4.807   0.991  15.826  0.1969 -0.3096 -0.3958
14656TIP3    H165383   4.884   0.980  15.882  0.5829 -1.3945 -1.1185
14656TIP3    H265384   4.740   1.027  15.884  1.0615  0.0692  0.3837
14657TIP3   OH265385   3.991   0.829   3.184  0.1825 -0.1222  0.3992
14657TIP3    H165386   3.980   0.902   3.124 -1.7067  1.9929  3.1493
14657TIP3    H265387   3.902   0.795   3.197  0.5818 -0.6848  1.7688
14658TIP3   OH265388   1.598   4.977  13.202 -0.3563  0.2363 -0.4623
14658TIP3    H165389   1.682   5.003  13.241 -0.9251 -2.7837  3.0210
14658TIP3    H265390   1.536   5.042  13.235  0.4069  1.9841 -2.3659
14659TIP3   OH265391   4.121   5.900   2.400 -0.1614  0.0453 -0.3071
14659TIP3    H165392   4.215   5.897   2.381 -0.0810  0.6981 -0.0246
14659TIP3    H265393   4.082   5.935   2.320 -0.0616  0.6792 -0.0781
14660TIP3   OH265394   6.534   6.485   4.466 -0.2454  0.4275 -0.1707
14660TIP3    H165395   6.569   6.519   4.548 -1.6110 -0.5536  0.8386
14660TIP3    H265396   6.485   6.558   4.428 -0.1619  0.6799  0.2066
14661TIP3   OH265397   0.630   3.835   3.914  1.2058  0.4120 -0.0179
14661TIP3    H165398   0.614   3.854   3.821  3.1321  1.9560 -0.0624
14661TIP3    H265399   0.628   3.740   3.920 -2.0242  0.3600 -1.0608
14662TIP3   OH265400   3.117   1.723  15.418 -0.5805 -0.3704 -0.0080
14662TIP3    H165401   3.055   1.650  15.426 -0.2520 -0.6532 -0.0526
14662TIP3    H265402   3.070   1.788  15.366 -0.2611 -1.2282 -1.3774
14663TIP3   OH265403   2.748   2.482  14.475 -0.4398 -0.4809  0.5230
14663TIP3    H165404   2.733   2.572  14.503  1.4213  0.0572 -0.0711
14663TIP3    H265405   2.810   2.447  14.539  0.5080 -0.6244 -0.4469
14664TIP3   OH265406   4.703   0.539  12.390 -0.0350  0.5916 -0.0459
14664TIP3    H165407   4.686   0.631  12.410 -0.5180  0.1581  1.5950
14664TIP3    H265408   4.651   0.491  12.455  1.4900 -0.8199  0.1388
14665TIP3   OH265409   1.069   0.498  14.169  0.1812 -0.4854 -0.2996
14665TIP3    H165410   0.990   0.527  14.215  1.8037 -0.0902  2.3915
14665TIP3    H265411   1.093   0.571  14.113 -0.0993  0.2998  0.5976
14666TIP3   OH265412   6.673   5.011  16.328  0.3122  0.0678 -0.0438
14666TIP3    H165413   6.724   5.072  16.381 -0.3459  0.0002  0.6759
14666TIP3    H265414   6.584   5.048  16.328  0.3634  0.2346 -1.3491
14667TIP3   OH265415   0.571   2.425   0.340  0.3506 -0.2764 -0.5957
14667TIP3    H165416   0.627   2.348   0.328 -0.3066 -1.0445  1.1891
14667TIP3    H265417   0.631   2.500   0.333  1.2650 -1.0088 -0.6771
14668TIP3   OH265418   6.240   0.303   3.551  0.1597  0.2033  0.1876
14668TIP3    H165419   6.306   0.234   3.548 -0.1404 -0.1862  2.3234
14668TIP3    H265420   6.180   0.282   3.480  1.5625 -0.1909 -0.9122
14669TIP3   OH265421   0.418   6.140   4.094 -1.0860 -0.5611  0.1995
14669TIP3    H165422   0.463   6.066   4.052 -2.1365 -1.5873  0.8444
14669TIP3    H265423   0.420   6.119   4.188  0.6859  1.4020  0.6383
14670TIP3   OH265424   0.432   0.488  12.550 -0.7834 -0.4122 -0.3321
14670TIP3    H165425   0.471   0.558  12.498  0.9348  0.1045  1.6056
14670TIP3    H265426   0.422   0.416  12.489  1.4266  0.1002 -1.3480
14671TIP3   OH265427   5.354   2.943   5.881  0.2478  0.9828  0.6614
14671TIP3    H165428   5.351   2.889   5.803 -1.8167  0.5632  1.0069
14671TIP3    H265429   5.377   2.882   5.952 -0.2309  0.8900  0.7438
14672TIP3   OH265430   4.557   6.238   2.130 -0.0593 -0.1454 -0.3893
14672TIP3    H165431   4.555   6.280   2.216  1.0999  0.3113 -0.5652
14672TIP3    H265432   4.643   6.262   2.095  0.4799 -2.3737 -0.6508
14673TIP3   OH265433   5.528   2.929  14.133 -0.0033 -0.2086  0.1703
14673TIP3    H165434   5.532   2.951  14.039 -2.3382  1.1109  0.3399
14673TIP3    H265435   5.619   2.935  14.163  0.6727  0.0831 -1.8437
14674TIP3   OH265436   6.037   3.900   4.745  0.3070 -0.7293  0.7142
14674TIP3    H165437   6.078   3.870   4.826  0.3904 -3.0944 -0.1565
14674TIP3    H265438   6.085   3.854   4.676 -0.9172 -0.1035 -0.5797
14675TIP3   OH265439   2.698   6.413   0.912  0.5983 -0.2436 -0.5046
14675TIP3    H165440   2.606   6.409   0.886  0.8293 -2.3732 -1.1572
14675TIP3    H265441   2.740   6.466   0.844  0.2099 -1.0321 -1.3712
14676TIP3   OH265442   6.451   4.712   0.397  0.1060 -0.1394 -0.1166
14676TIP3    H165443   6.406   4.629   0.417 -0.8009 -0.2208 -2.2876
14676TIP3    H265444   6.482   4.700   0.307 -0.2496  1.9814 -0.5304
14677TIP3   OH265445   1.718   5.262  16.905 -0.3721 -0.2907 -0.7030
14677TIP3    H165446   1.648   5.285  16.967 -0.5233  0.3360 -1.0993
14677TIP3    H265447   1.796   5.305  16.941 -0.3910 -0.1993 -0.7727
14678TIP3   OH265448   5.608   5.482   4.338  0.2363  0.3756  0.9158
14678TIP3    H165449   5.639   5.461   4.251 -0.0880 -0.7009  1.0438
14678TIP3    H265450   5.519   5.515   4.325  0.3261  0.5703  0.8062
14679TIP3   OH265451   0.324   3.253  17.080  0.5587 -0.2338 -0.3163
14679TIP3    H165452   0.409   3.209  17.069  0.5695 -0.3827  0.3644
14679TIP3    H265453   0.340   3.343  17.051  1.4195  0.2106  1.4542
14680TIP3   OH265454   6.744   3.766  16.735 -0.1138 -0.9675  0.2313
14680TIP3    H165455   6.808   3.701  16.706  0.5481  0.2826 -1.1465
14680TIP3    H265456   6.776   3.850  16.702 -0.9031  0.1088  2.0690
14681TIP3   OH265457   3.471   6.498   2.062 -0.2862  0.1591  0.2312
14681TIP3    H165458   3.386   6.528   2.094  0.6099  0.5626  2.3146
14681TIP3    H265459   3.503   6.438   2.130  2.1845  1.9418  0.7480
14682TIP3   OH265460   3.415   5.380  11.336 -0.4334 -0.3355  0.0002
14682TIP3    H165461   3.418   5.348  11.427 -2.8369 -1.5968 -0.3286
14682TIP3    H265462   3.472   5.319  11.288  1.1119  0.5331  0.6800
14683TIP3   OH265463   1.874   4.908   1.696  0.7007  0.1581  0.4245
14683TIP3    H165464   1.843   4.916   1.786 -0.0722  0.9528  0.0961
14683TIP3    H265465   1.813   4.848   1.654 -0.3727  1.6692 -0.2045
14684TIP3   OH265466   0.856   5.684  16.515  0.1817 -0.4014  0.6746
14684TIP3    H165467   0.930   5.644  16.561  0.3365 -2.9913 -1.6526
14684TIP3    H265468   0.780   5.661  16.568  0.8170  0.5052  1.9952
14685TIP3   OH265469   4.734   2.263  12.762  0.1613  0.0508 -0.7191
14685TIP3    H165470   4.778   2.247  12.679 -0.0783  0.1906 -0.8712
14685TIP3    H265471   4.643   2.240  12.746  0.3410 -1.1324 -0.1435
14686TIP3   OH265472   3.203   5.146   5.172 -0.0592  0.0243 -0.1460
14686TIP3    H165473   3.294   5.131   5.146  0.4527  1.8729  0.5101
14686TIP3    H265474   3.153   5.082   5.122  1.6986 -1.6768  0.2185
14687TIP3   OH265475   5.230   3.435   1.911 -0.0652  0.3187 -0.0121
14687TIP3    H165476   5.268   3.352   1.940  0.6981  1.2792  1.8188
14687TIP3    H265477   5.303   3.497   1.911 -0.4265  0.8000 -2.2610
14688TIP3   OH265478   1.689   1.224   4.136  1.2483  0.3189 -0.5441
14688TIP3    H165479   1.678   1.254   4.226  0.2140 -1.2713 -0.1108
14688TIP3    H265480   1.649   1.293   4.082  0.2960  0.4696  0.3361
14689TIP3   OH265481   5.876   0.084  15.067  0.6057  0.2316 -0.0462
14689TIP3    H165482   5.896   0.172  15.096 -0.1593  0.1791  0.6786
14689TIP3    H265483   5.960   0.039  15.066  0.9336  0.8408  0.0416
14690TIP3   OH265484   1.809   0.041   1.611 -0.5333  0.1147  0.4558
14690TIP3    H165485   1.713   0.047   1.607 -0.4865  0.0705 -1.8548
14690TIP3    H265486   1.832  -0.014   1.536  1.1923 -1.6729  2.2307
14691TIP3   OH265487   1.486   0.968   4.823  0.4667  0.2425 -0.3289
14691TIP3    H165488   1.470   0.916   4.901 -0.2298 -0.9166 -1.2289
14691TIP3    H265489   1.569   0.935   4.788 -1.0571 -1.8234 -2.1140
14692TIP3   OH265490   0.734   1.800   4.491 -0.0305  0.7590 -0.3056
14692TIP3    H165491   0.827   1.777   4.493 -0.2933 -0.2629  1.8489
14692TIP3    H265492   0.689   1.715   4.493 -0.9979  1.2766  0.9494
14693TIP3   OH265493   3.659   1.629  16.389 -0.0966  0.1722 -0.8699
14693TIP3    H165494   3.692   1.707  16.346  1.1589 -0.3820 -0.9148
14693TIP3    H265495   3.721   1.612  16.460 -0.3156 -0.8281 -0.9073
14694TIP3   OH265496   1.926   0.576   3.378  0.1800  0.0644  0.3227
14694TIP3    H165497   1.915   0.669   3.360 -0.8726 -0.0852  0.1674
14694TIP3    H265498   1.840   0.538   3.361  0.7168 -1.0031 -0.0278
14695TIP3   OH265499   4.901   5.862  15.985 -0.5418  0.2347  0.5406
14695TIP3    H165500   4.805   5.861  15.981 -0.5344  1.2444  0.0154
14695TIP3    H265501   4.927   5.776  15.952 -1.3188 -0.8717  2.7214
14696TIP3   OH265502   1.684   3.100  12.793 -0.4193 -0.4407  0.0013
14696TIP3    H165503   1.664   3.071  12.882 -0.5983  1.4870  0.6307
14696TIP3    H265504   1.681   3.196  12.799 -2.9669 -0.2944 -2.6516
14697TIP3   OH265505   3.213   0.571   2.297  0.0419 -0.1854  0.5054
14697TIP3    H165506   3.306   0.575   2.316  0.2275 -1.3747 -0.1116
14697TIP3    H265507   3.208   0.556   2.202 -0.8255  2.9218 -0.0327
14698TIP3   OH265508   4.174   1.437  10.714 -0.1985 -0.2348 -0.1763
14698TIP3    H165509   4.257   1.479  10.694 -0.8330  0.5992 -1.1709
14698TIP3    H265510   4.177   1.353  10.667 -0.2209  0.1311 -0.8388
14699TIP3   OH265511   5.546   0.966   4.984  0.6272  0.3570  0.3290
14699TIP3    H165512   5.533   0.878   5.019 -1.4566 -0.3773 -2.1341
14699TIP3    H265513   5.598   0.953   4.905 -2.1078  0.9746 -1.6255
14700TIP3   OH265514   4.415   2.530   0.988  0.0970  0.1974  0.2101
14700TIP3    H165515   4.483   2.470   0.957  0.0514  0.3087 -0.1144
14700TIP3    H265516   4.333   2.483   0.974  0.0545  0.3758 -0.1426
14701TIP3   OH265517   2.021   2.114  12.532 -0.2918  0.3049 -0.3784
14701TIP3    H165518   1.992   2.166  12.607  0.2828  0.7592 -0.4759
14701TIP3    H265519   1.962   2.139  12.461  2.0545  3.2727 -1.3394
14702TIP3   OH265520   5.077   5.685  16.571 -0.2009 -0.1650 -0.1930
14702TIP3    H165521   5.011   5.630  16.529  0.2453 -1.1017  0.3444
14702TIP3    H265522   5.027   5.756  16.611 -0.6900  0.4293 -1.7986
14703TIP3   OH265523   4.906   2.418   0.861 -0.5178  0.2406 -0.3919
14703TIP3    H165524   4.861   2.417   0.777  0.1149 -0.7670 -0.7296
14703TIP3    H265525   4.968   2.345   0.856 -0.3464  0.2826  0.8718
14704TIP3   OH265526   3.188   1.387  16.970 -0.0877 -0.4546 -0.1884
14704TIP3    H165527   3.152   1.304  16.938 -1.3302 -0.5169  1.3006
14704TIP3    H265528   3.113   1.445  16.975  0.2937 -0.0596  1.3335
14705TIP3   OH265529   1.419   6.031   4.412 -0.5221 -0.4523  0.5950
14705TIP3    H165530   1.442   5.939   4.423 -0.7979 -0.3681  2.0615
14705TIP3    H265531   1.450   6.073   4.492  2.0273  1.2344 -1.2179
14706TIP3   OH265532   2.521   1.794   1.474 -0.2063  0.6473 -0.1387
14706TIP3    H165533   2.472   1.877   1.470 -1.0352  0.1232 -0.8212
14706TIP3    H265534   2.541   1.773   1.383  2.3174  1.4373  0.1729
14707TIP3   OH265535   1.395   0.351  15.599 -0.2839  0.1442  0.3823
14707TIP3    H165536   1.366   0.436  15.566 -0.4737  0.4636  1.3562
14707TIP3    H265537   1.314   0.300  15.608 -0.2343  0.0593  0.3426
14708TIP3   OH265538   5.967   4.626   4.890 -0.4199  0.6215 -0.3028
14708TIP3    H165539   5.949   4.642   4.982 -0.3174 -1.7127  0.1537
14708TIP3    H265540   5.958   4.531   4.880  2.0673  0.5426 -2.1548
14709TIP3   OH265541   5.825   6.529  16.475  0.0369 -0.4860 -0.3026
14709TIP3    H165542   5.821   6.492  16.387 -0.2468 -2.0106  0.3344
14709TIP3    H265543   5.804   6.622  16.463 -0.7479 -0.8293 -1.7418
14710TIP3   OH265544   3.470   3.985   3.784 -0.4404  0.1390 -0.0251
14710TIP3    H165545   3.551   4.035   3.791 -0.9311  0.9839 -0.2301
14710TIP3    H265546   3.432   3.988   3.872  0.6476 -1.8235  0.5266
14711TIP3   OH265547   6.331   6.276  15.675  0.0534 -0.7056 -0.2480
14711TIP3    H165548   6.312   6.362  15.715  0.2734  0.0623 -1.7621
14711TIP3    H265549   6.247   6.230  15.676 -0.3188 -0.0406 -0.4367
14712TIP3   OH265550   4.027   1.084   0.117  0.0207 -0.1505 -0.1818
14712TIP3    H165551   4.021   0.988   0.118 -0.5873 -0.1096  0.4899
14712TIP3    H265552   4.116   1.103   0.147 -1.3753 -0.4040  4.6003
14713TIP3   OH265553   4.347   5.089   5.345  0.2655 -0.1098 -0.1784
14713TIP3    H165554   4.282   5.122   5.407 -2.9550 -1.7276 -2.5507
14713TIP3    H265555   4.370   5.165   5.291  0.4095  0.4848  0.7164
14714TIP3   OH265556   1.460   4.788  16.554  0.2341 -0.0356  0.2118
14714TIP3    H165557   1.475   4.706  16.600 -0.9069  0.2630  1.1385
14714TIP3    H265558   1.530   4.792  16.488  1.8694 -0.4700  1.8886
14715TIP3   OH265559   5.233   6.090   2.370  0.1785 -0.0692 -0.2037
14715TIP3    H165560   5.206   6.001   2.394 -1.1130  0.4651  0.3698
14715TIP3    H265561   5.303   6.111   2.432  1.1094 -1.0144 -0.9177
14716TIP3   OH265562   3.435   3.032   0.148  1.3206  0.4408  0.3866
14716TIP3    H165563   3.447   2.939   0.165  2.5053  0.3531 -0.8774
14716TIP3    H265564   3.354   3.037   0.098  0.6743  0.2078  1.3847
14717TIP3   OH265565   5.148   4.740   3.611  0.8059 -0.4222 -0.1972
14717TIP3    H165566   5.146   4.650   3.579 -0.1093 -1.4335  2.5532
14717TIP3    H265567   5.064   4.752   3.655  1.0388  1.6717 -0.2666
14718TIP3   OH265568   6.743   2.768   0.456 -0.1050  0.1690  0.3634
14718TIP3    H165569   6.793   2.818   0.521  1.3259 -1.1399  0.2817
14718TIP3    H265570   6.795   2.689   0.441 -0.3520  0.5051 -2.4772
14719TIP3   OH265571   4.889   0.968   6.802 -0.2533  0.1437 -0.4345
14719TIP3    H165572   4.863   0.923   6.722 -0.2333 -0.2945 -0.2018
14719TIP3    H265573   4.822   0.942   6.866 -0.6509  1.0323 -0.4851
14720TIP3   OH265574   3.508   4.138   5.006  0.2256 -0.1899  0.3876
14720TIP3    H165575   3.556   4.183   5.075  0.5329 -1.2696  0.9039
14720TIP3    H265576   3.426   4.185   4.999  0.4201  0.2674  1.1149
14721TIP3   OH265577   0.918   0.259  11.195 -0.3448  0.1747  0.5235
14721TIP3    H165578   0.838   0.310  11.177  1.1082  2.1573 -0.5326
14721TIP3    H265579   0.938   0.216  11.112  0.5106  0.9102  0.3361
14722TIP3   OH265580   0.697   4.757   1.374 -0.0801  0.3479  0.3091
14722TIP3    H165581   0.664   4.680   1.326  2.0721 -0.3327 -0.1467
14722TIP3    H265582   0.705   4.727   1.464  0.8124 -0.0011  0.1211
14723TIP3   OH265583   2.495   3.643  13.614 -0.4675  0.2100 -0.6455
14723TIP3    H165584   2.446   3.565  13.640 -0.0823  0.5884  1.2322
14723TIP3    H265585   2.438   3.716  13.639  0.9473  0.6520  1.4022
14724TIP3   OH265586   1.680   5.575   5.505  0.4006  0.4572 -0.4496
14724TIP3    H165587   1.725   5.636   5.563  1.1276  1.5793 -2.1496
14724TIP3    H265588   1.737   5.498   5.502  0.0296  0.1271  0.8340
14725TIP3   OH265589   0.603   2.246  13.016  0.3750  0.1135 -0.0998
14725TIP3    H165590   0.587   2.338  12.997 -1.7245 -0.5726 -1.7925
14725TIP3    H265591   0.693   2.244  13.051  0.9171  2.6067 -1.2608
14726TIP3   OH265592   2.526   4.644   0.438  0.1485 -0.1003  0.0938
14726TIP3    H165593   2.479   4.604   0.511  1.1259 -0.7227  0.3975
14726TIP3    H265594   2.458   4.689   0.387 -0.2924  1.8359  2.3273
14727TIP3   OH265595   5.730   2.820   0.061 -0.3029 -0.2905  0.3273
14727TIP3    H165596   5.793   2.875   0.108 -0.8228  0.7515 -0.1919
14727TIP3    H265597   5.762   2.731   0.076  1.8217  0.2608 -0.6521
14728TIP3   OH265598   2.392   1.018  13.145 -0.7704  0.5659  0.2444
14728TIP3    H165599   2.349   0.979  13.221  0.3328 -0.2281  0.4856
14728TIP3    H265600   2.375   0.958  13.073  0.0682  0.1421  0.3850
14729TIP3   OH265601   3.521   4.713   0.706  0.7387  0.0236 -0.4317
14729TIP3    H165602   3.567   4.660   0.771  0.8981  0.0719 -0.5052
14729TIP3    H265603   3.558   4.686   0.622  0.1689 -0.3994 -0.5428
14730TIP3   OH265604   4.813   2.307  15.254  0.2952  0.2732 -0.4770
14730TIP3    H165605   4.794   2.397  15.281 -1.3957  0.0506 -0.9064
14730TIP3    H265606   4.747   2.254  15.297  2.2610 -0.9937  1.0796
14731TIP3   OH265607   4.498   6.396   1.783 -0.0971  0.5295 -0.8088
14731TIP3    H165608   4.534   6.436   1.862 -2.7147  0.9879  0.1967
14731TIP3    H265609   4.477   6.471   1.726  0.0416  0.3057 -1.1534
14732TIP3   OH265610   4.564   5.509   1.552  0.5962  0.3762  0.3925
14732TIP3    H165611   4.485   5.563   1.550  0.9016  0.8126  0.1549
14732TIP3    H265612   4.533   5.420   1.531  0.5803  1.0590 -2.8027
14733TIP3   OH265613   4.293   4.892  14.684  0.6007  0.2762  0.0670
14733TIP3    H165614   4.331   4.926  14.765  1.2729  0.5547 -0.3666
14733TIP3    H265615   4.327   4.948  14.615  0.9925 -0.7010 -0.5504
14734TIP3   OH265616   1.168   0.083  12.477 -0.3070 -0.3386  0.3978
14734TIP3    H165617   1.143   0.095  12.568 -0.4476  2.6727  0.0077
14734TIP3    H265618   1.168   0.171  12.440 -0.5683 -1.5454 -2.6087
14735TIP3   OH265619   3.940   5.913   2.756  0.4926 -0.0384 -0.5536
14735TIP3    H165620   3.963   5.824   2.729  0.5498 -0.6192  1.3313
14735TIP3    H265621   3.870   5.901   2.820 -0.4508  1.3605 -1.3237
14736TIP3   OH265622   5.369   6.609   0.518  0.0897 -0.7986 -0.2570
14736TIP3    H165623   5.320   6.571   0.591 -2.4533  3.5795  0.5557
14736TIP3    H265624   5.307   6.608   0.444  0.0128  1.3024 -0.2775
14737TIP3   OH265625   2.356   2.341   4.584 -0.2196 -0.2551  0.5424
14737TIP3    H165626   2.380   2.250   4.572 -0.8785 -0.2907 -0.5297
14737TIP3    H265627   2.436   2.390   4.566 -0.4914 -0.4720 -1.3493
14738TIP3   OH265628   2.736   0.218   1.549  0.0841  0.1699  0.1404
14738TIP3    H165629   2.796   0.245   1.618  0.8475  0.1945 -0.5184
14738TIP3    H265630   2.709   0.300   1.507  0.3302  0.0953 -0.1656
14739TIP3   OH265631   3.917   3.847  10.910 -0.0896 -0.3481  0.4734
14739TIP3    H165632   3.985   3.903  10.871 -1.4707  1.2324  0.2643
14739TIP3    H265633   3.868   3.813  10.836 -1.1185  0.6065  0.6894
14740TIP3   OH265634   6.130   5.807  15.354 -0.0532 -0.6647 -0.3568
14740TIP3    H165635   6.139   5.764  15.439  0.3029 -0.4866 -0.3073
14740TIP3    H265636   6.109   5.898  15.376  2.7828  0.0462 -0.4267
14741TIP3   OH265637   6.208   5.947  15.929 -0.0154 -0.0821 -0.1033
14741TIP3    H165638   6.184   5.858  15.955 -1.2427  0.3635  0.3447
14741TIP3    H265639   6.195   5.949  15.834 -1.0878 -0.0679  0.0337
14742TIP3   OH265640   5.904   3.926   3.986  0.0538  0.3735  0.0033
14742TIP3    H165641   5.887   3.844   4.032 -1.9152  0.3945 -0.6147
14742TIP3    H265642   5.825   3.978   4.001  0.8848  1.7697 -0.4108
14743TIP3   OH265643   1.369   4.585   0.077 -0.3352  0.8644 -0.2158
14743TIP3    H165644   1.310   4.510   0.071 -0.1210  0.7294 -0.6528
14743TIP3    H265645   1.324   4.655   0.031  0.0278  0.6432 -0.9109
14744TIP3   OH265646   5.099   4.328  15.666  0.1326  0.1451  0.1415
14744TIP3    H165647   5.003   4.331  15.675  0.3504  0.8852  2.5624
14744TIP3    H265648   5.114   4.268  15.593 -2.2195  1.1212 -1.2184
14745TIP3   OH265649   3.720   4.738   5.636 -0.0410 -0.4793  0.5765
14745TIP3    H165650   3.687   4.790   5.562  0.7921 -0.2721  0.3551
14745TIP3    H265651   3.762   4.663   5.595  0.4803 -0.3315  0.8374
14746TIP3   OH265652   4.364   0.276   1.571  0.6158 -0.4954  0.4237
14746TIP3    H165653   4.338   0.368   1.572 -0.5357 -0.8150  2.7232
14746TIP3    H265654   4.429   0.271   1.501  1.1243  2.1740  0.6318
14747TIP3   OH265655   3.788   0.400  13.059  0.1554  0.1364 -0.0712
14747TIP3    H165656   3.734   0.324  13.083  0.7502 -0.6274 -1.1287
14747TIP3    H265657   3.750   0.473  13.108 -0.3667 -0.8635  1.0282
14748TIP3   OH265658   5.122   3.067   4.672  0.3011 -0.2948  0.0975
14748TIP3    H165659   5.068   2.990   4.689 -0.4370 -0.0918 -1.3261
14748TIP3    H265660   5.136   3.105   4.759 -1.6023 -0.5079  0.5221
14749TIP3   OH265661   0.121   4.974   2.385 -0.1082  0.3834  0.3590
14749TIP3    H165662   0.152   4.887   2.360 -0.5463  0.2568  0.2474
14749TIP3    H265663   0.033   4.958   2.420  0.0139  0.7163  0.8133
14750TIP3   OH265664   3.512   6.135  14.571 -0.1377 -0.4119 -0.3580
14750TIP3    H165665   3.596   6.137  14.525  0.6677  0.0781  1.0899
14750TIP3    H265666   3.496   6.226  14.596 -1.8000 -0.2781 -1.8321
14751TIP3   OH265667   3.978   1.485  15.470 -0.0374  0.2916 -0.7381
14751TIP3    H165668   3.904   1.505  15.527  0.4617 -2.3758  0.9501
14751TIP3    H265669   3.941   1.423  15.406  0.2217  0.6519 -1.2390
14752TIP3   OH265670   6.247   6.429  13.439 -0.3537  0.1696  0.1076
14752TIP3    H165671   6.330   6.407  13.397 -0.1857  0.0440  0.4970
14752TIP3    H265672   6.258   6.520  13.469 -0.7043  0.4690 -0.6737
14753TIP3   OH265673   4.176   0.446  14.824  0.0026 -0.7618 -0.0218
14753TIP3    H165674   4.247   0.382  14.815  1.0618  0.5164 -0.8267
14753TIP3    H265675   4.137   0.426  14.909  1.3613 -1.4570  0.4522
14754TIP3   OH265676   1.189   6.396  16.540 -0.1681  0.2638  0.5937
14754TIP3    H165677   1.201   6.392  16.635 -0.0994 -1.5693  0.5189
14754TIP3    H265678   1.144   6.479  16.525  1.1986  1.2929  2.0735
14755TIP3   OH265679   1.068   4.683  16.615 -0.0589  0.6726  0.3315
14755TIP3    H165680   1.030   4.770  16.605  0.0431  0.6722 -0.0496
14755TIP3    H265681   1.054   4.641  16.530  1.7540  1.0423 -0.1518
14756TIP3   OH265682   3.075   3.401   2.278 -0.4996  0.6360 -0.2646
14756TIP3    H165683   3.030   3.395   2.195 -0.5223  2.1323 -0.3808
14756TIP3    H265684   3.006   3.422   2.342 -0.6068 -1.2728  0.2748
14757TIP3   OH265685   5.612   6.385   1.180  0.8550  0.2189 -0.1405
14757TIP3    H165686   5.610   6.314   1.116 -1.6262  2.1105 -2.2552
14757TIP3    H265687   5.523   6.388   1.214  1.2876  1.4799  0.8804
14758TIP3   OH265688   4.663   1.476  11.110 -0.0024 -0.3026 -0.7446
14758TIP3    H165689   4.738   1.534  11.098 -0.8051  1.3120  1.5289
14758TIP3    H265690   4.684   1.424  11.188 -1.3789  0.4808  0.1889
14759TIP3   OH265691   0.740   5.607   1.107 -0.0839  0.0144  0.1891
14759TIP3    H165692   0.762   5.582   1.017  0.5554 -0.2151  0.4092
14759TIP3    H265693   0.729   5.525   1.153 -1.3966  0.1315  0.0874
14760TIP3   OH265694   2.982   6.045   4.594  0.6072 -0.6478  0.0731
14760TIP3    H165695   2.972   6.131   4.553  0.1473 -0.7148  0.0406
14760TIP3    H265696   2.991   6.063   4.687  0.1948 -0.5853  0.0992
14761TIP3   OH265697   4.301   1.783  11.996  0.1544  0.5829 -0.1391
14761TIP3    H165698   4.373   1.837  11.964  0.0847  1.2619  0.8198
14761TIP3    H265699   4.341   1.726  12.062 -0.0030  0.2909 -0.2931
14762TIP3   OH265700   1.507   4.877  12.737  0.4878 -0.2553 -0.3686
14762TIP3    H165701   1.530   4.836  12.820  0.3001 -1.0118 -0.6918
14762TIP3    H265702   1.489   4.969  12.760  1.3919 -0.2270  0.2708
14763TIP3   OH265703   1.246   5.610  14.150  0.0881 -0.4748 -0.2757
14763TIP3    H165704   1.331   5.651  14.136  0.1844  0.1676  1.9005
14763TIP3    H265705   1.256   5.521  14.118  0.1773  0.8331 -4.1855
14764TIP3   OH265706   1.009   6.753   5.366  0.1562  0.0833 -0.2525
14764TIP3    H165707   0.978   6.829   5.415  1.5219 -0.5852  1.7590
14764TIP3    H265708   1.100   6.741   5.396  0.9648 -0.4863 -2.8344
14765TIP3   OH265709   4.160   3.189   0.744 -0.3199  0.2078  0.3792
14765TIP3    H165710   4.135   3.099   0.725 -0.5454  0.5579 -1.0725
14765TIP3    H265711   4.078   3.232   0.769 -0.2766  0.0988  0.7076
14766TIP3   OH265712   4.941   6.606   0.472 -0.1024  0.2919  0.1976
14766TIP3    H165713   4.918   6.514   0.455  1.3138 -0.1488  0.6482
14766TIP3    H265714   5.028   6.616   0.435  0.1662  1.1967  1.0655
14767TIP3   OH265715   4.898   4.987  12.209 -0.4383 -0.5421 -0.1313
14767TIP3    H165716   4.809   4.979  12.175 -0.9917 -0.3480  1.2648
14767TIP3    H265717   4.918   5.081  12.202 -0.9079 -0.3562  0.9569
14768TIP3   OH265718   2.997   6.151  12.922  0.3193 -0.4914  0.0914
14768TIP3    H165719   2.974   6.198  12.842 -0.5119 -0.1062  0.5444
14768TIP3    H265720   3.048   6.215  12.973 -2.3674  0.5920  1.5099
14769TIP3   OH265721   0.844   6.618  11.249  0.1005  0.5559 -0.7406
14769TIP3    H165722   0.764   6.567  11.238  0.3272 -0.5406  2.1722
14769TIP3    H265723   0.915   6.552  11.248  0.6951  1.1827 -0.3064
14770TIP3   OH265724   2.456   4.521   3.065  0.0421 -0.2902  0.1705
14770TIP3    H165725   2.538   4.561   3.091  0.4099 -0.8983 -0.0410
14770TIP3    H265726   2.482   4.442   3.016 -0.6511 -1.4286  1.5909
14771TIP3   OH265727   3.352   2.483   1.477  0.4675 -0.4344  0.2477
14771TIP3    H165728   3.264   2.482   1.441 -0.1894 -0.0436  1.8258
14771TIP3    H265729   3.390   2.566   1.446 -0.1661 -0.0034  0.6198
14772TIP3   OH265730   2.746   4.207  16.476 -0.5995 -0.9625 -0.7698
14772TIP3    H165731   2.828   4.159  16.478 -0.0188  0.0484  0.5129
14772TIP3    H265732   2.689   4.160  16.538  0.2976  0.5146  1.2516
14773TIP3   OH265733   2.800   0.474  16.564 -0.4368 -0.0696 -0.5062
14773TIP3    H165734   2.754   0.445  16.643 -2.1872  0.5958 -1.2574
14773TIP3    H265735   2.869   0.531  16.597 -0.8028 -0.2374  0.5886
14774TIP3   OH265736   4.488   4.949  16.191 -0.6248  0.3378  0.2081
14774TIP3    H165737   4.565   4.901  16.220 -0.4138 -0.6076 -1.8540
14774TIP3    H265738   4.505   5.040  16.217 -0.1669 -0.3497  2.4084
14775TIP3   OH265739   0.269   5.325  13.084  0.4321  0.1471 -0.4604
14775TIP3    H165740   0.333   5.286  13.025 -0.6165 -1.3057 -0.6645
14775TIP3    H265741   0.282   5.280  13.168  0.0599  0.2491 -0.3436
14776TIP3   OH265742   2.551   5.603   0.970  0.0146  0.2331 -0.2449
14776TIP3    H165743   2.456   5.603   0.981 -0.0610 -1.4412 -0.8207
14776TIP3    H265744   2.565   5.640   0.883 -0.0681  1.0258  0.0726
14777TIP3   OH265745   1.504   6.461  16.133 -0.2817 -0.0274 -0.0398
14777TIP3    H165746   1.584   6.414  16.110  0.4327  1.1396  0.0468
14777TIP3    H265747   1.436   6.419  16.079  0.3057 -1.2570  0.1452
14778TIP3   OH265748   3.669   1.571   5.427  0.1399  0.4569  0.1416
14778TIP3    H165749   3.704   1.483   5.443 -2.5471 -0.2395  2.5070
14778TIP3    H265750   3.606   1.586   5.498 -1.4974  3.1963 -1.7691
14779TIP3   OH265751   4.504   1.524   2.523  0.1308 -0.3955  0.2830
14779TIP3    H165752   4.449   1.597   2.550 -0.5058 -0.7023 -0.1865
14779TIP3    H265753   4.478   1.505   2.433  0.7151 -0.8080  0.1944
14780TIP3   OH265754   0.587   0.435   0.308 -0.4056  0.3624 -0.4473
14780TIP3    H165755   0.656   0.407   0.369  0.0995  2.9791  0.2245
14780TIP3    H265756   0.632   0.453   0.226  0.0082  3.6084  0.4400
14781TIP3   OH265757   2.057   5.991  13.188 -0.0336  0.4175 -0.7173
14781TIP3    H165758   2.006   5.923  13.231 -0.2735  0.3874 -1.0516
14781TIP3    H265759   2.103   5.946  13.117  1.6219  0.1467  0.4856
14782TIP3   OH265760   5.878   4.321  12.198 -0.0039  0.0666 -0.0254
14782TIP3    H165761   5.901   4.326  12.290  1.9000 -2.6837 -0.2772
14782TIP3    H265762   5.874   4.227  12.179 -3.2415  0.5250 -2.0677
14783TIP3   OH265763   4.196   2.495  13.936  0.3034  0.5064  0.0131
14783TIP3    H165764   4.134   2.428  13.963 -0.2955  1.7574  1.8600
14783TIP3    H265765   4.255   2.451  13.876 -0.6182 -1.4392  0.5040
14784TIP3   OH265766   0.296   0.440   2.389  0.3348  0.0099 -0.1202
14784TIP3    H165767   0.302   0.535   2.376 -0.3119 -0.0498 -0.8494
14784TIP3    H265768   0.383   0.416   2.422  1.7451  0.3329 -3.3532
14785TIP3   OH265769   1.792   0.723  16.907 -0.2896 -0.1955 -0.2778
14785TIP3    H165770   1.792   0.725  17.002  2.6868  0.4225 -0.2346
14785TIP3    H265771   1.789   0.630  16.884 -0.5207 -0.3606  0.4294
14786TIP3   OH265772   5.826   3.302   2.132  0.2582  0.6778  0.0259
14786TIP3    H165773   5.908   3.329   2.089 -0.5108  2.1536 -0.5235
14786TIP3    H265774   5.844   3.312   2.226  1.5581 -1.4650  0.0478
14787TIP3   OH265775   6.624   1.378  12.360 -0.1001  0.3280  0.2143
14787TIP3    H165776   6.610   1.454  12.305 -0.3519  0.4862  0.4967
14787TIP3    H265777   6.703   1.337  12.325  0.0646  0.7468  0.0930
14788TIP3   OH265778   6.210   3.616  13.318 -0.4321 -0.2582 -0.6548
14788TIP3    H165779   6.225   3.531  13.277  1.2804  0.0443 -0.6917
14788TIP3    H265780   6.267   3.676  13.270  0.3086  0.4178  1.0594
14789TIP3   OH265781   5.368   6.757   4.950  0.1141 -0.1045 -0.4508
14789TIP3    H165782   5.393   6.665   4.942  0.3204  0.0053 -1.1224
14789TIP3    H265783   5.379   6.777   5.042  1.3895 -0.3771 -0.5361
14790TIP3   OH265784   5.728   1.074  13.543  0.0846  0.2072  0.0960
14790TIP3    H165785   5.719   0.996  13.489  0.2785  0.7398 -0.7177
14790TIP3    H265786   5.735   1.041  13.632  0.8315 -0.7492 -0.3016
14791TIP3   OH265787   6.400   3.751   1.028  0.8263 -0.7728 -0.1390
14791TIP3    H165788   6.376   3.755   0.935  0.6099  0.1713 -0.0496
14791TIP3    H265789   6.488   3.788   1.031  0.3570  0.3681  0.1826
14792TIP3   OH265790   5.000   0.130   5.113 -0.0709 -0.0235  0.2729
14792TIP3    H165791   4.996   0.127   5.208 -0.8818  0.7942  0.2778
14792TIP3    H265792   4.972   0.043   5.084  0.1168 -0.2489  0.7819
14793TIP3   OH265793   6.270   0.206  15.121 -0.3214 -0.2338  0.2028
14793TIP3    H165794   6.199   0.218  15.185 -0.6785 -1.1916 -0.0118
14793TIP3    H265795   6.289   0.113  15.122 -0.2964 -0.2561 -1.0550
14794TIP3   OH265796   2.716   1.898   0.358  0.0788 -0.1511 -0.1541
14794TIP3    H165797   2.664   1.837   0.410  0.1506  1.3793  1.7995
14794TIP3    H265798   2.805   1.888   0.392  0.1351  0.8492  0.0055
14795TIP3   OH265799   5.806   2.633  16.271  0.3539 -0.1339  0.0100
14795TIP3    H165800   5.839   2.722  16.259 -2.3949  0.8867 -0.3461
14795TIP3    H265801   5.806   2.595  16.183 -2.8074  1.1584 -0.6243
14796TIP3   OH265802   4.717   5.447   6.279 -0.0761  0.1854 -1.2044
14796TIP3    H165803   4.698   5.478   6.368  0.0959  0.3792 -1.2362
14796TIP3    H265804   4.694   5.354   6.282 -1.0770  0.4213 -1.2518
14797TIP3   OH265805   0.808   4.186   5.994  0.1138  0.2015 -0.5322
14797TIP3    H165806   0.897   4.185   5.959  0.4689  1.6876  0.3066
14797TIP3    H265807   0.759   4.128   5.936  1.4351  0.0336 -1.5052
14798TIP3   OH265808   0.174   3.061  14.364  0.5921 -0.0616 -1.1119
14798TIP3    H165809   0.130   3.113  14.432 -0.0542 -1.1322 -0.6850
14798TIP3    H265810   0.222   3.125  14.312  0.2383  0.9011 -0.2837
14799TIP3   OH265811   2.574   3.021  16.977  0.1093 -0.1553 -0.1202
14799TIP3    H165812   2.589   3.113  16.999  1.9194 -0.3564 -0.4243
14799TIP3    H265813   2.495   3.021  16.924 -0.1841  1.1679  0.3055
14800TIP3   OH265814   4.963   5.728   0.528  0.3874  0.2917 -0.4381
14800TIP3    H165815   4.876   5.694   0.504 -0.2893  2.1265 -0.6870
14800TIP3    H265816   5.019   5.650   0.532 -1.3789 -0.9887  0.2329
14801TIP3   OH265817   1.239   0.819   2.726  0.0261 -0.6321  0.2143
14801TIP3    H165818   1.275   0.871   2.799  0.7901 -0.6942 -0.1108
14801TIP3    H265819   1.223   0.733   2.763 -0.9401 -0.2636  0.6741
14802TIP3   OH265820   5.410   3.180  11.433 -0.4520  0.4512 -0.5990
14802TIP3    H165821   5.358   3.100  11.441  0.6840 -0.2735 -0.2943
14802TIP3    H265822   5.419   3.193  11.339 -0.7081  0.2552 -0.6502
14803TIP3   OH265823   6.096   6.388  16.522 -0.2591 -0.1697  0.4180
14803TIP3    H165824   6.030   6.433  16.470  0.8627 -1.5793 -2.3307
14803TIP3    H265825   6.056   6.304  16.544  0.2156 -0.6236 -0.4136
14804TIP3   OH265826   0.437   3.900   2.627 -0.3279  0.1446 -0.3441
14804TIP3    H165827   0.372   3.958   2.588 -0.6306 -0.6142 -0.9690
14804TIP3    H265828   0.387   3.824   2.658 -0.7373  2.3575  5.0396
14805TIP3   OH265829   0.627   2.039  13.482  0.5163  0.4861  0.3584
14805TIP3    H165830   0.574   2.099  13.429 -0.5082 -0.1528  0.6534
14805TIP3    H265831   0.643   1.964  13.423  2.7549  1.5342 -0.4035
14806TIP3   OH265832   2.085   2.331   2.920 -0.2656  0.3519 -0.5374
14806TIP3    H165833   2.060   2.251   2.875 -0.9713 -0.2160  0.8419
14806TIP3    H265834   2.143   2.303   2.991 -1.5818  0.8851  0.7867
14807TIP3   OH265835   5.497   6.530  14.347 -0.1144 -0.0074  0.0909
14807TIP3    H165836   5.582   6.550  14.387  0.3423 -1.4602 -0.1184
14807TIP3    H265837   5.439   6.600  14.378  0.9485  0.5409  0.9017
14808TIP3   OH265838   6.095   6.597  15.468 -0.2045  0.4880  0.0702
14808TIP3    H165839   6.145   6.658  15.413 -1.1619  0.8707 -0.3869
14808TIP3    H265840   6.012   6.642  15.485 -0.4927 -0.2391  0.6273
14809TIP3   OH265841   3.835   0.485   3.328 -0.1058 -0.5461 -0.5967
14809TIP3    H165842   3.881   0.441   3.256 -0.9010  0.2124 -1.6025
14809TIP3    H265843   3.831   0.577   3.301 -1.8634 -0.5331 -0.3728
14810TIP3   OH265844   6.139   3.997  14.408 -0.6413 -0.3138  0.0165
14810TIP3    H165845   6.091   3.915  14.398 -1.7287  0.3228 -0.1310
14810TIP3    H265846   6.137   4.036  14.320 -0.2199 -0.0925  0.1055
14811TIP3   OH265847   3.176   0.269   2.369  0.6108 -0.1919 -0.6610
14811TIP3    H165848   3.182   0.179   2.400  1.7526 -0.0296 -0.3882
14811TIP3    H265849   3.265   0.304   2.380 -0.5390  1.9668  2.2223
14812TIP3   OH265850   3.870   6.779   3.435  0.5007  0.4989  0.1293
14812TIP3    H165851   3.910   6.700   3.472  0.0762  0.0486 -0.3790
14812TIP3    H265852   3.807   6.747   3.371 -0.8462  1.1926  1.0709
14813TIP3   OH265853   0.584   1.930  13.051  0.4660  0.1125  0.1189
14813TIP3    H165854   0.558   1.910  13.141 -0.7984  2.5439  0.3376
14813TIP3    H265855   0.603   2.024  13.052  1.9633 -0.1443 -1.8068
14814TIP3   OH265856   1.032   5.211  14.243  0.1079  0.2354 -0.0241
14814TIP3    H165857   0.954   5.265  14.235 -0.6508 -0.9141 -0.4104
14814TIP3    H265858   1.009   5.146  14.310  1.4378  1.1059  1.3301
14815TIP3   OH265859   0.335   0.487   4.750  0.4068 -0.7102  0.4114
14815TIP3    H165860   0.383   0.405   4.755 -2.5241 -2.4556  1.0155
14815TIP3    H265861   0.314   0.509   4.841 -4.4191 -2.8354 -0.0253
14816TIP3   OH265862   0.725   1.220   2.996  0.4735  0.3358  0.2344
14816TIP3    H165863   0.789   1.151   2.977 -0.9435 -0.3086 -2.5353
14816TIP3    H265864   0.738   1.284   2.926 -3.0857 -0.7366 -1.5609
14817TIP3   OH265865   0.971   2.444   1.972 -0.0125 -0.1511 -0.3890
14817TIP3    H165866   0.965   2.354   2.004  1.7484 -0.1053  0.1589
14817TIP3    H265867   0.881   2.470   1.954 -0.4799 -2.2367 -1.1524
14818TIP3   OH265868   2.975   4.017   5.251  0.1432 -0.2996  0.5167
14818TIP3    H165869   2.922   4.036   5.173  0.4152  1.0767  0.6600
14818TIP3    H265870   3.055   4.066   5.238  0.7856 -1.2001  1.0086
14819TIP3   OH265871   1.570   6.271  10.928 -0.3970  0.3953  0.1697
14819TIP3    H165872   1.486   6.279  10.973 -1.5128 -2.9327 -1.1428
14819TIP3    H265873   1.569   6.342  10.863 -0.9909  2.0234  1.9012
14820TIP3   OH265874   1.692   4.610  10.731 -0.4283  0.1202 -0.0495
14820TIP3    H165875   1.769   4.666  10.739 -2.4220  3.0141 -0.4048
14820TIP3    H265876   1.687   4.564  10.814  1.5502  0.0839  0.0614
14821TIP3   OH265877   0.951   1.846  12.516  0.2321 -0.3188  0.6181
14821TIP3    H165878   0.913   1.758  12.513  0.4106 -0.4971  3.0104
14821TIP3    H265879   0.985   1.855  12.605  0.8846  1.9034  0.1783
14822TIP3   OH265880   1.058   5.456  11.943 -0.1122  1.1005 -0.3791
14822TIP3    H165881   1.083   5.467  12.035  0.0509  1.4126 -0.4600
14822TIP3    H265882   1.097   5.373  11.917 -1.3801  0.2975  0.2527
14823TIP3   OH265883   5.637   5.806   3.318 -0.1545  0.3821 -0.1437
14823TIP3    H165884   5.558   5.796   3.372  0.3463 -2.2846  0.1782
14823TIP3    H265885   5.696   5.858   3.372  0.0909 -1.7155  1.7107
14824TIP3   OH265886   3.491   4.011  16.533  0.0354 -0.0982 -0.2637
14824TIP3    H165887   3.509   4.079  16.598 -2.6640 -0.1415  0.5534
14824TIP3    H265888   3.461   4.059  16.456 -0.7583 -0.2846 -0.0735
14825TIP3   OH265889   3.272   1.093  13.638 -1.0323 -0.4200  0.2769
14825TIP3    H165890   3.244   1.017  13.587 -0.2213  0.1277 -1.0169
14825TIP3    H265891   3.237   1.168  13.589  0.8914  0.1740 -0.2212
14826TIP3   OH265892   5.455   2.734   3.639 -0.3088  0.2444 -0.1225
14826TIP3    H165893   5.444   2.802   3.704 -1.5343 -1.4933  1.5429
14826TIP3    H265894   5.493   2.660   3.687 -0.8285 -0.9275 -1.4664
14827TIP3   OH265895   6.108   1.105  15.417 -0.4530 -0.5529 -0.3534
14827TIP3    H165896   6.058   1.036  15.461 -1.2744 -0.1812 -0.7090
14827TIP3    H265897   6.090   1.092  15.324  1.0354 -1.1463 -0.5746
14828TIP3   OH265898   0.024   0.564   3.188  0.3813 -0.1260 -1.3571
14828TIP3    H165899   0.024   0.508   3.266 -0.8484 -1.1193 -2.0507
14828TIP3    H265900  -0.032   0.638   3.211  1.3186  0.4129 -0.7443
14829TIP3   OH265901   5.052   4.024  14.308 -0.1062 -0.4392  0.1437
14829TIP3    H165902   5.006   3.954  14.262 -0.1524 -0.5566  0.3702
14829TIP3    H265903   5.039   4.101  14.253 -1.4178 -0.2382  0.7124
14830TIP3   OH265904   3.853   5.862   4.347 -0.1469 -0.3331  0.7349
14830TIP3    H165905   3.776   5.811   4.375 -0.5839  0.2204  0.5541
14830TIP3    H265906   3.886   5.901   4.427  0.0764 -0.7545  0.8466
14831TIP3   OH265907   2.959   6.524  13.889  0.0899  0.1760 -0.1705
14831TIP3    H165908   3.017   6.466  13.938  2.4795  1.4969 -1.3349
14831TIP3    H265909   2.874   6.481  13.892  1.2046 -2.0392  1.2315
14832TIP3   OH265910   5.054   4.378  16.912 -0.3502  0.1708 -0.0158
14832TIP3    H165911   5.000   4.457  16.919 -0.1645  0.4188 -1.3795
14832TIP3    H265912   5.085   4.362  17.002 -0.5174  1.5554  0.2943
14833TIP3   OH265913   6.567   6.277  14.879 -0.2084 -0.2216  0.4962
14833TIP3    H165914   6.603   6.202  14.927  1.8861  0.3008 -0.1909
14833TIP3    H265915   6.638   6.341  14.879 -0.3783  0.0487 -2.6742
14834TIP3   OH265916   4.435   2.995  12.431 -0.1389  0.1721 -0.1807
14834TIP3    H165917   4.419   3.023  12.341  1.5344  1.2493 -0.1713
14834TIP3    H265918   4.448   2.900  12.424  0.1999  0.2755 -1.1090
14835TIP3   OH265919   5.201   6.134  15.256 -0.3310 -0.1428 -0.8537
14835TIP3    H165920   5.139   6.062  15.241 -0.1835 -0.2953 -0.7295
14835TIP3    H265921   5.215   6.171  15.169 -2.1429  1.1762 -0.6060
14836TIP3   OH265922   0.136   4.500   1.100 -0.1139 -0.6523  0.7510
14836TIP3    H165923   0.102   4.575   1.149  0.9860  0.8219 -0.6928
14836TIP3    H265924   0.228   4.495   1.125  0.9742  1.3380 -2.5605
14837TIP3   OH265925   4.451   3.710   5.710 -0.5787  0.1576  0.3885
14837TIP3    H165926   4.523   3.757   5.668 -0.1669  0.2130  1.1566
14837TIP3    H265927   4.493   3.638   5.757 -1.1640 -0.7422 -0.4294
14838TIP3   OH265928   1.339   6.134   0.545  0.3224  0.3088  0.6193
14838TIP3    H165929   1.278   6.206   0.526  0.2670 -0.0808 -0.7705
14838TIP3    H265930   1.423   6.164   0.510 -0.0682 -0.9660 -1.5033
14839TIP3   OH265931   5.203   3.841   4.313  0.3176 -0.3104  0.2430
14839TIP3    H165932   5.143   3.792   4.369  1.9046  0.5954  2.8410
14839TIP3    H265933   5.147   3.882   4.248 -1.7201 -0.5362  1.7979
14840TIP3   OH265934   4.552   5.802   0.447  0.4615 -0.3283  0.5853
14840TIP3    H165935   4.550   5.781   0.540 -0.0735  1.3202  0.9563
14840TIP3    H265936   4.558   5.897   0.444  1.9467 -0.4439 -1.0573
14841TIP3   OH265937   2.472   4.584  12.811  0.5992 -0.7603  0.3417
14841TIP3    H165938   2.443   4.509  12.760  0.2925 -1.0778  0.9819
14841TIP3    H265939   2.567   4.588  12.796  0.6886 -1.5553  0.6869
14842TIP3   OH265940   3.063   6.067  15.470  0.1243 -0.1161  0.1341
14842TIP3    H165941   3.003   6.121  15.418 -2.8260 -2.0914  1.3640
14842TIP3    H265942   3.128   6.037  15.407 -1.2083  0.6175 -1.6421
14843TIP3   OH265943   5.949   6.648   2.826 -0.5437 -0.3642  0.1571
14843TIP3    H165944   6.027   6.702   2.819 -0.0769 -1.3564 -2.6036
14843TIP3    H265945   5.908   6.677   2.908  0.1586  3.5213 -0.7428
14844TIP3   OH265946   3.575   0.736   6.356 -0.4835 -0.0908 -0.3351
14844TIP3    H165947   3.494   0.686   6.356 -1.5302  1.5134  1.4094
14844TIP3    H265948   3.641   0.676   6.390 -1.8124 -0.1783  2.1645
14845TIP3   OH265949   4.495   4.829   3.002 -0.0905  0.0271 -0.6198
14845TIP3    H165950   4.580   4.788   2.986  0.3064 -0.2628  1.9891
14845TIP3    H265951   4.453   4.773   3.067  0.0737  3.1716  2.3289
14846TIP3   OH265952   2.832   1.688   3.533 -0.1405 -0.3397  0.7976
14846TIP3    H165953   2.781   1.758   3.493 -2.2948 -1.5116  1.3928
14846TIP3    H265954   2.791   1.607   3.500  4.0760 -1.4430 -2.2344
14847TIP3   OH265955   4.435   6.393   0.736 -0.0543 -0.4095 -0.0510
14847TIP3    H165956   4.494   6.329   0.775  0.6730  0.8847  1.0033
14847TIP3    H265957   4.474   6.478   0.757 -1.3204  0.4009 -0.9141
14848TIP3   OH265958   1.041   2.821   5.807 -0.1233  0.0747 -0.4222
14848TIP3    H165959   1.056   2.727   5.812  2.5857  0.5134  0.7682
14848TIP3    H265960   0.958   2.836   5.852 -0.8610 -1.7826 -1.1316
14849TIP3   OH265961   5.443   6.072   3.443  0.1754 -0.3027 -0.5262
14849TIP3    H165962   5.493   6.147   3.410  0.4011 -0.2057  0.0301
14849TIP3    H265963   5.500   5.996   3.428  1.0634 -0.0301  1.3060
14850TIP3   OH265964   2.493   4.892   4.138 -0.2162 -0.0945 -0.4935
14850TIP3    H165965   2.475   4.860   4.226 -2.1382 -2.5331 -1.7133
14850TIP3    H265966   2.566   4.839   4.108  0.1940  0.4794 -0.5124
14851TIP3   OH265967   3.620   4.724  12.392  0.6490 -0.6650 -0.4612
14851TIP3    H165968   3.592   4.785  12.324  3.2253  1.1769  0.0466
14851TIP3    H265969   3.582   4.757  12.472  3.4080  1.3823  0.0984
14852TIP3   OH265970   6.680   0.382  16.420  0.1064 -0.1345  0.3975
14852TIP3    H165971   6.712   0.450  16.480 -2.3893  1.7872 -0.3562
14852TIP3    H265972   6.637   0.319  16.477 -1.5308  1.2586  0.7465
14853TIP3   OH265973   1.663   5.295   2.027  0.1756 -0.4498 -0.0191
14853TIP3    H165974   1.658   5.377   2.078  0.7023 -0.5775  0.2373
14853TIP3    H265975   1.615   5.315   1.947 -0.2630 -0.0940  0.3207
14854TIP3   OH265976   4.807   1.827  16.913  0.3424 -0.5771 -0.2949
14854TIP3    H165977   4.764   1.744  16.893  1.7463 -1.3506 -0.1581
14854TIP3    H265978   4.861   1.809  16.990 -0.0697  0.7140  0.3127
14855TIP3   OH265979   5.630   0.497   4.083  0.2453 -0.0263 -0.0187
14855TIP3    H165980   5.557   0.447   4.048 -1.5231  2.5600 -0.1284
14855TIP3    H265981   5.602   0.525   4.170  1.3047  0.5491  0.1568
14856TIP3   OH265982   1.160   0.567  13.285  0.2853 -0.7165  0.4721
14856TIP3    H165983   1.180   0.657  13.310  2.4787 -1.9788  3.6063
14856TIP3    H265984   1.088   0.541  13.343 -0.1321 -1.1071 -0.2044
14857TIP3   OH265985   2.056   1.480  15.224 -0.8475 -0.0221 -0.5284
14857TIP3    H165986   1.998   1.488  15.299 -2.4126  1.4005 -1.8208
14857TIP3    H265987   2.102   1.564  15.221  1.1254 -1.0649  0.3543
14858TIP3   OH265988   5.816   4.461  13.151  0.7128 -0.1399 -0.0041
14858TIP3    H165989   5.759   4.443  13.077 -2.0992  1.1709  1.7659
14858TIP3    H265990   5.839   4.374  13.186 -0.2247 -0.6686 -0.7028
14859TIP3   OH265991   5.307   4.134  15.814 -0.2057  0.2677  0.6144
14859TIP3    H165992   5.225   4.184  15.811  0.4567  1.3435  0.0535
14859TIP3    H265993   5.373   4.199  15.836  0.6173 -0.4324  0.2063
14860TIP3   OH265994   0.647   4.072  14.730  0.2029 -0.4629  0.1828
14860TIP3    H165995   0.629   4.165  14.735 -1.1034 -0.7095  0.1858
14860TIP3    H265996   0.583   4.031  14.787 -0.4430 -1.4995 -1.2387
14861TIP3   OH265997   6.566   4.269  15.741 -0.6591 -0.4875 -0.5675
14861TIP3    H165998   6.608   4.184  15.753 -0.7345 -0.5406 -0.6796
14861TIP3    H265999   6.483   4.263  15.788  0.3156  0.2788  1.3057
14862TIP3   OH266000   0.885   4.725   4.145 -0.2429  0.0995 -0.3011
14862TIP3    H166001   0.942   4.698   4.218 -1.1803  2.2312  1.2610
14862TIP3    H266002   0.827   4.650   4.132  0.3781 -0.5763  0.6930
14863TIP3   OH266003   3.531   0.031   2.665 -0.2820  0.1402  0.1013
14863TIP3    H166004   3.598   0.008   2.600 -2.4339 -2.4528 -1.2949
14863TIP3    H266005   3.581   0.063   2.740  2.5050 -1.3717 -1.0132
14864TIP3   OH266006   1.160   1.873   0.023 -0.2821  0.4925  0.6001
14864TIP3    H166007   1.254   1.889   0.014 -0.4515  0.1102 -2.3476
14864TIP3    H266008   1.153   1.810   0.095  1.9186 -1.2331 -0.6558
14865TIP3   OH266009   0.638   2.887   1.092  0.3285  0.0337  0.2932
14865TIP3    H166010   0.619   2.807   1.043 -2.5390  0.8899 -0.1073
14865TIP3    H266011   0.707   2.862   1.153  0.2539 -2.4578 -0.5894
14866TIP3   OH266012   3.390   5.016  16.669  0.0228  0.2881 -0.3252
14866TIP3    H166013   3.397   5.108  16.643 -1.3692  0.4795 -0.0599
14866TIP3    H266014   3.387   4.968  16.586 -1.3702  0.6571 -0.4968
14867TIP3   OH266015   0.050   3.993   4.428 -0.2707  0.3724  0.1489
14867TIP3    H166016   0.077   3.918   4.374 -1.2685  2.1182 -2.9085
14867TIP3    H266017  -0.042   3.978   4.447 -1.0824  1.8430 -2.3754
14868TIP3   OH266018   0.213   0.518  10.814 -0.1177  0.5933 -0.2604
14868TIP3    H166019   0.220   0.613  10.809  0.8565  0.5602  0.3903
14868TIP3    H266020   0.141   0.496  10.754 -0.1844  1.7107 -0.5978
14869TIP3   OH266021   1.545   3.436   4.894 -0.4910  0.3987 -0.3441
14869TIP3    H166022   1.509   3.525   4.894  0.1956  0.6857 -1.8672
14869TIP3    H266023   1.626   3.444   4.944 -1.3412  0.2338  1.0913
14870TIP3   OH266024   0.550   2.032  11.461  0.0312  0.0606  0.5495
14870TIP3    H166025   0.549   2.127  11.445  1.1370  0.1940  1.2439
14870TIP3    H266026   0.643   2.009  11.460 -0.2852 -1.2494 -0.9295
14871TIP3   OH266027   2.553   2.063   1.222  0.0245 -0.5383  0.1814
14871TIP3    H166028   2.588   2.111   1.297 -0.1375 -1.2829  0.7458
14871TIP3    H266029   2.521   2.131   1.163 -0.0259  0.0561  0.8792
14872TIP3   OH266030   0.506   5.995  15.833 -0.7879  0.0863 -0.0641
14872TIP3    H166031   0.421   6.032  15.812 -0.2598  1.4352  0.1207
14872TIP3    H266032   0.544   6.056  15.896  0.7018  0.0098 -0.8557
14873TIP3   OH266033   2.741   0.907  12.600  0.1915  0.0211  0.0630
14873TIP3    H166034   2.712   0.896  12.691 -0.7529  2.5660  0.1284
14873TIP3    H266035   2.669   0.871  12.548 -1.5485  2.8903  0.3053
14874TIP3   OH266036   6.613   1.085   2.117  0.9900  0.0668 -0.0350
14874TIP3    H166037   6.532   1.130   2.142  1.2611 -0.2262  1.3901
14874TIP3    H266038   6.675   1.156   2.101  0.4056  0.2996 -1.3284
14875TIP3   OH266039   3.189   2.160   5.442 -0.2943 -0.5659  0.8713
14875TIP3    H166040   3.112   2.124   5.398  0.5402 -1.1379 -0.1738
14875TIP3    H266041   3.200   2.107   5.521 -0.6641 -0.8328  0.7422
14876TIP3   OH266042   5.403   1.118  16.328  0.9502  0.3868  0.0913
14876TIP3    H166043   5.493   1.098  16.355  0.8117  0.1577  0.3829
14876TIP3    H266044   5.377   1.192  16.382  0.4407 -0.4889  1.0749
14877TIP3   OH266045   5.328   6.708   5.565 -0.5133 -0.3417  0.3625
14877TIP3    H166046   5.277   6.631   5.591 -1.3201  0.0629  0.0033
14877TIP3    H266047   5.315   6.771   5.637  0.4225 -0.6617  0.8177
14878TIP3   OH266048   5.988   3.762  15.500 -0.2326 -0.2461 -0.7144
14878TIP3    H166049   5.969   3.838  15.445  1.4634  0.6914 -0.0395
14878TIP3    H266050   5.989   3.796  15.589  0.7961 -1.0098 -0.4318
14879TIP3   OH266051   1.466   6.687  16.661 -0.0685  0.2905 -0.5088
14879TIP3    H166052   1.542   6.730  16.701  0.3997 -1.1967  0.2773
14879TIP3    H266053   1.462   6.602  16.705 -2.2980  0.4144 -0.4224
14880TIP3   OH266054   6.300   3.974  11.101 -0.6720 -0.6290  0.3847
14880TIP3    H166055   6.304   4.069  11.090 -1.0090 -0.7790 -1.1552
14880TIP3    H266056   6.227   3.947  11.045 -1.3310 -1.6675  1.7208
14881TIP3   OH266057   4.528   6.404  14.920  0.0551  0.0407  0.0052
14881TIP3    H166058   4.499   6.316  14.947 -0.1460 -0.1022 -0.6780
14881TIP3    H266059   4.447   6.453  14.909  0.1567  0.2215  0.0764
14882TIP3   OH266060   0.674   4.623   2.015 -0.1890  0.0251 -0.8945
14882TIP3    H166061   0.615   4.564   2.061  0.4149 -1.6131 -2.1777
14882TIP3    H266062   0.616   4.684   1.969 -0.8614 -0.6953 -1.0157
14883TIP3   OH266063   2.145   5.803   2.100 -0.2747  0.5516 -0.8483
14883TIP3    H166064   2.109   5.830   2.184 -1.3444  1.1763 -1.5008
14883TIP3    H266065   2.089   5.731   2.071  0.8747 -0.5419 -0.4376
14884TIP3   OH266066   6.019   4.067   5.945  0.2562 -0.1879  0.6158
14884TIP3    H166067   5.962   4.052   6.020 -1.3113 -1.0968 -0.7160
14884TIP3    H266068   5.988   4.005   5.879  0.6027  1.6251 -1.3107
14885TIP3   OH266069   2.313   2.969  11.441  0.2665  0.1107  0.2354
14885TIP3    H166070   2.367   2.983  11.519 -2.4286 -0.3388  2.2475
14885TIP3    H266071   2.369   2.918  11.383  2.0956 -0.1745  2.1708
14886TIP3   OH266072   2.185   2.632   1.483 -0.6958 -0.7876 -0.0498
14886TIP3    H166073   2.124   2.684   1.535  0.4158 -0.3043  0.8215
14886TIP3    H266074   2.256   2.612   1.544  1.6007  1.4735 -1.8496
14887TIP3   OH266075   2.470   4.325   5.401  0.0992 -0.5431 -0.0460
14887TIP3    H166076   2.406   4.287   5.462  0.3096 -1.4802 -0.4074
14887TIP3    H266077   2.471   4.418   5.423  0.1308 -0.8628  1.3562
14888TIP3   OH266078   2.861   6.377   2.227 -0.6151  0.3778  0.4649
14888TIP3    H166079   2.923   6.403   2.296 -0.5256  0.6051  0.2991
14888TIP3    H266080   2.776   6.374   2.271 -0.2585 -1.4673  1.0644
14889TIP3   OH266081   1.798   3.564  13.213 -0.6193 -0.2578 -0.6968
14889TIP3    H166082   1.853   3.485  13.214 -1.0282 -0.5415  0.0062
14889TIP3    H266083   1.747   3.557  13.132 -1.1618 -1.0794 -0.2985
14890TIP3   OH266084   5.632   0.554   5.233  0.0415  0.5288  0.3603
14890TIP3    H166085   5.697   0.571   5.302 -0.7158  2.6096  0.5729
14890TIP3    H266086   5.577   0.484   5.270  0.6939  0.4246  1.1523
14891TIP3   OH266087   4.268   0.022   1.612  0.5915 -0.1390  0.7132
14891TIP3    H166088   4.285   0.116   1.615 -1.8538  0.3666 -0.7577
14891TIP3    H266089   4.269   0.000   1.519 -0.2481 -1.3198  0.9770
14892TIP3   OH266090   3.388   6.548  15.120 -0.7120 -0.2117  0.6717
14892TIP3    H166091   3.480   6.522  15.125 -0.7229 -0.1054  1.7077
14892TIP3    H266092   3.348   6.484  15.062 -0.0999 -0.6123  0.6804
14893TIP3   OH266093   1.612   1.227   1.498 -0.2250  0.3454 -0.0436
14893TIP3    H166094   1.556   1.252   1.572 -1.4461  0.2285 -0.9060
14893TIP3    H266095   1.657   1.308   1.473  1.0102  0.1405  1.5083
14894TIP3   OH266096   2.173   4.121   1.194  0.0203  0.9514  0.6033
14894TIP3    H166097   2.082   4.136   1.217  0.2109  3.3956 -0.0187
14894TIP3    H266098   2.201   4.204   1.154  2.6206  0.3983  1.1803
14895TIP3   OH266099   5.329   6.722  16.089  0.4018 -0.0134 -0.1080
14895TIP3    H166100   5.244   6.767  16.093  1.2659  1.7077 -0.5442
14895TIP3    H266101   5.353   6.709  16.180 -0.6937 -1.2218  0.0145
14896TIP3   OH266102   5.629   1.812   6.233 -0.1886  0.0518 -0.2303
14896TIP3    H166103   5.555   1.869   6.258 -0.0006  0.5390 -0.7733
14896TIP3    H266104   5.593   1.724   6.237 -0.8070  0.2883 -0.5096
14897TIP3   OH266105   3.111   0.000   2.446 -0.4205 -0.7056 -0.0619
14897TIP3    H166106   3.040  -0.020   2.507 -2.7478  0.5413 -2.2356
14897TIP3    H266107   3.088  -0.047   2.366  1.7537 -1.1032 -0.4823
14898TIP3   OH266108   4.042   0.578  13.929  0.4219  0.0504 -0.5043
14898TIP3    H166109   4.117   0.603  13.983  0.2994 -1.3536  0.3464
14898TIP3    H266110   4.029   0.485  13.948 -0.5607 -0.0989 -1.8308
14899TIP3   OH266111   6.206   1.021  13.808 -0.1486 -0.7744  0.2110
14899TIP3    H166112   6.245   1.000  13.893 -0.0767  0.3296  0.4541
14899TIP3    H266113   6.228   1.113  13.793 -1.4587 -0.5201 -0.2841
14900TIP3   OH266114   2.199   6.690  11.719  0.6167 -0.8972  0.1907
14900TIP3    H166115   2.114   6.649  11.700  0.1055 -1.2842  3.0812
14900TIP3    H266116   2.188   6.730  11.806  2.9769  0.2342  0.0192
14901TIP3   OH266117   5.481   5.320   5.146 -0.2578 -0.0716  0.3367
14901TIP3    H166118   5.425   5.395   5.126 -0.9055 -0.6862 -0.1498
14901TIP3    H266119   5.425   5.259   5.194  0.0833 -0.5470  0.1340
14902TIP3   OH266120   0.263   3.066  12.761  0.6062  0.5495 -0.0457
14902TIP3    H166121   0.197   3.003  12.733  1.0562 -0.2464  0.6815
14902TIP3    H266122   0.315   3.083  12.682  0.6800 -0.2320 -0.1723
14903TIP3   OH266123   5.201   1.316   3.387  0.3848 -0.5348  0.1604
14903TIP3    H166124   5.233   1.370   3.459 -1.1644 -2.3771  2.3260
14903TIP3    H266125   5.190   1.229   3.426 -3.2123 -0.9265 -1.4915
14904TIP3   OH266126   3.222   6.315   3.905  0.4815  0.1253 -0.1214
14904TIP3    H166127   3.223   6.399   3.950  1.1603  0.4523 -0.7402
14904TIP3    H266128   3.129   6.297   3.888  0.3234  0.6422  0.2085
14905TIP3   OH266129   6.458   1.791   0.341 -0.4624 -0.1363 -0.4613
14905TIP3    H166130   6.408   1.871   0.325 -0.7213  0.0400  1.1981
14905TIP3    H266131   6.471   1.753   0.254  1.3877  2.7338 -1.5049
14906TIP3   OH266132   1.558   0.393  14.648  0.6906  0.4471  0.2038
14906TIP3    H166133   1.607   0.324  14.691 -0.1578  1.2463  2.5236
14906TIP3    H266134   1.466   0.372  14.664  0.3764  1.1499 -0.6002
14907TIP3   OH266135   5.907   5.653  13.887 -0.0578 -0.1273 -0.3957
14907TIP3    H166136   5.984   5.599  13.908  0.7539  1.3819  0.5746
14907TIP3    H266137   5.852   5.595  13.835  1.1314 -1.6728 -0.0031
14908TIP3   OH266138   2.285   3.731   5.585 -0.3052 -0.0511 -0.1148
14908TIP3    H166139   2.198   3.763   5.610 -0.7196 -2.2055  1.2682
14908TIP3    H266140   2.321   3.694   5.665  0.4389 -2.3824 -1.4751
14909TIP3   OH266141   3.535   1.083   2.252 -0.2212 -0.6850 -0.5029
14909TIP3    H166142   3.565   1.174   2.244 -0.9302 -0.4496 -0.4823
14909TIP3    H266143   3.471   1.073   2.182 -0.8869 -0.8730  0.1335
14910TIP3   OH266144   3.746   5.491  16.468  0.4681  0.2711 -0.0315
14910TIP3    H166145   3.721   5.495  16.376 -0.6088  0.6193  0.2663
14910TIP3    H266146   3.732   5.399  16.492  0.9562  0.1329 -0.2612
14911TIP3   OH266147   6.567   3.311  15.474 -0.2528  0.0141  0.2465
14911TIP3    H166148   6.529   3.233  15.433  0.2283  0.3013 -0.7603
14911TIP3    H266149   6.500   3.341  15.535 -0.6739 -0.8627  0.2212
14912TIP3   OH266150   5.319   3.112   3.982  0.0525  0.0043 -0.0089
14912TIP3    H166151   5.277   3.135   3.899  1.2202  1.2733 -0.2473
14912TIP3    H266152   5.404   3.076   3.957  0.5362  0.6753  0.6507
14913TIP3   OH266153   6.468   0.811   4.135  0.2236 -0.0942  0.1933
14913TIP3    H166154   6.409   0.739   4.113 -1.0094  1.3266 -1.2742
14913TIP3    H266155   6.428   0.851   4.213 -1.5265  1.6908 -1.5841
14914TIP3   OH266156   0.299   0.268   3.277  0.1310  0.1258 -0.0664
14914TIP3    H166157   0.304   0.256   3.372 -2.1847  2.0984  0.3514
14914TIP3    H266158   0.238   0.201   3.247 -0.0429  0.2518  0.0052
14915TIP3   OH266159   4.741   2.082  15.077 -0.3270  0.1861  0.5074
14915TIP3    H166160   4.795   2.043  15.146 -1.7720 -0.8139  1.1065
14915TIP3    H266161   4.761   2.176  15.081 -0.2452  0.1155  2.1698
14916TIP3   OH266162   1.834   1.368   5.161  0.3073 -0.3182 -0.3108
14916TIP3    H166163   1.838   1.302   5.091 -4.0073  0.9854 -1.9803
14916TIP3    H266164   1.832   1.317   5.242 -1.2013 -2.1972 -1.4743
14917TIP3   OH266165   1.934   3.367   5.887  0.5593 -0.1600  0.1871
14917TIP3    H166166   1.942   3.322   5.802  0.5234 -0.5506  0.3887
14917TIP3    H266167   1.847   3.343   5.918  0.6307 -0.1353  0.4021
14918TIP3   OH266168   3.506   0.721   2.928 -0.8470 -0.3699 -0.0043
14918TIP3    H166169   3.596   0.692   2.943  0.0475  1.4168 -1.7433
14918TIP3    H266170   3.497   0.726   2.833 -2.1780  1.2518  0.1812
14919TIP3   OH266171   6.146   0.058   2.870 -0.3063  0.0494  0.1582
14919TIP3    H166172   6.226   0.005   2.871 -0.3405  0.0029  1.0786
14919TIP3    H266173   6.176   0.147   2.886 -0.2585  0.3168 -1.2925
14920TIP3   OH266174   3.046   1.739   0.165  0.2329  0.3387  0.2622
14920TIP3    H166175   2.979   1.672   0.151 -0.0000  0.1989  1.8933
14920TIP3    H266176   3.035   1.799   0.092  0.2767 -1.2505 -1.0961
14921TIP3   OH266177   2.164   6.388   3.254 -1.0780  0.2787  0.6686
14921TIP3    H166178   2.147   6.349   3.169  0.1665 -0.5116  0.7624
14921TIP3    H266179   2.089   6.363   3.308 -1.0052 -0.7189  0.3050
14922TIP3   OH266180   4.486   2.794   2.531  0.9718  0.2109  0.0757
14922TIP3    H166181   4.517   2.854   2.599  2.7886  0.8594 -1.3209
14922TIP3    H266182   4.434   2.849   2.472  0.8198 -0.0247 -0.0121
14923TIP3   OH266183   6.652   6.695  16.826 -0.9521  0.0472 -0.2274
14923TIP3    H166184   6.568   6.696  16.872 -0.0723 -0.0957  1.3943
14923TIP3    H266185   6.709   6.752  16.878 -0.3651  1.1214 -1.9781
14924TIP3   OH266186   6.464   1.621   4.151 -0.5800  0.2124  0.4215
14924TIP3    H166187   6.519   1.543   4.141  0.5994  0.8676  1.5966
14924TIP3    H266188   6.496   1.681   4.084 -2.3912 -0.7903 -1.3856
14925TIP3   OH266189   0.027   2.833  13.137  0.9854  0.2918  0.5721
14925TIP3    H166190  -0.020   2.753  13.159  0.8333  0.5837  1.3197
14925TIP3    H266191  -0.024   2.903  13.177 -1.2058  1.2139 -3.5280
14926TIP3   OH266192   5.106   0.489   4.540  0.3307  0.0250  0.2466
14926TIP3    H166193   5.193   0.448   4.545 -0.0102 -0.8981 -1.2629
14926TIP3    H266194   5.071   0.461   4.456 -0.6929  1.8842  0.0259
14927TIP3   OH266195   0.381   3.947   0.548 -0.5697 -0.5738  0.5743
14927TIP3    H166196   0.368   3.964   0.642  0.2545 -1.5534  0.8688
14927TIP3    H266197   0.443   3.874   0.545  0.6408  0.4808 -0.7558
14928TIP3   OH266198   0.339   4.119   3.734 -0.2972 -0.1429 -0.3695
14928TIP3    H166199   0.273   4.104   3.802  0.0823  0.2029  0.0845
14928TIP3    H266200   0.320   4.054   3.667 -1.5793  0.4491 -0.6010
14929TIP3   OH266201   1.121   1.626   6.675  0.4081  0.0489 -0.0381
14929TIP3    H166202   1.115   1.532   6.657  2.7058  0.0171 -0.8607
14929TIP3    H266203   1.198   1.654   6.627 -0.2469  2.3740  0.2273
14930TIP3   OH266204   4.449   0.349  12.349  0.5772 -0.1552 -0.1380
14930TIP3    H166205   4.360   0.374  12.326  0.0413  1.2814  3.2735
14930TIP3    H266206   4.504   0.395  12.285 -0.9072  2.4284  0.3792
14931TIP3   OH266207   4.477   5.508  15.471  0.0100 -0.2852 -0.0771
14931TIP3    H166208   4.512   5.595  15.490 -0.1721 -0.1867 -0.1797
14931TIP3    H266209   4.515   5.485  15.386 -1.3151  0.4557 -0.8939
14932TIP3   OH266210   0.847   1.146  14.109 -0.3774  0.0218  0.4390
14932TIP3    H166211   0.913   1.087  14.075 -1.0820  0.1402 -1.1661
14932TIP3    H266212   0.823   1.202  14.035  0.0370  2.1169  1.8162
14933TIP3   OH266213   0.860   1.839  13.075  0.1084  0.3557 -0.2584
14933TIP3    H166214   0.918   1.902  13.033  1.6557 -1.9531 -1.7301
14933TIP3    H266215   0.777   1.848  13.029 -0.1260  2.2509  0.4819
14934TIP3   OH266216   0.006   1.338  15.488 -0.1456  0.3227 -0.6975
14934TIP3    H166217   0.065   1.411  15.471 -0.8645  1.1436  0.2584
14934TIP3    H266218  -0.067   1.351  15.427 -0.8894  1.1422  0.3344
14935TIP3   OH266219   1.841   4.365   1.218 -0.0916 -0.1629 -0.3146
14935TIP3    H166220   1.842   4.296   1.151 -2.0550  0.0311 -0.5768
14935TIP3    H266221   1.796   4.438   1.176  0.2750  0.6057  0.6205
14936TIP3   OH266222   3.653   2.635  11.196  0.2869  0.2251  0.0090
14936TIP3    H166223   3.605   2.714  11.221 -3.2489 -1.2546 -1.6502
14936TIP3    H266224   3.655   2.582  11.275  0.0252  0.7577  0.3733
14937TIP3   OH266225   1.483   2.597  11.481  0.2921  0.1340 -0.7039
14937TIP3    H166226   1.497   2.661  11.551  1.4477 -1.1523  0.2611
14937TIP3    H266227   1.408   2.545  11.511  1.7149 -1.3804  0.3244
14938TIP3   OH266228   1.555   1.211  14.960 -0.1505 -0.3946  0.4934
14938TIP3    H166229   1.586   1.127  14.995  0.6881 -0.3313 -0.0694
14938TIP3    H266230   1.465   1.194  14.932  0.6690 -1.6772 -1.4892
14939TIP3   OH266231   4.321   0.850   5.416 -0.1067 -0.2793 -0.5163
14939TIP3    H166232   4.318   0.776   5.477  1.1517  1.0381  1.1860
14939TIP3    H266233   4.231   0.860   5.386 -0.9111 -0.4897  1.7249
14940TIP3   OH266234   6.542   5.453   3.008  0.0100  0.2458  0.2371
14940TIP3    H166235   6.593   5.439   3.088  0.3831 -1.9637 -0.3377
14940TIP3    H266236   6.527   5.547   3.005  0.3545  0.4198  2.6801
14941TIP3   OH266237   0.183   0.972   1.178 -0.2318 -0.2751  0.3026
14941TIP3    H166238   0.148   1.060   1.161  0.0002  0.2811  2.6184
14941TIP3    H266239   0.192   0.933   1.091 -2.4528  1.1766 -0.6164
14942TIP3   OH266240   2.312   3.362  12.983  0.3963  0.2167  0.0304
14942TIP3    H166241   2.332   3.367  12.890  0.1566 -1.1817 -0.1135
14942TIP3    H266242   2.262   3.280  12.993 -1.9944  1.7075  0.9504
14943TIP3   OH266243   2.800   1.417  12.159  0.3479  0.1167 -0.4452
14943TIP3    H166244   2.884   1.375  12.179  1.1168  0.8108 -2.1618
14943TIP3    H266245   2.819   1.511  12.165 -0.5749  0.2715  0.1792
14944TIP3   OH266246   0.463   4.064   0.085 -0.9248 -0.5974  0.5931
14944TIP3    H166247   0.528   4.096   0.148  0.5420  0.6053 -1.4793
14944TIP3    H266248   0.385   4.047   0.138  0.3587  0.1258  2.7734
14945TIP3   OH266249   0.504   5.136  15.153  0.2821  0.5239 -0.5502
14945TIP3    H166250   0.525   5.150  15.061 -0.2918  1.2673 -0.5768
14945TIP3    H266251   0.475   5.222  15.184  0.0193  0.1702  0.2001
14946TIP3   OH266252   4.439   6.061   3.666  0.4700 -0.6415  0.0048
14946TIP3    H166253   4.349   6.056   3.700  1.3069 -0.0040  2.3660
14946TIP3    H266254   4.432   6.117   3.589 -1.0220  0.1148  0.6727
14947TIP3   OH266255   5.019   0.384  15.000 -0.2174  0.1006  0.7004
14947TIP3    H166256   5.114   0.387  14.991 -0.1870  0.5907  1.1521
14947TIP3    H266257   4.987   0.428  14.921 -0.0853 -0.6233  0.2445
14948TIP3   OH266258   2.158   3.833  15.841  0.0169  0.2962  0.1399
14948TIP3    H166259   2.125   3.886  15.914 -0.6636  0.6071 -0.3814
14948TIP3    H266260   2.107   3.752  15.845  1.8890 -0.8265  1.6567
14949TIP3   OH266261   4.485   5.949  12.588  0.4095 -0.3798 -0.4306
14949TIP3    H166262   4.412   5.887  12.592  0.1943 -0.0474  1.3743
14949TIP3    H266263   4.478   5.990  12.502 -0.2395 -1.9075 -1.1093
14950TIP3   OH266264   3.652   2.533  16.005 -0.0052  0.7748 -0.1110
14950TIP3    H166265   3.730   2.529  16.062  0.1542  1.5738 -0.2679
14950TIP3    H266266   3.583   2.564  16.063 -0.1418  0.3530 -0.0451
14951TIP3   OH266267   2.280   5.093   1.565 -0.1511 -0.1856  0.4376
14951TIP3    H166268   2.304   5.047   1.485 -1.8081 -0.9792  0.3739
14951TIP3    H266269   2.310   5.036   1.636 -0.4849 -0.4368  0.3743
14952TIP3   OH266270   3.640   4.003   4.292  0.6897 -0.3573 -0.6289
14952TIP3    H166271   3.618   3.997   4.385  1.4238 -1.8391 -0.5290
14952TIP3    H266272   3.713   3.942   4.281  0.2063 -0.6628 -2.3018
14953TIP3   OH266273   2.662   1.676   4.922 -0.1409 -0.2515  0.5105
14953TIP3    H166274   2.590   1.690   4.983 -0.8041 -1.4174  0.0105
14953TIP3    H266275   2.708   1.599   4.956  0.7111  0.3168  0.6714
14954TIP3   OH266276   4.570   0.721  14.279 -0.3022  0.7585  0.4768
14954TIP3    H166277   4.660   0.714  14.249  0.3086  2.7518  1.7474
14954TIP3    H266278   4.564   0.664  14.355 -0.0696  0.7551  0.4902
14955TIP3   OH266279   0.447   6.115   2.496 -0.1155 -0.1789  0.3065
14955TIP3    H166280   0.369   6.133   2.548  0.1976 -1.6439  1.3204
14955TIP3    H266281   0.414   6.077   2.415 -0.5795  1.6544 -0.3976
14956TIP3   OH266282   4.792   0.844  15.420 -0.1463 -0.0159 -0.1548
14956TIP3    H166283   4.789   0.767  15.364 -0.3285  0.6049 -1.0111
14956TIP3    H266284   4.746   0.911  15.370  3.1315  1.6927 -1.0334
14957TIP3   OH266285   6.672   4.765  12.634 -0.7182 -0.2684 -0.0563
14957TIP3    H166286   6.613   4.800  12.701 -1.5391  0.1436 -0.9653
14957TIP3    H266287   6.757   4.762  12.676 -1.5549 -1.7998  1.6069
14958TIP3   OH266288   2.068   6.434  14.142 -0.6534  0.4820  0.1849
14958TIP3    H166289   2.124   6.467  14.072 -0.2102  1.0866  0.8153
14958TIP3    H266290   2.066   6.505  14.206 -0.7146 -0.2271  0.9771
14959TIP3   OH266291   4.987   3.715   4.467  0.1818 -0.0149  0.0658
14959TIP3    H166292   4.930   3.643   4.441  0.0341  0.3756 -0.7105
14959TIP3    H266293   4.989   3.711   4.562 -1.1768 -0.0160  0.1069
14960TIP3   OH266294   4.308   3.646  13.207 -0.4276  0.7762 -0.3082
14960TIP3    H166295   4.329   3.718  13.266 -0.7920  0.5304  0.1323
14960TIP3    H266296   4.212   3.645  13.203 -0.5234 -0.9571  1.3356
14961TIP3   OH266297   0.400   5.748   0.853  0.8421 -0.7166 -0.6310
14961TIP3    H166298   0.308   5.769   0.838  0.9550  1.0505  0.9295
14961TIP3    H266299   0.442   5.763   0.769 -0.0659 -0.2480 -1.0119
14962TIP3   OH266300   2.954   6.711  14.344 -0.1959  0.6786 -0.5825
14962TIP3    H166301   2.966   6.616  14.345 -2.3455  0.3869  0.3455
14962TIP3    H266302   3.004   6.742  14.418 -0.6742  0.0882 -0.0005
14963TIP3   OH266303   1.021   4.465   0.294 -0.1817  0.7324  0.2091
14963TIP3    H166304   0.994   4.556   0.306  0.7955  1.2197 -1.1806
14963TIP3    H266305   1.023   4.452   0.199 -0.7259 -0.8753  0.3948
14964TIP3   OH266306   3.589   3.836   1.809 -0.3043  0.1009  0.0236
14964TIP3    H166307   3.508   3.789   1.786 -0.4450  0.3021  0.1045
14964TIP3    H266308   3.656   3.768   1.812 -1.0566 -0.5817  3.0526
14965TIP3   OH266309   5.388   2.435  16.532  0.3255 -0.2762  0.0430
14965TIP3    H166310   5.461   2.472  16.482  0.1831 -0.0424  0.0060
14965TIP3    H266311   5.310   2.470  16.489  0.1882 -0.6380 -0.0064
14966TIP3   OH266312   0.830   6.542   4.411 -0.0265 -0.0577  0.5449
14966TIP3    H166313   0.896   6.481   4.377  0.3154  0.2270  0.6967
14966TIP3    H266314   0.752   6.487   4.426  0.3327 -0.4911  0.8377
14967TIP3   OH266315   1.726   6.264  14.351  0.0727  0.1294  0.3305
14967TIP3    H166316   1.648   6.232  14.396  1.4359  0.4091  2.9925
14967TIP3    H266317   1.792   6.272  14.420  2.7270 -0.9396 -1.9817
14968TIP3   OH266318   3.057   1.712  16.188 -0.6278  1.0121 -0.3637
14968TIP3    H166319   2.976   1.661  16.188 -1.1282  1.7961 -0.4585
14968TIP3    H266320   3.080   1.720  16.095 -0.6592  1.1334 -0.3607
14969TIP3   OH266321   1.952   4.347  13.313 -0.0542  0.2859  0.0445
14969TIP3    H166322   1.947   4.257  13.347  1.4846  0.7222  1.5063
14969TIP3    H266323   2.011   4.342  13.238  0.3891  0.1285  0.3969
14970TIP3   OH266324   1.793   6.368  11.793  0.8868  0.0869 -0.2446
14970TIP3    H166325   1.702   6.363  11.763  0.2105  0.8248  1.6077
14970TIP3    H266326   1.835   6.291  11.756 -0.0238  0.7198 -2.6711
14971TIP3   OH266327   6.552   2.896  11.664  0.2411 -0.0572 -0.0075
14971TIP3    H166328   6.468   2.856  11.638  0.2085  0.8011 -1.2814
14971TIP3    H266329   6.580   2.845  11.740  0.3850 -2.7901 -1.8070
14972TIP3   OH266330   2.247   1.125   1.148  0.8136  0.0600 -0.6415
14972TIP3    H166331   2.184   1.125   1.221  1.2559  2.6071 -0.2266
14972TIP3    H266332   2.332   1.132   1.191  1.2684 -1.1807 -1.3141
14973TIP3   OH266333   1.846   3.936  15.667  0.4368  0.1822 -0.3145
14973TIP3    H166334   1.891   3.881  15.602  0.1055  0.6146 -0.9161
14973TIP3    H266335   1.757   3.901  15.670  0.6606 -0.3244  0.4744
14974TIP3   OH266336   2.239   6.755   1.128  0.0750 -0.3780 -0.0551
14974TIP3    H166337   2.270   6.708   1.050 -0.5808 -0.9313  0.0172
14974TIP3    H266338   2.147   6.774   1.109  0.4949  1.4670 -0.3699
14975TIP3   OH266339   6.667   3.375   5.193  0.4214 -0.2123  0.2167
14975TIP3    H166340   6.647   3.469   5.189  0.8273 -0.0248  2.0534
14975TIP3    H266341   6.759   3.371   5.217  0.2632 -1.0641  0.7175
14976TIP3   OH266342   5.204   2.453   4.109  0.4999  0.5391  0.0112
14976TIP3    H166343   5.267   2.488   4.046 -0.0205  2.5240  0.5530
14976TIP3    H266344   5.258   2.409   4.175  1.3556  2.0494  0.3707
14977TIP3   OH266345   1.698   6.222   1.714  0.1998  0.3589 -0.3406
14977TIP3    H166346   1.729   6.302   1.756 -0.3989  0.8320 -0.7863
14977TIP3    H266347   1.744   6.152   1.760 -0.8144  0.8331  1.4425
14978TIP3   OH266348   2.469   6.146  13.048 -0.3632  0.2031  0.4955
14978TIP3    H166349   2.429   6.128  13.133  2.0327  1.5641  1.9844
14978TIP3    H266350   2.474   6.242  13.043 -1.1151  0.1698 -1.5054
14979TIP3   OH266351   6.512   5.302  12.042  0.5403  0.2098 -0.0579
14979TIP3    H166352   6.418   5.287  12.046  0.8050 -1.4490  0.2687
14979TIP3    H266353   6.530   5.317  11.949 -0.0115  0.4363 -0.1329
14980TIP3   OH266354   6.108   4.244   4.525  0.0330 -0.5545  0.5583
14980TIP3    H166355   6.186   4.295   4.502  1.6186 -2.3343  1.8162
14980TIP3    H266356   6.088   4.194   4.446 -0.4418  0.6610 -0.0934
14981TIP3   OH266357   5.014   3.972   2.296  0.2503 -0.6154  0.4104
14981TIP3    H166358   5.093   3.951   2.246 -0.2829 -0.3525 -0.5538
14981TIP3    H266359   4.984   4.056   2.261 -2.3778 -2.3182 -1.6618
14982TIP3   OH266360   2.566   0.131   0.870  0.1460 -0.0708  0.5357
14982TIP3    H166361   2.656   0.164   0.864 -0.4527  1.1661 -2.7838
14982TIP3    H266362   2.513   0.208   0.889 -0.6474 -0.0250 -1.7176
14983TIP3   OH266363   1.400   6.130   1.029  0.3454 -0.6742  0.0414
14983TIP3    H166364   1.419   6.214   0.987  0.6548 -0.4567  0.6199
14983TIP3    H266365   1.318   6.143   1.076 -0.9623 -1.4380 -1.9516
14984TIP3   OH266366   3.934   0.185  14.907 -0.1697 -0.3097  0.1695
14984TIP3    H166367   3.950   0.096  14.876  0.7263 -0.7895  1.9265
14984TIP3    H266368   4.020   0.215  14.939 -0.0523  1.8479 -1.9877
14985TIP3   OH266369   4.364   4.101   1.774 -0.4167  0.4744 -0.4855
14985TIP3    H166370   4.274   4.069   1.776  0.8446 -3.3348  1.3111
14985TIP3    H266371   4.393   4.085   1.684 -1.4150  1.4015 -0.9775
14986TIP3   OH266372   1.476   3.021   4.796 -0.0692 -0.0491  0.0418
14986TIP3    H166373   1.426   2.941   4.778 -0.2019 -0.3061  1.4491
14986TIP3    H266374   1.416   3.074   4.850  1.4227 -0.6892  2.4042
14987TIP3   OH266375   3.208   5.981   1.841 -0.1075  0.5184 -0.2331
14987TIP3    H166376   3.139   5.985   1.775 -0.1324 -1.3300 -0.3437
14987TIP3    H266377   3.289   5.995   1.791 -0.2190  0.3132 -0.4706
14988TIP3   OH266378   0.366   2.337   3.979 -0.1968  0.0020  0.5948
14988TIP3    H166379   0.294   2.322   3.918  0.6415  0.9314 -0.6722
14988TIP3    H266380   0.429   2.268   3.960  0.6364  1.0424 -0.5110
14989TIP3   OH266381   4.109   5.399   5.918  0.3285 -0.4224  0.2732
14989TIP3    H166382   4.038   5.455   5.886  0.9323  0.4814  0.5182
14989TIP3    H266383   4.132   5.434   6.004 -0.9410 -2.5384  1.5220
14990TIP3   OH266384   1.423   0.360   2.571 -0.1712  0.1172 -0.4645
14990TIP3    H166385   1.472   0.302   2.629  0.9822  0.5246 -1.0145
14990TIP3    H266386   1.340   0.314   2.555 -0.9874  0.4964  2.3768
14991TIP3   OH266387   2.988   6.607   2.911  0.0462  0.2604 -0.4056
14991TIP3    H166388   2.944   6.670   2.854  1.6752  1.0947 -0.7829
14991TIP3    H266389   3.029   6.661   2.979  0.7970 -0.4620 -0.2734
14992TIP3   OH266390   2.126   0.967  14.262  0.2520 -0.2257 -0.5053
14992TIP3    H166391   2.144   0.893  14.320  0.4581  0.7000  0.6283
14992TIP3    H266392   2.036   0.992  14.283  0.5077  0.4438 -0.2189
14993TIP3   OH266393   5.868   6.446   2.519  0.0667 -0.0786 -0.7671
14993TIP3    H166394   5.805   6.487   2.578  0.5964 -0.6887  0.2464
14993TIP3    H266395   5.815   6.388   2.464 -0.1495 -1.5589  0.9251
14994TIP3   OH266396   2.925   2.380   3.104 -0.1578  0.7451 -0.4149
14994TIP3    H166397   2.919   2.342   3.192  2.0312 -0.1214 -0.6330
14994TIP3    H266398   2.846   2.348   3.059 -0.6902  0.2417  0.8501
14995TIP3   OH266399   5.881   5.326  11.707 -0.2506  0.1175 -0.7119
14995TIP3    H166400   5.788   5.334  11.684 -0.5540 -0.5404  0.2183
14995TIP3    H266401   5.908   5.243  11.669 -0.5699 -0.6312  0.6553
14996TIP3   OH266402   4.620   3.976  16.764 -0.2364  0.0428  0.0652
14996TIP3    H166403   4.676   3.913  16.810 -1.0675 -0.1901  0.7621
14996TIP3    H266404   4.581   4.028  16.834 -3.7711 -2.1692 -0.1739
14997TIP3   OH266405   2.611   5.400  16.933  0.0619 -0.1129 -0.0021
14997TIP3    H166406   2.554   5.324  16.922 -0.8785  0.7239 -1.0105
14997TIP3    H266407   2.635   5.425  16.844 -0.5183  1.4219  0.2601
14998TIP3   OH266408   3.024   2.515   5.927 -0.6648 -0.0965  0.1510
14998TIP3    H166409   3.115   2.510   5.898 -0.1541  2.2565  1.1567
14998TIP3    H266410   3.012   2.440   5.984  0.3980 -0.8834 -0.6483
14999TIP3   OH266411   6.228   4.596  16.450  0.5341 -0.4719 -0.5232
14999TIP3    H166412   6.266   4.611  16.536  0.5530  0.1185 -0.6273
14999TIP3    H266413   6.270   4.517  16.418 -0.3557 -1.3823  0.5068
15000TIP3   OH266414   0.320   5.257  14.387 -0.2009 -0.0974 -0.2503
15000TIP3    H166415   0.308   5.350  14.366 -3.0840 -0.7480 -1.8958
15000TIP3    H266416   0.303   5.250  14.481  0.1767  1.0575 -0.0962
15001TIP3   OH266417   6.520   2.838  14.173  0.2350 -0.6581 -0.4524
15001TIP3    H166418   6.431   2.814  14.200  0.4994 -1.1378 -0.0117
15001TIP3    H266419   6.575   2.819  14.249  0.2875  2.5477  0.3736
15002TIP3   OH266420   6.389   6.102   3.478  0.4891  0.1010  0.0129
15002TIP3    H166421   6.362   6.074   3.391  0.0752 -1.3041  0.5801
15002TIP3    H266422   6.478   6.136   3.466 -0.1205  1.2994 -1.2022
15003TIP3   OH266423   4.791   2.613   5.133 -0.4830  0.1145  0.0718
15003TIP3    H166424   4.696   2.607   5.123 -0.4973  0.8034 -0.2231
15003TIP3    H266425   4.823   2.524   5.118 -1.2071 -0.4117  1.5557
15004TIP3   OH266426   4.608   3.972   1.885 -0.2759 -0.1893 -0.0513
15004TIP3    H166427   4.544   4.033   1.849  0.1085 -0.4813 -1.2390
15004TIP3    H266428   4.614   3.902   1.821  1.5027  0.0048 -0.1247
15005TIP3   OH266429   2.885   1.345  11.847 -0.3909 -0.0093 -0.4357
15005TIP3    H166430   2.819   1.328  11.780 -0.9265  0.9946 -0.1807
15005TIP3    H266431   2.918   1.432  11.826  0.3668 -0.2272 -0.1570
15006TIP3   OH266432   3.898   6.065  17.028  0.2177  0.2611 -0.0112
15006TIP3    H166433   3.986   6.102  17.038  1.1674 -2.1771  1.2334
15006TIP3    H266434   3.901   6.017  16.945 -0.4183  1.3841 -0.6971
15007TIP3   OH266435   4.237   2.381  15.126  0.3740  0.0422 -0.1657
15007TIP3    H166436   4.249   2.311  15.189 -1.6502  1.4467  1.8535
15007TIP3    H266437   4.265   2.460  15.172 -0.7359  1.0297 -1.1546
15008TIP3   OH266438   1.525   4.460  14.385 -0.3167  0.4510 -0.2589
15008TIP3    H166439   1.512   4.511  14.465  1.0850 -1.4285  1.2261
15008TIP3    H266440   1.472   4.381  14.398 -1.1786  0.7334 -1.8275
15009TIP3   OH266441   6.632   6.594   4.228  0.2742  0.1832  0.3479
15009TIP3    H166442   6.613   6.536   4.301  0.5016  0.3277  0.5218
15009TIP3    H266443   6.621   6.682   4.264  0.7507  0.2594  0.3071
15010TIP3   OH266444   2.580   1.751   5.301 -0.0610  0.3002 -0.5628
15010TIP3    H166445   2.505   1.799   5.336  0.6535  0.2142  1.1440
15010TIP3    H266446   2.652   1.814   5.306  0.1281  0.1699 -1.5963
15011TIP3   OH266447   5.862   0.465   5.590  0.3357 -0.0035  0.8120
15011TIP3    H166448   5.807   0.539   5.563 -1.4416 -1.6151 -0.1454
15011TIP3    H266449   5.874   0.414   5.510  0.8243 -1.1855  1.6222
15012TIP3   OH266450   3.609   0.692   5.015  0.6840 -0.2638  0.0040
15012TIP3    H166451   3.529   0.738   4.990  0.5559  0.2337  1.3080
15012TIP3    H266452   3.674   0.761   5.031  1.2405 -0.6425 -0.5760
15013TIP3   OH266453   4.476   3.461  15.014  0.3903  0.0445  0.1454
15013TIP3    H166454   4.558   3.489  14.974  0.5321 -0.5693  0.0147
15013TIP3    H266455   4.462   3.525  15.084  0.3811  0.8396 -0.5668
15014TIP3   OH266456   5.602   1.889   6.538 -0.1738 -0.3335  0.2989
15014TIP3    H166457   5.540   1.847   6.479  0.6561 -0.2226 -0.6773
15014TIP3    H266458   5.581   1.982   6.534 -0.4661 -0.3853  0.6027
15015TIP3   OH266459   1.230   1.464   2.288  0.0077 -0.3689  0.3455
15015TIP3    H166460   1.256   1.552   2.317 -0.0994 -0.4793  0.7717
15015TIP3    H266461   1.244   1.408   2.364 -1.3014 -0.4666  0.5206
15016TIP3   OH266462   4.720   3.974  15.191  0.1031  0.3532  0.0769
15016TIP3    H166463   4.714   4.061  15.151  1.1928  1.2491  1.7700
15016TIP3    H266464   4.800   3.936  15.153  0.5575  0.7809  0.5880
15017TIP3   OH266465   3.233   5.676  11.985  0.6730  0.0173 -0.4384
15017TIP3    H166466   3.184   5.601  11.951  0.4750 -0.0369 -0.0487
15017TIP3    H266467   3.181   5.752  11.961 -0.4203 -0.1344  1.2901
15018TIP3   OH266468   1.490   3.663   4.215 -0.3952 -0.3527 -0.0729
15018TIP3    H166469   1.473   3.739   4.159 -0.4122  0.6794  1.2952
15018TIP3    H266470   1.420   3.666   4.281  1.1257  0.0173  1.5833
15019TIP3   OH266471   6.097   4.011  10.756  0.4075  0.0945 -0.6946
15019TIP3    H166472   6.073   3.954  10.683  1.4535 -0.0003 -0.9718
15019TIP3    H266473   6.193   4.011  10.756  0.4294 -0.6464  1.2345
15020TIP3   OH266474   5.368   5.448   2.452 -0.0554 -0.0243  0.1428
15020TIP3    H166475   5.390   5.540   2.460 -1.3314  0.2140  1.0710
15020TIP3    H266476   5.322   5.427   2.533 -0.8654 -1.1737 -0.5941
15021TIP3   OH266477   0.751   1.110   2.324  0.4876  0.0727  0.2223
15021TIP3    H166478   0.775   1.197   2.291 -0.6599  0.9024  1.5185
15021TIP3    H266479   0.820   1.087   2.385  1.1689 -0.2573 -0.6567
15022TIP3   OH266480   5.058   0.125   5.664  0.0887 -0.1401 -0.4485
15022TIP3    H166481   5.053   0.216   5.634 -1.5469 -0.1531 -0.2611
15022TIP3    H266482   5.139   0.121   5.715 -0.9660  1.7939  1.4236
15023TIP3   OH266483   3.110   2.266   0.128  0.5385  0.0371  0.1462
15023TIP3    H166484   3.023   2.303   0.145  0.9292  0.0431  2.2408
15023TIP3    H266485   3.108   2.241   0.036 -1.5068  0.5263  0.0432
15024TIP3   OH266486   2.211   4.416   3.194 -0.6861  0.1026 -0.1199
15024TIP3    H166487   2.150   4.487   3.213  0.2265  1.0830 -0.8256
15024TIP3    H266488   2.276   4.455   3.136  0.2597 -1.1045  0.1163
15025TIP3   OH266489   1.222   1.411   4.295  0.0888 -0.0035 -0.2155
15025TIP3    H166490   1.225   1.443   4.205 -0.6448  1.3095  0.2178
15025TIP3    H266491   1.148   1.457   4.334 -1.5326 -2.8796  0.1918
15026TIP3   OH266492   0.441   5.998  12.028  0.0180  0.3619 -0.4523
15026TIP3    H166493   0.348   5.985  12.011  0.5834 -2.4596 -1.6247
15026TIP3    H266494   0.468   6.067  11.967 -0.7288 -0.7510 -2.0579
15027TIP3   OH266495   5.752   6.607   1.757 -0.0872 -0.2821  0.3512
15027TIP3    H166496   5.812   6.668   1.799  1.7915  0.3964 -3.1126
15027TIP3    H266497   5.670   6.657   1.747  1.1116  1.3851 -1.5215
15028TIP3   OH266498   0.355   5.401  16.554 -0.2325 -0.1327 -0.4506
15028TIP3    H166499   0.291   5.337  16.524  0.3385 -0.3598 -1.1899
15028TIP3    H266500   0.336   5.480  16.503  0.4554 -0.3836 -1.1033
15029TIP3   OH266501   2.245   0.685  16.152  0.5053 -0.4013  0.0114
15029TIP3    H166502   2.185   0.708  16.222 -1.2388 -0.2412 -1.4872
15029TIP3    H266503   2.327   0.729  16.174  0.1881 -0.8814  2.2452
15030TIP3   OH266504   6.730   1.116   0.719  0.6770 -0.4622  0.2792
15030TIP3    H166505   6.652   1.168   0.700  0.5932 -0.7375 -0.1546
15030TIP3    H266506   6.700   1.051   0.782  1.5176  1.9275  3.2239
15031TIP3   OH266507   2.420   1.791   0.775  0.0066 -0.1921 -0.2638
15031TIP3    H166508   2.475   1.863   0.807  0.7167 -0.5697 -0.6271
15031TIP3    H266509   2.399   1.740   0.854  1.3263 -0.8307 -0.3177
15032TIP3   OH266510   0.669   6.391   3.938  0.1865  0.2346 -0.4580
15032TIP3    H166511   0.573   6.397   3.941  0.1254  0.2656 -1.9487
15032TIP3    H266512   0.699   6.475   3.973 -0.3030 -0.1611  0.9522
15033TIP3   OH266513   3.717   3.386  12.022  0.2319 -0.3379  0.1089
15033TIP3    H166514   3.809   3.363  12.017  0.1753 -1.0562  1.8960
15033TIP3    H266515   3.679   3.353  11.941  1.2920 -1.1888 -0.0555
15034TIP3   OH266516   0.063   1.989   3.953 -0.2128 -0.1857  0.2795
15034TIP3    H166517  -0.002   2.037   4.004 -2.8178 -1.5782 -1.5952
15034TIP3    H266518   0.030   1.993   3.863  2.0964 -1.3102 -0.6534
15035TIP3   OH266519   3.082   2.338  12.942 -0.3395  0.4102 -0.0539
15035TIP3    H166520   3.006   2.323  12.999  0.2067  0.3909  0.6780
15035TIP3    H266521   3.064   2.286  12.863 -0.9976  0.2574  0.1924
15036TIP3   OH266522   5.138   4.447   3.851  0.7166 -0.1366 -0.4288
15036TIP3    H166523   5.211   4.494   3.889 -0.7514  1.8350  0.0354
15036TIP3    H266524   5.145   4.465   3.757  0.0246  1.2594 -0.2301
15037TIP3   OH266525   6.368   4.125   3.827 -0.4728  0.2236 -0.6599
15037TIP3    H166526   6.346   4.133   3.734 -0.2095 -0.0918 -0.7474
15037TIP3    H266527   6.313   4.053   3.858 -1.7369  1.3498 -0.2076
15038TIP3   OH266528   5.015   4.722  14.118 -0.1308 -0.5699 -0.0722
15038TIP3    H166529   4.964   4.648  14.150  2.0884 -1.7836  0.7768
15038TIP3    H266530   5.027   4.778  14.194  1.2031 -1.1302  0.1426
15039TIP3   OH266531   3.720   2.156   3.217  0.5105  0.0554 -0.1819
15039TIP3    H166532   3.708   2.072   3.173  0.6770  0.1799 -0.4612
15039TIP3    H266533   3.715   2.134   3.311  0.7563 -0.2980 -0.2505
15040TIP3   OH266534   4.527   5.526   1.871  0.3024  0.2192  0.1935
15040TIP3    H166535   4.497   5.616   1.868 -0.9519 -0.2070 -0.3193
15040TIP3    H266536   4.447   5.473   1.864  1.1857 -0.9301 -1.6607
15041TIP3   OH266537   0.541   4.915  11.517 -0.3592 -1.0527 -0.6464
15041TIP3    H166538   0.542   4.834  11.466 -0.2358  1.4002 -4.7169
15041TIP3    H266539   0.497   4.979  11.461 -0.2336  1.7904  2.3484
15042TIP3   OH266540   2.261   6.472  13.915 -0.0918  0.0653  0.4314
15042TIP3    H166541   2.295   6.562  13.914 -0.3747  0.1821 -2.0786
15042TIP3    H266542   2.176   6.479  13.871  0.4256 -1.6066 -0.8815
15043TIP3   OH266543   1.957   3.457   1.855 -0.1437 -0.0381  0.1840
15043TIP3    H166544   2.034   3.409   1.825 -0.5345 -1.1521  0.9299
15043TIP3    H266545   1.894   3.389   1.879 -0.9399  0.8528  0.6745
15044TIP3   OH266546   0.648   1.368   2.588 -0.2557  0.2332 -0.2816
15044TIP3    H166547   0.609   1.391   2.673 -0.9327 -1.0994 -0.2285
15044TIP3    H266548   0.600   1.290   2.560  0.9700 -0.1946 -1.2038
15045TIP3   OH266549   1.134   6.346  11.689 -0.0733 -0.3599  0.4103
15045TIP3    H166550   1.169   6.430  11.659  0.6551 -0.6335  0.4677
15045TIP3    H266551   1.171   6.335  11.777  1.2988 -1.5598 -0.2765
15046TIP3   OH266552   6.596   0.951  14.427  0.0831 -1.0017  0.4614
15046TIP3    H166553   6.575   1.038  14.461 -0.6848 -1.7111  1.8327
15046TIP3    H266554   6.681   0.931  14.467 -0.2601 -1.3367  1.0290
15047TIP3   OH266555   1.740   1.099  16.462 -0.4509  0.1059  0.5631
15047TIP3    H166556   1.777   1.014  16.486 -1.2661 -0.1484  0.9426
15047TIP3    H266557   1.683   1.081  16.388 -0.6564  0.3168  0.6693
15048TIP3   OH266558   5.651   4.053   0.730 -0.1340 -0.0770  0.0953
15048TIP3    H166559   5.607   4.123   0.778  2.5053  1.9340 -0.3326
15048TIP3    H266560   5.671   3.987   0.797  1.2752  1.5790  1.3464
15049TIP3   OH266561   2.875   0.848   4.517  0.0654 -0.0194 -0.0197
15049TIP3    H166562   2.855   0.904   4.443  2.0713  0.7168 -0.0486
15049TIP3    H266563   2.814   0.874   4.586  0.8648  2.1328 -0.0763
15050TIP3   OH266564   0.698   1.188  17.134 -0.0268 -0.2187  0.1922
15050TIP3    H166565   0.743   1.216  17.213 -1.0920 -2.9053  1.8158
15050TIP3    H266566   0.740   1.106  17.109  0.1339  0.4641 -1.9153
15051TIP3   OH266567   3.052   6.152  13.287 -0.2435  0.0196  0.6876
15051TIP3    H166568   3.105   6.188  13.215  1.9320 -1.6757  1.3716
15051TIP3    H266569   3.038   6.061  13.262 -1.2981 -0.0156  1.4089
15052TIP3   OH266570   2.123   1.298   5.209  0.0662  0.3177  0.4287
15052TIP3    H166571   2.160   1.239   5.275 -0.3479 -0.4998 -0.0637
15052TIP3    H266572   2.062   1.354   5.259 -0.4538 -0.4781  0.6995
15053TIP3   OH266573   4.174   0.783  16.802  0.0027  0.6160  0.1445
15053TIP3    H166574   4.259   0.746  16.777  0.2363  1.3048 -0.0860
15053TIP3    H266575   4.190   0.825  16.886 -0.1682  0.5656  0.2031
15054TIP3   OH266576   3.710   6.133   2.385  0.5354 -0.0914 -0.8261
15054TIP3    H166577   3.732   6.096   2.471  2.4422 -1.4417 -1.8509
15054TIP3    H266578   3.720   6.228   2.397  0.8860 -0.2695  0.4161
15055TIP3   OH266579   3.148   5.072  10.525  0.1770  0.0463 -0.1893
15055TIP3    H166580   3.057   5.101  10.527  0.2398  0.1995  1.5269
15055TIP3    H266581   3.198   5.150  10.503  0.0647  0.5016  1.1150
15056TIP3   OH266582   1.897   4.645   2.675 -0.1675  0.4805 -0.0833
15056TIP3    H166583   1.963   4.709   2.701 -0.3704  0.5437  0.2812
15056TIP3    H266584   1.906   4.573   2.738  2.1436 -1.2740 -2.3470
15057TIP3   OH266585   4.969   4.730  16.355 -0.3292 -0.4000  0.1842
15057TIP3    H166586   4.976   4.641  16.320  0.0616 -0.3645  0.1663
15057TIP3    H266587   5.033   4.781  16.304  0.5770 -0.4487  1.2481
15058TIP3   OH266588   5.129   5.856   6.491  0.2899  0.1316  0.3275
15058TIP3    H166589   5.186   5.928   6.465 -1.1570  1.5357  0.9399
15058TIP3    H266590   5.188   5.788   6.522  1.6085  1.6869  1.2780
15059TIP3   OH266591   6.414   6.011  15.213 -0.4286 -0.3035  0.7550
15059TIP3    H166592   6.392   6.032  15.303 -1.9610  1.0447  0.0902
15059TIP3    H266593   6.336   6.033  15.163  1.5187  2.1733 -1.3514
15060TIP3   OH266594   1.645   4.055  13.896  0.0602 -0.1929 -0.1235
15060TIP3    H166595   1.629   4.074  13.804  3.4814 -1.6604 -1.1052
15060TIP3    H266596   1.719   4.110  13.920  2.4172 -3.3877  0.2929
15061TIP3   OH266597   0.229   2.620  17.009  0.1043 -0.5281 -0.0050
15061TIP3    H166598   0.316   2.615  16.968 -1.1801  0.7784 -2.9734
15061TIP3    H266599   0.169   2.640  16.937 -2.4450  0.3857  2.3055
15062TIP3   OH266600   6.580   1.020  17.062 -0.6278 -0.6336  0.0882
15062TIP3    H166601   6.566   1.032  16.968 -1.5166 -3.7222 -0.2279
15062TIP3    H266602   6.674   1.030  17.074 -0.3952 -1.2146 -1.2752
15063TIP3   OH266603   5.058   1.098  13.326  0.6315 -0.2501  0.4193
15063TIP3    H166604   5.150   1.078  13.340  0.9941  0.9769 -0.1645
15063TIP3    H266605   5.047   1.095  13.231  0.2436  0.3439  0.4449
15064TIP3   OH266606   5.489   3.236  16.776 -0.0902  0.2045  0.1672
15064TIP3    H166607   5.567   3.268  16.731 -0.8498 -0.1794 -1.4977
15064TIP3    H266608   5.503   3.141  16.785 -0.1565  0.2059  0.2864
15065TIP3   OH266609   0.508   2.949  12.309  0.5041  0.0399  0.4066
15065TIP3    H166610   0.570   2.966  12.380  0.9235  0.7392 -0.1210
15065TIP3    H266611   0.563   2.926  12.234  0.0210 -1.6854  0.5667
15066TIP3   OH266612   3.775   3.975  17.038  0.0916 -0.1507 -1.1317
15066TIP3    H166613   3.768   3.881  17.058  0.2535 -0.0316 -0.4996
15066TIP3    H266614   3.852   4.004  17.086  1.2804 -0.1213 -3.0156
15067TIP3   OH266615   4.783   1.843  16.466 -0.4715 -0.0560  0.2662
15067TIP3    H166616   4.806   1.802  16.383 -0.0864 -0.6817  0.6827
15067TIP3    H266617   4.768   1.771  16.526 -0.9496  0.3929  0.6896
15068TIP3   OH266618   2.670   1.557   1.348  0.3521 -0.0159  0.6651
15068TIP3    H166619   2.752   1.528   1.388  1.0453  2.0469  0.7899
15068TIP3    H266620   2.687   1.647   1.319 -1.8825  0.4785  0.7503
15069TIP3   OH266621   2.826   3.684  16.548 -0.2471 -0.2395  0.1031
15069TIP3    H166622   2.749   3.732  16.519 -0.7536 -0.8899  0.3562
15069TIP3    H266623   2.871   3.660  16.467  0.5392  1.4946 -0.0041
15070TIP3   OH266624   3.715   4.398   3.253  0.2333 -0.4811 -0.2081
15070TIP3    H166625   3.747   4.374   3.340 -0.7058 -1.1667 -0.0402
15070TIP3    H266626   3.791   4.386   3.195  1.0348  0.5816  0.6008
15071TIP3   OH266627   0.580   6.132  16.105  0.6654 -0.4108 -0.4361
15071TIP3    H166628   0.580   6.053  16.161  0.0622 -0.1441 -0.0499
15071TIP3    H266629   0.488   6.144  16.081  0.7351  0.2524 -0.3827
15072TIP3   OH266630   3.108   1.599   2.308 -0.6888 -0.3541  0.0912
15072TIP3    H166631   3.174   1.568   2.246 -0.0769 -3.2622  2.0822
15072TIP3    H266632   3.158   1.636   2.380 -1.3407  0.7353 -0.0037
15073TIP3   OH266633   5.760   2.626  16.794 -0.1785 -0.0692 -0.3388
15073TIP3    H166634   5.809   2.547  16.814  0.0684  0.4497  1.1552
15073TIP3    H266635   5.681   2.595  16.751  1.1610 -0.9524 -2.2595
15074TIP3   OH266636   3.997   3.026   5.972 -0.3602 -0.1283 -0.0191
15074TIP3    H166637   3.908   3.007   6.001 -0.6886  1.1254 -0.1947
15074TIP3    H266638   4.053   2.992   6.042 -0.9212 -1.6817 -0.2882
15075TIP3   OH266639   2.687   1.783  14.661 -0.2616  0.3755  0.0745
15075TIP3    H166640   2.651   1.792  14.749  1.3944  1.7879  0.6393
15075TIP3    H266641   2.621   1.822  14.604 -0.3518  1.5354  0.9397
15076TIP3   OH266642   4.332   2.320   4.598 -0.2209  0.8081 -0.1897
15076TIP3    H166643   4.279   2.389   4.557 -0.8951  1.0262  1.0008
15076TIP3    H266644   4.381   2.365   4.666 -0.8486  0.0866  0.7598
15077TIP3   OH266645   3.916   2.364  15.814  0.6238 -0.0776  0.4287
15077TIP3    H166646   3.852   2.405  15.755  0.4695 -2.0594 -0.8248
15077TIP3    H266647   3.999   2.405  15.790  0.0511  1.5842  1.1891
15078TIP3   OH266648   0.551   4.069  12.423  0.3217  0.5085 -0.0199
15078TIP3    H166649   0.542   4.043  12.515  0.9051 -0.1006 -0.1296
15078TIP3    H266650   0.465   4.049  12.384  1.0280 -2.1779 -0.3070
15079TIP3   OH266651   3.120   4.763  16.481  0.2939  0.0596  0.4746
15079TIP3    H166652   3.081   4.840  16.440 -1.4648 -1.1509 -0.2186
15079TIP3    H266653   3.200   4.795  16.522  0.3029  1.9800 -0.9608
15080TIP3   OH266654   2.708   5.802  15.479  0.6465  0.1590 -0.5356
15080TIP3    H166655   2.716   5.833  15.389  0.1449  1.4922 -0.1224
15080TIP3    H266656   2.794   5.819  15.518  0.6849  0.1157 -0.6021
15081TIP3   OH266657   3.442   3.830  14.161 -0.4604 -0.4589  0.2678
15081TIP3    H166658   3.525   3.874  14.142 -0.4900 -0.9547 -1.0893
15081TIP3    H266659   3.423   3.852  14.252 -0.5358  2.4535 -0.3905
15082TIP3   OH266660   1.619   5.076   5.745  0.3537  0.2393  0.0184
15082TIP3    H166661   1.578   5.028   5.817 -0.2311  0.8731  0.1067
15082TIP3    H266662   1.637   5.163   5.781  0.6835  0.3468 -0.3950
15083TIP3   OH266663   1.164   2.092  14.937  0.2837 -0.0117 -0.0010
15083TIP3    H166664   1.130   2.081  15.026  1.9825 -1.8572  0.4647
15083TIP3    H266665   1.179   2.187  14.929  1.3837  0.0401  2.1895
15084TIP3   OH266666   1.856   0.768  12.356  0.1521 -0.4659 -0.3007
15084TIP3    H166667   1.874   0.859  12.378  0.8098 -1.0547  1.6722
15084TIP3    H266668   1.808   0.734  12.432 -2.1430 -1.1501 -1.9908
15085TIP3   OH266669   3.043   5.924  12.735 -0.3129 -0.6306  0.3959
15085TIP3    H166670   3.062   5.963  12.820  1.6460 -2.8088  1.0214
15085TIP3    H266671   3.088   5.980  12.672  2.0952 -1.5235  1.2364
15086TIP3   OH266672   3.485   6.535  11.913 -0.1862  0.0270 -0.5080
15086TIP3    H166673   3.400   6.523  11.870 -0.1803 -0.7869 -0.2967
15086TIP3    H266674   3.490   6.629  11.930 -0.7283  0.1754 -1.1740
15087TIP3   OH266675   3.760   6.478  11.866  0.4976 -0.3076  0.1873
15087TIP3    H166676   3.807   6.409  11.912 -0.6636 -0.9157  0.4794
15087TIP3    H266677   3.671   6.475  11.902 -0.0393  0.1552 -1.0607
15088TIP3   OH266678   3.007   6.383  11.605  0.1131 -0.2056 -0.5889
15088TIP3    H166679   3.094   6.344  11.619 -0.0708 -0.7067 -0.8185
15088TIP3    H266680   2.995   6.442  11.680  1.4356  1.3123 -1.5498
15089TIP3   OH266681   5.487   5.730   5.780  0.2593  0.1726  0.1681
15089TIP3    H166682   5.456   5.787   5.710  0.6927 -0.7741 -0.7981
15089TIP3    H266683   5.564   5.687   5.744 -0.4104 -1.4765  0.6841
15090TIP3   OH266684   3.401   5.851   3.109 -0.0746  0.2424 -0.4951
15090TIP3    H166685   3.451   5.929   3.089  0.9206  0.2734  1.9935
15090TIP3    H266686   3.324   5.883   3.156  0.5217 -0.2868  0.8577
15091TIP3   OH266687   2.659   4.666   5.926  0.4531 -0.5181 -0.2007
15091TIP3    H166688   2.754   4.656   5.930  0.4176 -0.9471 -0.3516
15091TIP3    H266689   2.645   4.737   5.863  0.6980  0.1710  0.5115
15092TIP3   OH266690   3.665   2.360  13.214 -0.0242  0.3541 -0.5344
15092TIP3    H166691   3.637   2.400  13.296 -2.0022 -0.0037 -1.0013
15092TIP3    H266692   3.609   2.400  13.147 -1.0533 -2.0550 -1.1887
15093TIP3   OH266693   0.839   1.863   2.063  0.5903 -0.2942 -0.3807
15093TIP3    H166694   0.894   1.939   2.043  1.8028 -0.7912  0.9925
15093TIP3    H266695   0.848   1.806   1.986 -1.0595  1.3450 -1.8165
15094TIP3   OH266696   2.215   6.728  16.409  0.1271  0.5508 -0.2751
15094TIP3    H166697   2.151   6.739  16.480  0.9955 -1.8877  0.9368
15094TIP3    H266698   2.161   6.720  16.330 -0.9354  1.4292  0.3425
15095TIP3   OH266699   2.729   5.250   0.436 -0.4023 -0.3307  0.3511
15095TIP3    H166700   2.720   5.338   0.401  1.1912  0.0542  0.8857
15095TIP3    H266701   2.686   5.194   0.371  0.4824  0.6159 -1.0749
15096TIP3   OH266702   5.692   4.521   4.827  0.4944  0.7388 -0.4762
15096TIP3    H166703   5.770   4.471   4.855  0.4982  0.7879 -0.3964
15096TIP3    H266704   5.728   4.598   4.783  0.4848 -0.5561 -2.8350
15097TIP3   OH266705   5.530   5.887  16.986  0.2722 -0.2245  0.5763
15097TIP3    H166706   5.593   5.825  16.950  0.4437  0.8546 -1.0127
15097TIP3    H266707   5.491   5.930  16.910 -0.0157  1.4664  1.6403
15098TIP3   OH266708   1.963   4.755  12.788  0.2077 -0.0933  0.2874
15098TIP3    H166709   1.884   4.787  12.746 -1.0263 -3.0009  0.2711
15098TIP3    H266710   1.978   4.816  12.861 -0.7994  1.7181 -0.9855
15099TIP3   OH266711   0.975   6.515   4.642  0.0148  0.5167 -0.0638
15099TIP3    H166712   0.939   6.572   4.710 -0.0737 -0.4519  0.7131
15099TIP3    H266713   0.910   6.517   4.572 -1.1612 -0.4951  0.9485
15100TIP3   OH266714   4.054   0.826   2.565 -0.7733 -0.5532 -0.3383
15100TIP3    H166715   3.996   0.750   2.561 -0.2120 -1.0815  1.1768
15100TIP3    H266716   3.996   0.901   2.557 -1.3970 -1.1333 -1.2776
15101TIP3   OH266717   2.144   0.317  16.701  0.2308  0.3834  0.1869
15101TIP3    H166718   2.065   0.275  16.666  2.2285 -2.2486 -1.3429
15101TIP3    H266719   2.164   0.267  16.780  1.1614  0.1318 -0.2098
15102TIP3   OH266720   5.416   0.925   5.948  0.1034  0.4388 -0.0042
15102TIP3    H166721   5.392   0.973   6.028 -2.0166 -0.6791  0.0913
15102TIP3    H266722   5.477   0.858   5.977 -0.3770  0.2743  0.6397
15103TIP3   OH266723   5.859   1.611   3.497 -0.2549 -0.1564 -0.4580
15103TIP3    H166724   5.942   1.641   3.462 -1.3532 -0.5181 -3.5572
15103TIP3    H266725   5.875   1.599   3.590  2.7388  1.1557 -0.7439
15104TIP3   OH266726   4.667   2.400  14.735  0.7447 -0.6168  0.0868
15104TIP3    H166727   4.651   2.352  14.654 -0.9039 -1.9125  1.1497
15104TIP3    H266728   4.586   2.448  14.750  1.3206  0.1992  0.5795
15105TIP3   OH266729   2.613   4.077  16.661  0.0099  0.1145 -0.4131
15105TIP3    H166730   2.605   4.064  16.755 -0.5006  1.3616 -0.2775
15105TIP3    H266731   2.650   3.994  16.628  1.4425  0.1480  1.0450
15106TIP3   OH266732   6.637   6.500  13.703  0.4799 -0.0568 -0.2279
15106TIP3    H166733   6.580   6.445  13.757  2.7376 -1.9014  0.3852
15106TIP3    H266734   6.626   6.467  13.614  1.3554 -1.1262  0.0465
15107TIP3   OH266735   0.703   4.408   3.098 -0.1003 -0.0528  0.4906
15107TIP3    H166736   0.747   4.490   3.078 -1.0488  0.4126  0.2815
15107TIP3    H266737   0.643   4.394   3.025  2.1824 -2.4912 -1.0114
15108TIP3   OH266738   4.492   4.896   0.550  0.0997 -0.1170 -0.3172
15108TIP3    H166739   4.531   4.925   0.633  2.3169 -0.7046 -1.1192
15108TIP3    H266740   4.502   4.801   0.552 -4.2997 -0.6671  0.8998
15109TIP3   OH266741   4.485   4.608   0.604 -0.3752 -0.3310 -0.1324
15109TIP3    H166742   4.557   4.621   0.666 -0.8769 -0.1246  0.4183
15109TIP3    H266743   4.414   4.571   0.658 -1.1595  0.7971 -0.3645
15110TIP3   OH266744   0.317   4.832   3.749 -0.0269 -0.4242 -0.5027
15110TIP3    H166745   0.400   4.792   3.775 -0.9410 -2.1597 -0.2188
15110TIP3    H266746   0.253   4.797   3.810 -1.0516  0.5828 -0.9796
15111TIP3   OH266747   6.056   3.970  11.680 -0.6244  0.1681  0.2951
15111TIP3    H166748   6.049   3.875  11.680 -1.0907  0.1846 -1.5394
15111TIP3    H266749   5.970   4.001  11.708 -1.3694  0.0696 -1.8005
15112TIP3   OH266750   6.293   3.411  13.016  0.3221 -0.6507 -0.6108
15112TIP3    H166751   6.216   3.466  13.028  0.5955 -0.3587 -0.2139
15112TIP3    H266752   6.269   3.351  12.945  0.5495  0.9396 -2.0545
15113TIP3   OH266753   2.963   3.471   0.307  0.1882 -0.4983  0.1628
15113TIP3    H166754   2.995   3.452   0.395  1.4146 -0.8102 -0.3369
15113TIP3    H266755   3.031   3.525   0.268 -1.0086  0.8178 -0.1253
15114TIP3   OH266756   3.345   2.083  12.731  0.5481  0.3667 -0.0175
15114TIP3    H166757   3.370   2.053  12.644 -0.2396  1.3843 -0.6048
15114TIP3    H266758   3.324   2.176  12.720 -0.0419  0.3897  1.1548
15115TIP3   OH266759   1.665   0.702   1.627 -0.1954  0.1990 -0.3306
15115TIP3    H166760   1.715   0.641   1.681  0.5603  1.0918 -0.0038
15115TIP3    H266761   1.646   0.654   1.547  0.2556 -0.5186 -0.0050
15116TIP3   OH266762   0.207   1.819   3.183 -0.7412  0.2647 -0.0474
15116TIP3    H166763   0.185   1.905   3.148 -1.3418  0.8705  1.7349
15116TIP3    H266764   0.130   1.765   3.163 -1.3194  0.7569  0.8193
15117TIP3   OH266765   4.240   2.533   1.637  0.1806 -0.4146 -0.6882
15117TIP3    H166766   4.241   2.438   1.650  0.4271 -0.3243  0.0339
15117TIP3    H266767   4.291   2.547   1.558 -0.2759 -0.9193 -1.0799
15118TIP3   OH266768   0.812   0.474  12.149  0.1340 -0.1476  0.7385
15118TIP3    H166769   0.840   0.566  12.144 -0.3329  0.0188  1.1522
15118TIP3    H266770   0.747   0.465  12.078 -1.1541  0.3227  1.8299
15119TIP3   OH266771   5.355   4.183  11.962 -0.8894 -0.4239 -0.7535
15119TIP3    H166772   5.424   4.117  11.965  0.0974  0.6643  1.8611
15119TIP3    H266773   5.275   4.133  11.944 -0.3412 -2.5057  2.2860
15120TIP3   OH266774   0.943   2.635  12.290 -0.0239  0.1753 -0.5650
15120TIP3    H166775   0.907   2.723  12.294  0.8574  0.6792 -2.7774
15120TIP3    H266776   1.007   2.638  12.219 -2.1204 -3.0004 -2.7569
15121TIP3   OH266777   0.776   1.909  10.465 -0.2049  0.3299 -0.6323
15121TIP3    H166778   0.732   1.827  10.485 -0.2466  0.5046  0.0039
15121TIP3    H266779   0.706   1.973  10.452 -0.1468  0.8955  1.6091
15122TIP3   OH266780   2.761   6.156   5.515  0.4651 -0.5652 -0.1374
15122TIP3    H166781   2.718   6.108   5.444  0.7079  1.8751 -2.0016
15122TIP3    H266782   2.740   6.106   5.594 -1.7744 -2.0590 -1.6184
15123TIP3   OH266783   6.139   0.397   2.093 -0.1323 -0.1501 -0.0696
15123TIP3    H166784   6.150   0.368   2.183 -2.6492 -1.6971 -0.2144
15123TIP3    H266785   6.087   0.477   2.100 -0.2906 -0.2466 -0.1173
15124TIP3   OH266786   2.240   0.878   5.108  0.5431  0.2709  0.2463
15124TIP3    H166787   2.165   0.872   5.048  1.6212  1.3150 -1.2392
15124TIP3    H266788   2.205   0.921   5.186 -0.1587  1.7677 -0.8777
15125TIP3   OH266789   6.068   6.553  13.996  0.2448  0.2933 -0.5153
15125TIP3    H166790   6.145   6.608  14.014 -0.7338  1.2742  0.7292
15125TIP3    H266791   6.085   6.472  14.044  1.1118 -0.0380 -1.3475
15126TIP3   OH266792   0.189   2.423   5.529 -0.6410 -0.0718  0.3091
15126TIP3    H166793   0.132   2.346   5.530  1.0455 -1.3628  0.3387
15126TIP3    H266794   0.158   2.478   5.601 -1.0830 -1.3109  1.0735
15127TIP3   OH266795   2.957   5.361  16.470  0.9317  0.0459 -0.0805
15127TIP3    H166796   2.866   5.389  16.463  0.8683 -0.1809 -0.1749
15127TIP3    H266797   3.004   5.417  16.408  0.6693 -0.6587 -0.9181
15128TIP3   OH266798   0.741   5.797  12.711  0.0227  0.1794  0.0136
15128TIP3    H166799   0.731   5.885  12.748 -1.4300  0.3209 -0.6800
15128TIP3    H266800   0.675   5.792  12.642  1.7160 -0.5986 -1.5933
15129TIP3   OH266801   3.360   4.282   4.109 -0.0770 -0.5504  0.1088
15129TIP3    H166802   3.349   4.325   4.024 -1.1614 -0.4333  0.3019
15129TIP3    H266803   3.271   4.266   4.140  0.3136 -1.4275  0.8105
15130TIP3   OH266804   6.459   3.177  14.891  0.3976 -0.8019  0.4848
15130TIP3    H166805   6.525   3.241  14.917  0.6373 -0.2198 -1.4712
15130TIP3    H266806   6.383   3.198  14.946  0.6245  0.8714  0.1843
15131TIP3   OH266807   2.435   5.828  16.615 -0.6841  0.4407  0.2320
15131TIP3    H166808   2.523   5.856  16.639  0.0777 -0.6282 -1.2572
15131TIP3    H266809   2.439   5.816  16.520 -2.1236 -0.7081  0.3019
15132TIP3   OH266810   6.553   5.240   3.487  0.3302 -0.2426 -0.4072
15132TIP3    H166811   6.501   5.300   3.434 -0.2383  0.2868  0.7388
15132TIP3    H266812   6.542   5.271   3.577  2.6135 -0.1174 -0.1382
15133TIP3   OH266813   3.564   3.403  11.667  0.7851  0.2655 -0.5983
15133TIP3    H166814   3.573   3.310  11.649  2.5777 -0.1410  2.0035
15133TIP3    H266815   3.543   3.407  11.760  4.1012  2.5162  0.1564
15134TIP3   OH266816   0.436   5.241  11.602 -0.1264 -0.3461  0.1820
15134TIP3    H166817   0.498   5.309  11.628  3.4434 -3.0518 -0.8286
15134TIP3    H266818   0.390   5.218  11.682  1.1030  0.8101  1.2477
15135TIP3   OH266819   3.274   4.316  13.326 -0.3109  0.1705  0.1535
15135TIP3    H166820   3.236   4.342  13.410  0.0864 -0.8016  0.6334
15135TIP3    H266821   3.334   4.388  13.305  1.6039 -0.8422  2.0195
15136TIP3   OH266822   1.181   0.905   6.637  0.5784  0.6159  0.6103
15136TIP3    H166823   1.147   0.994   6.645  2.4054  1.3124  1.0125
15136TIP3    H266824   1.271   0.911   6.669  1.5496 -0.8561 -1.7055
15137TIP3   OH266825   1.662   2.103  15.002  0.5257 -0.1333  0.2134
15137TIP3    H166826   1.623   2.063  14.924 -0.9428 -0.0397  0.8814
15137TIP3    H266827   1.724   2.168  14.967  0.5714 -0.7527 -0.8694
15138TIP3   OH266828   0.340   3.408   1.531  0.4321 -0.0741  0.5221
15138TIP3    H166829   0.380   3.487   1.495  0.5933 -0.4071 -0.0364
15138TIP3    H266830   0.263   3.439   1.578  0.1783  0.3613 -0.1705
15139TIP3   OH266831   3.154   3.313  16.764 -0.0309  0.4722 -0.7642
15139TIP3    H166832   3.129   3.342  16.676  1.6260 -0.0314 -1.4192
15139TIP3    H266833   3.093   3.358  16.822  0.0973  2.3569 -2.0353
15140TIP3   OH266834   3.023   0.605  16.608  0.1456 -0.5305 -0.0227
15140TIP3    H166835   3.055   0.516  16.627 -1.1270 -1.3642 -1.6138
15140TIP3    H266836   3.064   0.626  16.524  1.2975  0.8454  0.8648
15141TIP3   OH266837   2.542   6.207   6.167 -0.1821 -0.1020 -0.1824
15141TIP3    H166838   2.527   6.284   6.221 -1.1694 -0.7533  0.4998
15141TIP3    H266839   2.589   6.146   6.224 -0.8169 -0.6143 -0.1946
15142TIP3   OH266840   4.722   5.808   4.400  0.0594  0.1052 -0.5414
15142TIP3    H166841   4.710   5.868   4.326 -1.7369 -0.7212 -0.9486
15142TIP3    H266842   4.693   5.858   4.476  1.7735  0.9085 -0.3983
15143TIP3   OH266843   0.101   0.772  16.796 -0.1555  0.4560 -0.1097
15143TIP3    H166844   0.087   0.699  16.857  1.0178 -0.0598 -0.4333
15143TIP3    H266845   0.015   0.812  16.786 -1.3676 -2.3742 -1.7635
15144TIP3   OH266846   1.326   3.153  16.240 -0.4423  0.5298  0.2293
15144TIP3    H166847   1.246   3.100  16.240 -0.2664  0.2548 -0.5346
15144TIP3    H266848   1.309   3.223  16.303 -1.8273  1.2712 -0.9269
15145TIP3   OH266849   0.187   3.190  13.567 -0.0687 -0.5259  0.0236
15145TIP3    H166850   0.282   3.197  13.559 -0.1975 -0.4936 -1.5760
15145TIP3    H266851   0.154   3.201  13.478 -1.7291  1.9431  0.8727
15146TIP3   OH266852   2.307   0.007  15.282 -0.4106 -0.3235 -0.3923
15146TIP3    H166853   2.258   0.084  15.254 -0.3952 -0.2443 -0.2043
15146TIP3    H266854   2.322   0.021  15.375 -2.4088 -1.6517  0.1613
15147TIP3   OH266855   3.190   3.470  11.182  0.4346 -0.4063 -0.5598
15147TIP3    H166856   3.241   3.410  11.127  0.9006 -0.1885 -0.3708
15147TIP3    H266857   3.155   3.535  11.120  0.8020 -0.2701 -0.6296
15148TIP3   OH266858   0.718   1.000   1.830  0.9562 -0.0228 -0.0852
15148TIP3    H166859   0.780   0.928   1.840 -1.2370 -2.2526 -1.9101
15148TIP3    H266860   0.738   1.038   1.745  1.9350  1.3788  0.7598
15149TIP3   OH266861   4.382   0.014  11.252 -0.2930 -0.7490 -0.3156
15149TIP3    H166862   4.470   0.051  11.244 -0.5149 -0.1338  0.0948
15149TIP3    H266863   4.355  -0.003  11.162  0.0172 -0.4075 -0.4740
15150TIP3   OH266864   0.569   1.900  11.733  0.3479 -0.1258 -0.2790
15150TIP3    H166865   0.628   1.926  11.663  1.0823 -1.6953 -0.2808
15150TIP3    H266866   0.485   1.939  11.710  1.1605  1.3516 -0.7694
15151TIP3   OH266867   2.292   1.394   3.864  0.2970 -0.2412  0.4769
15151TIP3    H166868   2.362   1.390   3.799 -0.1834  0.7772 -0.1163
15151TIP3    H266869   2.271   1.302   3.883  2.6678 -0.5691  1.6139
15152TIP3   OH266870   5.837   2.190  11.376 -0.1540 -0.1597 -0.1580
15152TIP3    H166871   5.795   2.200  11.462 -0.1051  0.4612 -0.2093
15152TIP3    H266872   5.919   2.145  11.395  0.3749  0.9731  0.2547
15153TIP3   OH266873   3.974   4.616   3.972  0.6839  0.0345  0.3876
15153TIP3    H166874   3.899   4.561   3.994  0.0760  0.6132 -0.2357
15153TIP3    H266875   4.012   4.575   3.894 -0.0634  0.7621 -0.3747
15154TIP3   OH266876   1.429   0.692   5.522 -0.0593  0.0108  0.0754
15154TIP3    H166877   1.479   0.724   5.447  0.0244 -1.4075 -0.4840
15154TIP3    H266878   1.449   0.754   5.592  1.8337 -0.0808 -0.3706
15155TIP3   OH266879   4.125   3.306   2.321  0.3471 -0.3830  0.3824
15155TIP3    H166880   4.045   3.256   2.338 -0.3339  1.0140  1.4367
15155TIP3    H266881   4.094   3.395   2.306  1.5143 -0.2919 -1.7491
15156TIP3   OH266882   6.278   0.705   1.998 -0.4871 -0.4011  0.2720
15156TIP3    H166883   6.231   0.639   1.948 -2.0231  0.4525  0.5496
15156TIP3    H266884   6.249   0.789   1.962 -1.0737  0.2073  2.0992
15157TIP3   OH266885   5.445   1.029  14.794 -0.1731 -0.2509  0.7197
15157TIP3    H166886   5.393   1.027  14.874  1.6647 -2.3606  1.9160
15157TIP3    H266887   5.530   1.062  14.821  0.0034  0.5235 -0.6993
15158TIP3   OH266888   4.475   3.056   0.468  0.5989  0.1984  0.2781
15158TIP3    H166889   4.528   3.134   0.486  0.8219  0.0114  0.4253
15158TIP3    H266890   4.386   3.089   0.462  0.9285  0.8092 -1.7294
15159TIP3   OH266891   1.702   4.567   4.062 -0.2123 -0.6560 -0.2416
15159TIP3    H166892   1.636   4.539   4.125  1.5800 -1.4115  1.3465
15159TIP3    H266893   1.703   4.498   3.996 -0.0023 -1.3843  0.5090
15160TIP3   OH266894   0.246   4.711  14.624 -0.3566 -0.2808 -0.1312
15160TIP3    H166895   0.336   4.742  14.628 -0.4749  0.4244 -2.2048
15160TIP3    H266896   0.204   4.747  14.702  0.5043  1.5588 -0.4958
15161TIP3   OH266897   0.867   3.351  16.101  0.4181  0.1868 -0.2719
15161TIP3    H166898   0.838   3.327  16.013  1.1192  0.3958 -0.5634
15161TIP3    H266899   0.958   3.322  16.105 -0.3899 -2.3755  1.3584
15162TIP3   OH266900   3.561   5.679   6.014 -0.0363 -0.4306  0.3605
15162TIP3    H166901   3.609   5.596   6.007  0.8622 -0.0296  1.6597
15162TIP3    H266902   3.530   5.681   6.105  1.4166  1.4289  0.8562
15163TIP3   OH266903   3.355   1.052   2.046  0.4478 -0.2342  0.4018
15163TIP3    H166904   3.344   1.102   1.965 -1.2048 -0.2084  0.6335
15163TIP3    H266905   3.338   0.961   2.021 -1.2976 -0.0821  0.9460
15164TIP3   OH266906   3.342   2.405   4.547  0.2986 -0.1705 -0.1035
15164TIP3    H166907   3.329   2.310   4.556 -1.0886 -0.0246 -0.3564
15164TIP3    H266908   3.299   2.442   4.623 -1.1187  0.3750 -1.1453
15165TIP3   OH266909   3.303   3.782   5.778 -0.3420 -0.3569  0.0867
15165TIP3    H166910   3.296   3.840   5.854 -1.7744 -1.5554  0.9053
15165TIP3    H266911   3.288   3.839   5.703 -0.4333  0.5737  0.7994
15166TIP3   OH266912   5.904   4.759   1.560 -0.8278  0.9208 -0.4553
15166TIP3    H166913   5.960   4.829   1.526  0.6362  0.8662  1.7427
15166TIP3    H266914   5.815   4.793   1.552 -0.5371  1.0845 -3.8578
15167TIP3   OH266915   5.680   5.217   0.245  0.0465  0.2839 -1.1248
15167TIP3    H166916   5.652   5.148   0.306 -0.0926  0.3760 -1.0828
15167TIP3    H266917   5.619   5.209   0.171 -0.5122  0.9093 -0.7387
15168TIP3   OH266918   1.453   0.242   4.417 -0.7700  0.4942 -0.6493
15168TIP3    H166919   1.530   0.292   4.389 -0.7416  0.2257 -1.0592
15168TIP3    H266920   1.455   0.163   4.362 -0.9128  0.1284 -0.1352
15169TIP3   OH266921   5.223   6.034  13.733  1.0361  0.6023 -0.1120
15169TIP3    H166922   5.190   5.986  13.809  1.3955  1.4425  0.5717
15169TIP3    H266923   5.215   5.971  13.661 -1.5978  0.5950  0.1224
15170TIP3   OH266924   4.106   1.350  14.079  0.5416  0.6024 -0.6233
15170TIP3    H166925   4.173   1.282  14.088 -2.2574 -1.9566  1.5776
15170TIP3    H266926   4.045   1.316  14.014  0.5875  2.3541 -1.6390
15171TIP3   OH266927   0.558   5.728   3.804 -0.5225  0.2174  0.0844
15171TIP3    H166928   0.633   5.756   3.855  0.8836 -1.5337 -0.9414
15171TIP3    H266929   0.513   5.664   3.859  0.7241 -1.3162 -0.6540
15172TIP3   OH266930   5.573   0.143   2.969  0.0591  0.1988  0.1707
15172TIP3    H166931   5.549   0.113   2.881 -0.0150  0.6506  0.0367
15172TIP3    H266932   5.567   0.064   3.023  2.0762 -0.5427 -0.6068
15173TIP3   OH266933   2.140   1.793  15.464 -0.2905 -0.6501  0.3249
15173TIP3    H166934   2.152   1.743  15.545  0.4526 -0.2860  0.4476
15173TIP3    H266935   2.195   1.871  15.476 -0.4587 -0.4210 -0.3794
15174TIP3   OH266936   0.471   4.742  13.453  0.0761 -0.0959  0.5957
15174TIP3    H166937   0.424   4.659  13.459 -0.7155  0.1732 -1.5023
15174TIP3    H266938   0.558   4.718  13.422 -0.0919 -0.1653  0.1767
15175TIP3   OH266939   3.110   6.438  12.836 -0.8158  0.2356  0.2641
15175TIP3    H166940   3.064   6.387  12.769 -0.6597 -0.7214  0.8673
15175TIP3    H266941   3.095   6.529  12.812 -1.2911 -0.0913 -0.7134
15176TIP3   OH266942   5.662   3.112   0.866  1.0713 -0.1354 -0.2562
15176TIP3    H166943   5.643   3.019   0.857 -1.1044  0.1715  0.7679
15176TIP3    H266944   5.749   3.115   0.906  1.0933 -1.7273 -0.1508
15177TIP3   OH266945   2.315   0.695  15.691  0.0475  0.3574  0.1825
15177TIP3    H166946   2.363   0.613  15.679  0.6585  0.6674  0.4968
15177TIP3    H266947   2.223   0.668  15.693  0.2082 -0.2553 -0.2977
15178TIP3   OH266948   5.313   1.213  16.007  0.1821  0.0759 -0.0375
15178TIP3    H166949   5.363   1.279  15.960 -0.5001  0.9958  0.4953
15178TIP3    H266950   5.227   1.214  15.966  0.6970 -1.7937 -1.2249
15179TIP3   OH266951   5.567   4.614   1.590  0.3951  0.7168  0.7046
15179TIP3    H166952   5.558   4.646   1.500 -0.6455  0.7447  0.8203
15179TIP3    H266953   5.592   4.691   1.641 -1.4959  1.2340  0.8767
15180TIP3   OH266954   1.338   4.166  10.854  0.2751 -0.0174 -0.0218
15180TIP3    H166955   1.344   4.071  10.842 -1.4163 -0.0913 -0.3557
15180TIP3    H266956   1.347   4.202  10.766 -1.3570  0.0023 -0.1941
15181TIP3   OH266957   6.289   5.003   2.218  0.5518 -0.0416 -0.1126
15181TIP3    H166958   6.254   4.934   2.161 -0.7566  0.5351 -0.0166
15181TIP3    H266959   6.247   4.987   2.303  0.0733  1.0194 -0.1512
15182TIP3   OH266960   5.948   1.680  10.780 -0.2154 -0.2247 -0.2554
15182TIP3    H166961   5.879   1.617  10.798 -0.6332 -0.2638 -1.9056
15182TIP3    H266962   5.909   1.766  10.798 -0.4986 -0.2895 -0.5525
15183TIP3   OH266963   1.333   6.516  12.803  0.4850 -0.3599  0.4974
15183TIP3    H166964   1.298   6.430  12.780 -0.2710  0.0377  0.1652
15183TIP3    H266965   1.382   6.543  12.726 -1.4647  0.6612 -0.4235
15184TIP3   OH266966   2.624   3.049   4.571  0.2765 -0.0728  0.0930
15184TIP3    H166967   2.676   3.021   4.496 -0.7942  0.4809 -0.8727
15184TIP3    H266968   2.677   3.025   4.648  2.0206  0.6034 -0.8576
15185TIP3   OH266969   3.505   5.115  13.943  0.2984 -0.8231  0.1908
15185TIP3    H166970   3.574   5.141  13.882  0.6715 -1.6399  0.2557
15185TIP3    H266971   3.489   5.023  13.922 -0.7060 -0.6651  0.2390
15186TIP3   OH266972   1.503   0.962  17.076 -0.1963 -0.1039  1.1831
15186TIP3    H166973   1.411   0.969  17.103 -0.2725 -0.7321  1.0817
15186TIP3    H266974   1.504   0.889  17.014  0.3327  0.0578  1.0017
15187TIP3   OH266975   3.805   6.684   5.878 -0.3112 -0.1161 -0.2767
15187TIP3    H166976   3.751   6.624   5.929  2.0437 -1.2280  1.0275
15187TIP3    H266977   3.799   6.767   5.925 -0.7262 -0.2819 -0.0298
15188TIP3   OH266978   3.783   0.893   5.356  0.2342  0.1666 -0.3382
15188TIP3    H166979   3.709   0.878   5.415 -0.2521  0.0629 -0.9738
15188TIP3    H266980   3.830   0.809   5.355 -0.7052 -0.3647 -1.4047
15189TIP3   OH266981   1.939   2.392  12.049  0.5594 -0.3741 -0.3592
15189TIP3    H166982   1.864   2.407  11.990 -1.7950 -1.1185  2.3380
15189TIP3    H266983   1.980   2.479  12.057 -0.8089  0.3319 -0.8109
15190TIP3   OH266984   2.800   1.529   6.534 -0.3433 -0.0377 -0.2235
15190TIP3    H166985   2.863   1.589   6.493 -0.9343  1.4614  0.9870
15190TIP3    H266986   2.839   1.442   6.524  2.5147  0.9746  1.5272
15191TIP3   OH266987   0.594   5.911   4.623 -0.1524  0.2896 -0.0783
15191TIP3    H166988   0.616   5.886   4.713 -1.8336 -0.9460  0.0015
15191TIP3    H266989   0.660   5.868   4.570  1.0760  1.3246  0.5751
15192TIP3   OH266990   1.019   2.507  14.402 -0.2286 -0.2106  0.5478
15192TIP3    H166991   1.041   2.595  14.434 -0.1208 -0.0155 -0.0592
15192TIP3    H266992   1.102   2.469  14.376 -0.4790  0.1869 -0.8843
15193TIP3   OH266993   6.536   5.405   5.669  0.4086 -0.4048 -0.1517
15193TIP3    H166994   6.545   5.486   5.619 -0.3225  0.1406  0.6009
15193TIP3    H266995   6.585   5.420   5.749 -0.6034 -0.3193  0.4576
15194TIP3   OH266996   0.877   2.817   2.593 -0.5888 -0.4481  0.4512
15194TIP3    H166997   0.960   2.790   2.554  0.3995  0.8356  1.5894
15194TIP3    H266998   0.826   2.853   2.520 -0.3524 -1.7221 -0.3468
15195TIP3   OH266999   1.215   3.596  15.903  0.0162 -0.3034  0.2791
15195TIP3    H167000   1.126   3.625  15.880  0.7433 -0.0921 -2.5572
15195TIP3    H267001   1.258   3.675  15.935 -0.5398 -0.2022  0.7914
15196TIP3   OH267002   5.438   3.650  15.840 -0.0808  0.1894  0.4098
15196TIP3    H167003   5.384   3.709  15.788 -0.1262  0.5826  0.9019
15196TIP3    H267004   5.443   3.692  15.926 -1.1358 -1.1366  1.1358
15197TIP3   OH267005   5.864   0.368  13.577  0.2700  0.3617  0.2597
15197TIP3    H167006   5.948   0.323  13.581  0.7316  1.2685  1.1065
15197TIP3    H267007   5.822   0.347  13.661 -0.6453 -0.6381 -0.4337
15198TIP3   OH267008   4.337   1.810   1.032 -0.7057 -0.5768 -0.2079
15198TIP3    H167009   4.412   1.772   0.986 -0.1977 -1.1539  1.0667
15198TIP3    H267010   4.302   1.738   1.083 -0.5633  0.3236  1.1849
15199TIP3   OH267011   4.052   0.388  12.168  0.0307  0.8793  0.5300
15199TIP3    H167012   4.135   0.350  12.139 -0.6792  0.8878 -1.5919
15199TIP3    H267013   3.996   0.313  12.188  0.1723  0.8637  0.8722
15200TIP3   OH267014   0.120   1.037  11.144 -0.0748 -0.6400  0.1758
15200TIP3    H167015   0.162   1.008  11.225  2.6354  2.2222 -0.1079
15200TIP3    H267016   0.155   0.979  11.076  0.1775 -0.9563  0.5787
15201TIP3   OH267017   0.743   5.947   3.410 -0.1288  0.2635  0.0211
15201TIP3    H167018   0.728   6.021   3.468  0.6577 -0.8250  1.6554
15201TIP3    H267019   0.657   5.906   3.400 -0.0503 -0.2976  1.5030
15202TIP3   OH267020   4.057   3.377   3.051  0.0542 -0.1909  0.2085
15202TIP3    H167021   4.043   3.404   3.142 -1.0555 -0.2844  0.0609
15202TIP3    H267022   4.055   3.459   3.001  1.1297 -0.0866  0.3142
15203TIP3   OH267023   0.857   1.996   0.331 -0.4001  0.2641  0.4688
15203TIP3    H167024   0.897   2.056   0.267  1.2180 -1.8529 -0.5836
15203TIP3    H267025   0.765   2.022   0.333 -0.4243  0.6570 -2.4615
15204TIP3   OH267026   5.617   4.008   5.721 -0.4738 -0.0193  0.2930
15204TIP3    H167027   5.658   3.928   5.753  0.2613 -0.0341 -0.6514
15204TIP3    H267028   5.640   4.075   5.786  0.2818 -0.2273  0.2380
15205TIP3   OH267029   0.197   5.600  15.419 -0.1228 -0.0696 -0.4689
15205TIP3    H167030   0.269   5.662  15.431 -1.0040  0.4540  2.4886
15205TIP3    H267031   0.203   5.541  15.494  0.4775 -3.4475 -3.0445
15206TIP3   OH267032   4.882   4.891   1.518 -0.0033  0.0807  0.4705
15206TIP3    H167033   4.848   4.924   1.601  0.9301  2.0789  0.0908
15206TIP3    H267034   4.977   4.896   1.528  0.1185  1.7235 -1.2245
15207TIP3   OH267035   3.550   1.609   0.247  0.7046 -0.0524 -0.2402
15207TIP3    H167036   3.467   1.656   0.233  0.3345 -0.3589  0.8666
15207TIP3    H267037   3.612   1.652   0.188 -0.2617  0.1240 -1.1574
15208TIP3   OH267038   4.301   2.426  11.247  0.4862  0.1910  0.5961
15208TIP3    H167039   4.357   2.455  11.175 -0.1328  1.0487  0.4530
15208TIP3    H267040   4.267   2.342  11.218 -1.1804  1.3434 -0.9143
15209TIP3   OH267041   1.082   2.060   2.093  0.1230  0.1444  0.2371
15209TIP3    H167042   1.151   2.126   2.103  0.3148  0.3210 -1.9609
15209TIP3    H267043   1.129   1.977   2.092  0.3980  0.2860 -1.6470
15210TIP3   OH267044   0.201   1.151  14.136 -0.2596  0.0445 -0.2131
15210TIP3    H167045   0.132   1.090  14.164 -0.1279  0.0471  0.1173
15210TIP3    H267046   0.280   1.119  14.180  0.8572 -2.4712 -3.7608
15211TIP3   OH267047   2.490   5.742   0.271  0.3864  0.1299  0.6562
15211TIP3    H167048   2.494   5.781   0.358  1.9779  0.7614  0.3257
15211TIP3    H267049   2.402   5.761   0.239  0.0146  0.4497  1.8635
15212TIP3   OH267050   6.354   3.960   5.511  0.1420  0.3314  0.1990
15212TIP3    H167051   6.373   3.903   5.586  2.6014 -2.2830 -2.2984
15212TIP3    H267052   6.421   4.027   5.515 -0.7734  1.2101  1.2682
15213TIP3   OH267053   0.164   1.566  15.495 -0.4566  0.2333  0.4039
15213TIP3    H167054   0.246   1.610  15.517 -0.0294  0.3235 -1.2323
15213TIP3    H267055   0.180   1.530  15.407 -2.0394 -0.0655  0.2260
15214TIP3   OH267056   3.747   3.867   3.911  0.0738 -0.7242  0.1962
15214TIP3    H167057   3.714   3.797   3.966  0.4104 -0.5054  0.6817
15214TIP3    H267058   3.706   3.946   3.945  0.6392 -0.5270  0.4370
15215TIP3   OH267059   1.801   1.388   1.685  0.0376  0.1651 -0.0844
15215TIP3    H167060   1.825   1.298   1.706  0.1547  0.2040 -0.0497
15215TIP3    H267061   1.861   1.412   1.614  0.6221  0.5191  0.5170
15216TIP3   OH267062   5.586   3.025  13.535  0.2860  0.0267  0.0455
15216TIP3    H167063   5.546   3.112  13.535  3.2257  1.4434  0.4631
15216TIP3    H267064   5.584   2.997  13.444 -0.6406  0.5643 -0.0973
15217TIP3   OH267065   4.453   5.941  13.857 -0.4992  0.3822  0.0312
15217TIP3    H167066   4.495   5.940  13.771  0.4763 -0.2380  0.5148
15217TIP3    H267067   4.468   6.029  13.891  1.4806 -0.2108  0.7262
15218TIP3   OH267068   4.313   3.428  16.849 -0.2165 -0.3913  0.4153
15218TIP3    H167069   4.296   3.473  16.932  0.0745  1.2244 -0.3656
15218TIP3    H267070   4.244   3.460  16.791  0.8284  0.1464 -0.5548
15219TIP3   OH267071   6.469   2.064   0.608 -0.0194  0.0143 -0.2081
15219TIP3    H167072   6.378   2.065   0.580  0.2264  1.6532 -1.0168
15219TIP3    H267073   6.476   1.988   0.666 -1.5714 -0.8837 -1.1765
15220TIP3   OH267074   1.846   3.433  16.922 -0.0605  0.1848 -0.1253
15220TIP3    H167075   1.803   3.439  16.837  2.3082  1.1715 -1.2877
15220TIP3    H267076   1.805   3.502  16.975 -1.3361 -0.2459 -0.5387
15221TIP3   OH267077   2.124   0.513  14.643  0.0140  0.7241 -0.0650
15221TIP3    H167078   2.067   0.582  14.609  0.4516  0.3437 -1.6253
15221TIP3    H267079   2.210   0.555  14.652  0.0659  0.6331 -0.1341
15222TIP3   OH267080   6.488   0.594  10.955 -0.8970 -0.6965 -0.4995
15222TIP3    H167081   6.547   0.563  10.886  0.0624 -2.0924  0.9224
15222TIP3    H267082   6.444   0.515  10.986 -2.6327  0.1626 -0.6869
15223TIP3   OH267083   2.661   4.099  11.047 -0.0284 -0.5209 -0.0734
15223TIP3    H167084   2.699   4.016  11.018 -1.3881 -0.3477 -2.5223
15223TIP3    H267085   2.573   4.076  11.076  0.0989 -0.1482  0.6129
15224TIP3   OH267086   2.311   2.849   4.472 -0.3040  0.0975 -0.3355
15224TIP3    H167087   2.312   2.768   4.421 -0.1673 -1.0134  1.3882
15224TIP3    H267088   2.310   2.820   4.563  1.3612  2.0527  0.3404
15225TIP3   OH267089   0.401   2.355   0.546 -0.3056  0.3432  0.0526
15225TIP3    H167090   0.405   2.436   0.598 -0.4149  0.2012  0.2793
15225TIP3    H267091   0.454   2.374   0.469 -1.2434  1.0390 -0.4406
15226TIP3   OH267092   2.104   3.452  13.264 -0.0962  0.4128  0.1280
15226TIP3    H167093   2.081   3.396  13.190  1.3584 -0.8619  0.6430
15226TIP3    H267094   2.174   3.508  13.232 -0.7575  1.1784 -0.0225
15227TIP3   OH267095   2.038   3.920   6.732 -0.0956  0.1011 -0.3512
15227TIP3    H167096   1.989   3.876   6.662 -1.3824 -0.7367  1.0333
15227TIP3    H267097   1.973   3.932   6.802  1.3812  0.0758  1.0528
15228TIP3   OH267098   6.075   3.616   0.879 -0.0993  0.4607 -0.0108
15228TIP3    H167099   5.996   3.630   0.827 -0.5377  1.1140  0.8276
15228TIP3    H267100   6.043   3.598   0.967  0.6634 -0.1605  0.1452
15229TIP3   OH267101   3.792   0.270  11.757 -0.5385  0.7910 -0.2380
15229TIP3    H167102   3.828   0.183  11.740 -0.3311  1.3441 -2.8984
15229TIP3    H267103   3.869   0.327  11.763 -0.7358  1.0700 -0.3465
15230TIP3   OH267104   3.923   4.270   1.593  0.3971 -0.0645 -0.4688
15230TIP3    H167105   3.837   4.244   1.627 -0.0361  1.2248 -0.5581
15230TIP3    H267106   3.935   4.217   1.515 -0.5893  0.1568 -0.7881
15231TIP3   OH267107   0.031   0.443   2.522  0.7724  0.2946  0.4060
15231TIP3    H167108   0.069   0.434   2.434  0.7901  0.9968  0.3433
15231TIP3    H267109  -0.042   0.504   2.510 -0.4089 -1.0732  0.5168
15232TIP3   OH267110   6.075   6.202   3.035 -0.8318  0.5886  0.1377
15232TIP3    H167111   6.081   6.123   2.981  3.2517  1.2843 -0.5614
15232TIP3    H267112   6.044   6.269   2.974 -1.4217  0.2185  0.0182
15233TIP3   OH267113   3.209   1.483  12.784 -0.3186  0.5453 -0.6195
15233TIP3    H167114   3.140   1.446  12.729 -0.6179 -0.3896  0.3510
15233TIP3    H267115   3.254   1.407  12.821 -0.8372  1.1239  1.2857
15234TIP3   OH267116   6.595   1.872  10.796  0.0427  0.2267  0.0384
15234TIP3    H167117   6.656   1.830  10.856  1.4786  1.8514 -0.2214
15234TIP3    H267118   6.509   1.856  10.833  0.5844 -2.4913  0.1915
15235TIP3   OH267119   4.164   0.157   5.592 -0.3491 -0.5265 -0.0616
15235TIP3    H167120   4.157   0.121   5.681 -0.1936  0.3850  0.3281
15235TIP3    H267121   4.256   0.182   5.585 -0.3293 -0.7409 -0.5408
15236TIP3   OH267122   5.728   0.002  16.418 -0.1301 -0.6105 -0.4755
15236TIP3    H167123   5.713   0.096  16.408 -2.2149 -0.6496  1.7149
15236TIP3    H267124   5.664  -0.039  16.360  0.5254 -0.6851 -1.1500
15237TIP3   OH267125   1.209   4.953   6.249  0.1126 -0.2252  0.3533
15237TIP3    H167126   1.195   4.867   6.290 -3.3416  1.4120  2.8301
15237TIP3    H267127   1.260   5.001   6.314  0.1156  0.3278 -0.0585
15238TIP3   OH267128   0.701   4.218   2.012 -0.1238 -0.4517  0.1455
15238TIP3    H167129   0.718   4.307   1.979  0.4893 -1.0571 -1.2273
15238TIP3    H267130   0.780   4.196   2.061 -1.3736  0.7658  2.7847
15239TIP3   OH267131   0.324   1.452   6.236  0.0253 -0.6900 -0.7122
15239TIP3    H167132   0.344   1.363   6.207 -1.5572 -1.4611  0.4972
15239TIP3    H267133   0.252   1.480   6.179 -0.5346 -0.7859 -0.0562
15240TIP3   OH267134   5.283   5.608  13.371  0.2422  0.1273  0.0062
15240TIP3    H167135   5.317   5.530  13.415 -0.0636 -0.5475 -0.9270
15240TIP3    H267136   5.311   5.598  13.280  0.4679  1.2693 -0.0565
15241TIP3   OH267137   5.385   0.681   2.433 -0.2680  0.2092  0.0725
15241TIP3    H167138   5.313   0.661   2.493  1.4527  0.7311  2.3702
15241TIP3    H267139   5.435   0.750   2.476  1.3381  0.2239 -1.7142
15242TIP3   OH267140   0.476   1.880  11.161  0.2676 -0.0302 -0.0460
15242TIP3    H167141   0.544   1.895  11.227 -1.4319 -0.5725  1.8822
15242TIP3    H267142   0.525   1.863  11.080  2.3856  1.1547  0.9360
15243TIP3   OH267143   5.463   4.780   3.859 -0.3353  0.0255 -0.4999
15243TIP3    H167144   5.442   4.686   3.856  0.2874 -0.1253 -0.1327
15243TIP3    H267145   5.528   4.788   3.929 -0.0440  0.6653 -0.8397
15244TIP3   OH267146   2.323   0.888   2.212 -0.1345 -0.3787 -1.2679
15244TIP3    H167147   2.243   0.891   2.159  0.2665 -0.2229 -1.8671
15244TIP3    H267148   2.344   0.795   2.219 -1.8847 -0.6388  1.1961
15245TIP3   OH267149   1.711   0.912   4.004 -0.1302 -0.0062 -0.0573
15245TIP3    H167150   1.660   0.831   4.003 -2.4666  1.3756 -4.2444
15245TIP3    H267151   1.791   0.890   3.956 -0.0051 -0.2543  0.2624
15246TIP3   OH267152   5.369   0.290  16.538  0.0013  0.4023 -0.0593
15246TIP3    H167153   5.457   0.323  16.516 -0.1232  0.1718 -0.9358
15246TIP3    H267154   5.386   0.210  16.588  0.2962  1.1514  1.0557
15247TIP3   OH267155   3.018   2.722  15.960 -0.0178 -0.8244  0.4244
15247TIP3    H167156   3.080   2.672  15.907  2.2861  1.4383  0.9032
15247TIP3    H267157   2.995   2.797  15.906 -0.2473 -0.2496  1.3208
15248TIP3   OH267158   2.581   3.518  16.363 -0.0738  0.3806  0.0748
15248TIP3    H167159   2.520   3.540  16.292  1.8515  2.2781 -1.0399
15248TIP3    H267160   2.656   3.479  16.318  1.1562  1.5890  1.0477
15249TIP3   OH267161   4.855   3.558   5.650 -0.0329 -0.3334 -0.1902
15249TIP3    H167162   4.846   3.480   5.705  0.5757 -1.2381 -1.3523
15249TIP3    H267163   4.949   3.577   5.650 -0.0531 -0.2393 -0.8010
15250TIP3   OH267164   3.051   5.159   0.455  0.3815  0.0928  0.2372
15250TIP3    H167165   3.116   5.109   0.505  0.4188  0.5115  0.6193
15250TIP3    H267166   3.088   5.167   0.368  0.5692 -0.1849  0.2920
15251TIP3   OH267167   2.446   0.922   5.723  0.1890  0.5369  0.4310
15251TIP3    H167168   2.505   0.992   5.750 -0.5450  2.8251 -3.5459
15251TIP3    H267169   2.361   0.945   5.762 -0.0683  1.9476 -0.9229
15252TIP3   OH267170   0.922   1.716   1.493  0.4291  0.0583 -0.1640
15252TIP3    H167171   0.973   1.712   1.573 -0.4391  0.9527  0.4413
15252TIP3    H267172   0.887   1.628   1.482  2.1282 -0.5679 -0.6067
15253TIP3   OH267173   1.606   6.622   0.942 -0.2828 -0.7108 -0.0560
15253TIP3    H167174   1.645   6.537   0.921 -0.4318 -0.5430 -1.0335
15253TIP3    H267175   1.566   6.609   1.028  0.4987 -1.3598  0.2255
15254TIP3   OH267176   1.702   4.098  12.510 -0.1561 -0.1406 -0.4675
15254TIP3    H167177   1.787   4.053  12.518 -0.0674 -0.0505 -0.8923
15254TIP3    H267178   1.640   4.039  12.551  0.0444 -0.4183 -0.5616
15255TIP3   OH267179   2.494   3.629  12.989  0.3131  0.9502  0.5495
15255TIP3    H167180   2.413   3.579  12.983 -0.3781  2.4278 -3.0678
15255TIP3    H267181   2.478   3.692  13.059 -1.0142  0.1513  0.9904
15256TIP3   OH267182   3.965   1.596   1.212 -0.0051 -0.1956 -0.6768
15256TIP3    H167183   3.982   1.662   1.279  1.3900 -0.3166 -0.9026
15256TIP3    H267184   3.904   1.639   1.151 -1.5259 -0.1938  0.8088
15257TIP3   OH267185   4.112   3.488  14.133  0.1613 -0.1510  0.0336
15257TIP3    H167186   4.047   3.421  14.153  0.0335 -0.2695 -0.7777
15257TIP3    H267187   4.069   3.548  14.072  0.6787 -0.0147 -0.2083
15258TIP3   OH267188   2.836   4.448  14.437 -0.0288  0.2249 -0.3247
15258TIP3    H167189   2.847   4.390  14.362  0.5029  0.0587 -0.1243
15258TIP3    H267190   2.754   4.495  14.420 -1.0220 -1.3415  0.0209
15259TIP3   OH267191   0.329   2.887   5.433 -0.0991  0.2421 -0.0414
15259TIP3    H167192   0.233   2.879   5.435 -0.1354  0.7736  2.5918
15259TIP3    H267193   0.359   2.804   5.397 -1.5255 -0.2968 -0.0172
15260TIP3   OH267194   4.792   1.926  15.341 -0.3315  0.2556  0.4169
15260TIP3    H167195   4.737   1.849  15.325  1.4540 -1.0722  0.5958
15260TIP3    H267196   4.841   1.904  15.420  1.6681  0.7468 -0.6654
15261TIP3   OH267197   0.291   1.184  16.636 -0.3610 -0.2657 -0.1003
15261TIP3    H167198   0.310   1.092  16.655  0.1404 -0.2886 -0.7004
15261TIP3    H267199   0.361   1.232  16.682 -0.3649 -0.2082 -0.1540
15262TIP3   OH267200   3.711   1.801   5.900 -0.3395 -0.3272  0.4522
15262TIP3    H167201   3.649   1.776   5.969 -0.4312  0.7403  0.7655
15262TIP3    H267202   3.795   1.765   5.929 -0.3415  0.2767  1.2156
15263TIP3   OH267203   1.631   0.900  11.701  0.3964 -0.2097 -0.0529
15263TIP3    H167204   1.592   0.888  11.787  0.1502 -0.0074 -0.1376
15263TIP3    H267205   1.608   0.821  11.652  0.0465 -0.0682 -0.1202
15264TIP3   OH267206   3.044   2.765   2.261 -0.5005  0.0109 -0.2756
15264TIP3    H167207   3.079   2.837   2.209 -0.3048 -0.2099 -0.4486
15264TIP3    H267208   2.996   2.808   2.332  1.3081  0.3218  0.7873
15265TIP3   OH267209   0.155   4.437   4.845  0.4822  0.1117  0.3193
15265TIP3    H167210   0.124   4.366   4.902 -0.3783 -0.7285 -1.1809
15265TIP3    H267211   0.231   4.473   4.892  0.1526 -0.9525  1.7171
15266TIP3   OH267212   2.904   0.529  16.112 -0.2038 -0.0895  0.2452
15266TIP3    H167213   2.829   0.514  16.170  0.4134  1.8776  1.5789
15266TIP3    H267214   2.981   0.521  16.168  0.4297  1.3809 -0.3951
15267TIP3   OH267215   6.747   3.771  15.625 -0.0461  0.3040 -0.5907
15267TIP3    H167216   6.681   3.831  15.589 -0.5324 -0.3579 -0.8242
15267TIP3    H267217   6.751   3.699  15.561  2.8474  1.6065 -1.9726
15268TIP3   OH267218   1.192   0.862  12.599 -0.2195  0.8224  0.2657
15268TIP3    H167219   1.280   0.887  12.626 -0.1482 -0.0006  0.7953
15268TIP3    H267220   1.150   0.945  12.576  0.5784  1.2524  0.3395
15269TIP3   OH267221   0.366   4.505  12.133 -0.0754 -0.2484 -0.4685
15269TIP3    H167222   0.294   4.456  12.173 -0.2693 -0.3597 -0.9569
15269TIP3    H267223   0.329   4.591  12.114  0.5164  0.4010  1.2133
15270TIP3   OH267224   0.201   0.576  15.129 -0.0952 -0.5388 -0.0777
15270TIP3    H167225   0.269   0.571  15.062 -0.0199 -0.7259  0.0121
15270TIP3    H267226   0.127   0.527  15.093 -0.2438 -0.1948 -0.2465
15271TIP3   OH267227   6.215   1.949   3.229  0.0302 -0.2650 -0.1483
15271TIP3    H167228   6.293   1.942   3.285 -0.5259  0.1495  0.7015
15271TIP3    H267229   6.163   2.019   3.270 -0.5519 -0.1990 -0.9899
15272TIP3   OH267230   4.281   5.285   2.542 -0.2210  0.6752  0.1662
15272TIP3    H167231   4.265   5.378   2.527 -2.3212  0.4000  0.5589
15272TIP3    H267232   4.306   5.278   2.634  0.3409  0.8905  0.0313
15273TIP3   OH267233   1.038   3.864   4.558 -0.2601  0.2652  0.3224
15273TIP3    H167234   0.954   3.834   4.592  0.0895 -0.9331  0.1634
15273TIP3    H267235   1.095   3.868   4.635 -0.2241  0.2350  0.2977
15274TIP3   OH267236   5.007   2.587  12.301 -0.1971 -0.1239  0.2215
15274TIP3    H167237   5.080   2.639  12.333 -0.3251  0.2595 -0.1035
15274TIP3    H267238   4.934   2.609  12.359 -0.4276  0.5662 -0.3257
15275TIP3   OH267239   5.639   0.359   3.493  0.8651  0.2018  0.3540
15275TIP3    H167240   5.699   0.357   3.567 -0.2396  2.6769  1.3906
15275TIP3    H267241   5.572   0.295   3.514 -1.0013  2.8853  2.9721
15276TIP3   OH267242   2.581   3.974  13.794 -0.1807  0.3548 -0.0984
15276TIP3    H167243   2.665   3.976  13.747 -1.0823 -0.7042 -1.8079
15276TIP3    H267244   2.568   4.064  13.824  0.4241  1.0572 -1.8915
15277TIP3   OH267245   1.609   1.150   6.658  0.1209  0.9281  0.6653
15277TIP3    H167246   1.626   1.242   6.678 -1.8145  1.2936  0.7054
15277TIP3    H267247   1.655   1.135   6.575 -0.4412  2.2301  0.0961
15278TIP3   OH267248   1.703   1.437  13.944  0.0188  0.1551  0.1268
15278TIP3    H167249   1.612   1.453  13.969 -1.0255 -2.0608 -2.1129
15278TIP3    H267250   1.745   1.407  14.025 -1.9535 -1.5668  0.5422
15279TIP3   OH267251   3.623   2.553  10.670  0.5497 -0.0009  0.1366
15279TIP3    H167252   3.712   2.525  10.649  0.0022 -0.6614 -1.3495
15279TIP3    H267253   3.635   2.623  10.734  2.1661  0.4698 -0.6548
15280TIP3   OH267254   5.351   1.466  10.517 -0.4735  0.0489  0.2000
15280TIP3    H167255   5.336   1.399  10.451 -0.4276 -0.5922  0.8245
15280TIP3    H267256   5.271   1.467  10.569  0.0224 -0.4482  0.9900
15281TIP3   OH267257   4.356   3.356  13.632  0.1501  0.1440 -0.1316
15281TIP3    H167258   4.428   3.415  13.652  0.0970  0.9018 -2.0991
15281TIP3    H267259   4.329   3.321  13.717  2.4389  0.2979  0.6739
15282TIP3   OH267260   2.381   2.787   6.034  0.2195 -0.4610  0.1493
15282TIP3    H167261   2.323   2.824   6.101  0.7736  5.2313 -2.2374
15282TIP3    H267262   2.324   2.728   5.985 -2.2805  1.1781  0.9226
15283TIP3   OH267263   1.345   3.833  15.384 -0.3256 -0.2651  0.5028
15283TIP3    H167264   1.387   3.919  15.390 -0.1058 -0.3697  0.4749
15283TIP3    H267265   1.295   3.826  15.465  1.2622 -0.9423  1.4560
15284TIP3   OH267266   2.230   1.896   6.042 -0.0613 -0.1852 -0.7335
15284TIP3    H167267   2.156   1.866   6.095  0.2826 -0.2994 -0.3184
15284TIP3    H267268   2.253   1.981   6.079 -1.1866  0.7296 -2.0539
15285TIP3   OH267269   0.189   5.832   1.168  0.2085 -0.3231 -0.0538
15285TIP3    H167270   0.127   5.857   1.236  1.0777 -3.3673  1.9483
15285TIP3    H267271   0.205   5.913   1.119 -2.0720  1.4434  1.9926
15286TIP3   OH267272   2.847   4.512   4.916 -0.0031 -0.0378 -0.3676
15286TIP3    H167273   2.820   4.586   4.971 -0.7790 -0.1419 -0.6041
15286TIP3    H267274   2.927   4.480   4.957 -0.6500 -0.2119  0.7943
15287TIP3   OH267275   1.065   5.475   4.771 -0.1278 -0.2339  0.1675
15287TIP3    H167276   1.007   5.401   4.757  0.2613 -0.1184 -2.3037
15287TIP3    H267277   1.011   5.552   4.752  0.7299 -0.1242 -2.0317
15288TIP3   OH267278   5.053   3.576   5.134 -0.5255 -0.0798  0.3606
15288TIP3    H167279   5.090   3.581   5.045  1.6393  1.1220  1.2774
15288TIP3    H267280   5.019   3.663   5.151 -0.0150 -0.0157  1.0802
15289TIP3   OH267281   0.796   0.694   3.439 -0.0878  0.0863 -0.1315
15289TIP3    H167282   0.889   0.718   3.440  0.1361 -0.7162 -1.4125
15289TIP3    H267283   0.777   0.675   3.348 -0.7382 -2.7345  0.5675
15290TIP3   OH267284   1.272   6.171  11.008 -0.3645 -0.7373 -0.6052
15290TIP3    H167285   1.290   6.105  10.942  0.4164 -0.2206 -0.9126
15290TIP3    H267286   1.214   6.127  11.071  0.1776 -1.7174 -0.7877
15291TIP3   OH267287   0.338   5.509  13.381  0.2374  0.1686 -0.1266
15291TIP3    H167288   0.360   5.522  13.473 -0.0716  0.5529 -0.1050
15291TIP3    H267289   0.417   5.533  13.333  0.8025 -1.1933  0.0993
15292TIP3   OH267290   6.453   4.659  15.055  0.5621 -0.4396 -0.2897
15292TIP3    H167291   6.427   4.745  15.088 -1.6169 -1.1390 -0.0661
15292TIP3    H267292   6.483   4.676  14.966  1.3956  0.7270  0.2011
15293TIP3   OH267293   5.517   2.599   5.378 -0.7356 -0.5076 -0.2199
15293TIP3    H167294   5.438   2.605   5.432 -0.5221 -1.2090  0.1720
15293TIP3    H267295   5.572   2.534   5.422 -0.2235 -0.5129 -0.8582
15294TIP3   OH267296   1.046   0.738   2.054 -0.8078 -0.0398  0.3908
15294TIP3    H167297   1.125   0.718   2.105 -0.4682  0.4631  0.0617
15294TIP3    H267298   0.985   0.775   2.118 -0.9809 -0.9243  0.7558
15295TIP3   OH267299   2.573   1.809  14.906 -0.1333  0.7128 -0.6538
15295TIP3    H167300   2.483   1.824  14.936 -0.2270 -0.1088 -0.5204
15295TIP3    H267301   2.604   1.737  14.960  0.3028  0.4062 -1.3155
15296TIP3   OH267302   2.664   0.632  14.834  0.2359 -0.3588 -0.0326
15296TIP3    H167303   2.654   0.541  14.807 -3.2507  0.2727 -1.1453
15296TIP3    H267304   2.630   0.635  14.923  1.2683 -0.3008  0.3703
15297TIP3   OH267305   6.210   6.726  11.984 -0.3574  0.2717 -0.7250
15297TIP3    H167306   6.158   6.804  11.965 -1.9158 -0.6194 -0.2256
15297TIP3    H267307   6.152   6.671  12.038  0.9103 -0.9772 -0.6026
15298TIP3   OH267308   0.442   3.950  11.070 -0.7353  0.0460 -0.2590
15298TIP3    H167309   0.523   3.961  11.020 -1.2363  1.8849 -0.7279
15298TIP3    H267310   0.412   3.862  11.050  0.3731 -0.1171 -1.2520
15299TIP3   OH267311   3.349   0.126  12.668  0.4200 -0.7151  0.3532
15299TIP3    H167312   3.386   0.214  12.660  0.5951 -0.7257  0.9615
15299TIP3    H267313   3.255   0.141  12.675  0.3826 -0.6286 -0.3167
15300TIP3   OH267314   3.996   3.058   4.372 -0.2208  0.1493  0.2653
15300TIP3    H167315   4.040   3.046   4.456 -0.5356  0.6675  0.5059
15300TIP3    H267316   4.067   3.061   4.308 -0.0722 -2.2368  0.2680
15301TIP3   OH267317   1.152   2.908   1.118 -0.1323 -0.0261 -0.3670
15301TIP3    H167318   1.140   2.989   1.169 -0.2082 -0.3929  0.1938
15301TIP3    H267319   1.096   2.921   1.042  0.0927  0.5879 -0.4370
15302TIP3   OH267320   1.055   2.734   1.336  0.4663  0.1466 -0.4454
15302TIP3    H167321   1.089   2.799   1.275  1.1710 -0.7470 -1.0234
15302TIP3    H267322   1.122   2.666   1.338 -0.2959 -0.6007  0.0923
15303TIP3   OH267323   4.787   1.565  11.487 -0.4311  0.8086 -0.6611
15303TIP3    H167324   4.882   1.552  11.488 -0.3294  1.5334 -0.8168
15303TIP3    H267325   4.766   1.590  11.577 -0.4815  0.5705 -0.6076
15304TIP3   OH267326   1.252   6.433   5.019 -0.2486  0.4949  0.2927
15304TIP3    H167327   1.272   6.522   5.050 -0.4694  0.4180  0.6539
15304TIP3    H267328   1.166   6.414   5.055  0.2475 -0.2801  1.0886
15305TIP3   OH267329   6.135   6.449   1.807 -0.0511  0.2331  0.5194
15305TIP3    H167330   6.222   6.488   1.814 -1.4806  4.0180 -1.2255
15305TIP3    H267331   6.090   6.474   1.887 -0.4842  0.9833  0.0568
15306TIP3   OH267332   3.481   2.303  15.962  0.4360 -0.0098  0.6915
15306TIP3    H167333   3.515   2.232  16.016 -0.2740 -0.3926  0.6353
15306TIP3    H267334   3.546   2.374  15.972  1.0166 -0.5730  0.9329
15307TIP3   OH267335   5.219   1.328  16.266  0.7390  0.0312 -0.4370
15307TIP3    H167336   5.283   1.304  16.200 -0.5266 -1.8125 -1.0354
15307TIP3    H267337   5.137   1.339  16.218 -0.6153 -3.1261  0.9644
15308TIP3   OH267338   0.818   3.731  16.580  0.4322  0.0371 -0.0644
15308TIP3    H167339   0.787   3.654  16.627  2.7820 -1.8425 -1.5022
15308TIP3    H267340   0.913   3.731  16.594  1.2689 -0.6990 -4.8305
15309TIP3   OH267341   4.072   3.279   4.687 -0.5145 -0.4416 -0.0991
15309TIP3    H167342   4.088   3.203   4.632 -0.8984 -0.3716 -0.3056
15309TIP3    H267343   3.983   3.267   4.720 -0.2087 -0.5908  0.6745
15310TIP3   OH267344   5.680   1.992   4.375 -0.1346 -0.4983  0.1047
15310TIP3    H167345   5.599   1.955   4.340 -0.8462 -1.0650  2.2661
15310TIP3    H267346   5.749   1.934   4.341 -0.7896 -1.0382 -0.3266
15311TIP3   OH267347   0.884   2.445   5.942 -0.4538 -0.1373 -0.3612
15311TIP3    H167348   0.797   2.462   5.906 -0.9392 -0.5910  0.5733
15311TIP3    H267349   0.871   2.444   6.036  0.8044  1.0352 -0.1647
15312TIP3   OH267350   6.217   2.454   3.150  0.2640  0.1740 -0.1268
15312TIP3    H167351   6.292   2.482   3.098  0.4132  0.4178  0.2160
15312TIP3    H267352   6.141   2.493   3.107  0.3474  0.0426 -0.3934
15313TIP3   OH267353   1.959   4.080  13.406  0.1463  0.4287 -0.4452
15313TIP3    H167354   1.877   4.041  13.436  0.1868 -0.0669 -0.9714
15313TIP3    H267355   1.982   4.030  13.327  1.0083  0.4870 -0.2385
15314TIP3   OH267356   3.748   5.439  16.863 -0.3418  0.3832  0.5739
15314TIP3    H167357   3.801   5.448  16.941 -1.0925  0.4707  1.0788
15314TIP3    H267358   3.792   5.371  16.812  1.0755  1.4931  0.2824
15315TIP3   OH267359   5.165   0.323   0.078  0.4050 -0.3260  0.1683
15315TIP3    H167360   5.229   0.278   0.022  1.1321 -0.8553  1.4234
15315TIP3    H267361   5.106   0.367   0.016  2.7190  1.2286 -0.9961
15316TIP3   OH267362   3.603   6.753   0.856  0.5652 -0.2734 -0.5671
15316TIP3    H167363   3.644   6.674   0.890  1.2377 -0.8463 -2.6311
15316TIP3    H267364   3.561   6.725   0.774  3.6184  2.1302 -3.0676
15317TIP3   OH267365   2.222   0.834  12.551  0.0549 -0.2572 -0.0720
15317TIP3    H167366   2.262   0.754  12.517 -0.6362 -1.5675  2.0538
15317TIP3    H267367   2.264   0.847  12.636 -0.1833  1.3768 -0.1970
15318TIP3   OH267368   0.169   6.336  11.612 -0.7757 -0.7891  0.1552
15318TIP3    H167369   0.241   6.349  11.550 -1.5024  0.0423 -0.5198
15318TIP3    H267370   0.118   6.265  11.575 -1.1084 -0.4127 -0.1171
15319TIP3   OH267371   1.081   5.744  13.455 -0.5098  0.3873 -0.3034
15319TIP3    H167372   1.096   5.721  13.547  2.5511 -1.6229 -1.2176
15319TIP3    H267373   1.152   5.805  13.434 -0.7341  0.2466 -1.5044
15320TIP3   OH267374   4.362   3.450  13.014  0.2001  1.0395  0.4164
15320TIP3    H167375   4.362   3.500  13.096  1.1197  0.6986  0.6252
15320TIP3    H267376   4.298   3.380  13.029 -0.6521  1.7890  0.3371
15321TIP3   OH267377   5.728   5.325   1.259 -0.0917 -0.3860 -0.4734
15321TIP3    H167378   5.713   5.412   1.222  1.7330  0.9111  1.7294
15321TIP3    H267379   5.695   5.331   1.349  0.7366 -1.7292 -0.0743
15322TIP3   OH267380   5.111   1.985   1.491 -0.0132  0.8355  0.2681
15322TIP3    H167381   5.054   1.995   1.415 -0.6586  1.4089  0.8244
15322TIP3    H267382   5.100   2.066   1.541 -1.2309 -0.3958  2.0796
15323TIP3   OH267383   4.004   4.389  13.312  0.0821  0.1151  0.1961
15323TIP3    H167384   3.971   4.419  13.228 -0.1317  2.0569  0.9538
15323TIP3    H267385   3.933   4.405  13.374  0.1559 -1.4875  0.7223
15324TIP3   OH267386   3.693   1.566  14.003  0.0969  0.2507  0.1177
15324TIP3    H167387   3.626   1.611  13.952  1.4184  0.5233 -1.4298
15324TIP3    H267388   3.659   1.478  14.016 -1.3643  0.9183  0.9515
15325TIP3   OH267389   1.179   0.618   4.058 -0.2501  0.2918  0.0814
15325TIP3    H167390   1.166   0.661   4.142 -3.7493 -1.2455  0.3816
15325TIP3    H267391   1.109   0.554   4.052  1.2010 -1.1152 -3.0885
15326TIP3   OH267392   2.846   3.727  15.256 -0.1829  0.3381  0.1553
15326TIP3    H167393   2.925   3.677  15.232  0.0721  0.7357  0.1588
15326TIP3    H267394   2.797   3.735  15.175  1.2436  2.6986 -0.5309
15327TIP3   OH267395   5.811   3.597  15.123  1.0009 -0.0120 -0.0090
15327TIP3    H167396   5.732   3.608  15.175  1.1047  1.3344 -0.1251
15327TIP3    H267397   5.783   3.548  15.046  0.4998 -0.4473  0.4459
15328TIP3   OH267398   6.040   4.274   1.037 -0.5629  0.2188  0.6252
15328TIP3    H167399   6.104   4.252   1.104 -0.3320  0.7358  0.5738
15328TIP3    H267400   6.070   4.357   1.001 -0.7226 -0.0201 -0.0716
15329TIP3   OH267401   2.875   3.238  17.053  0.3222 -0.1537  0.1009
15329TIP3    H167402   2.869   3.255  17.147 -0.3546 -1.2444  0.2774
15329TIP3    H267403   2.786   3.252  17.020  0.6608  0.6913 -0.4611
15330TIP3   OH267404   5.419   6.192   0.457  0.0083  0.2355 -0.0377
15330TIP3    H167405   5.344   6.211   0.401  1.3886 -0.4679 -2.2056
15330TIP3    H267406   5.466   6.275   0.463 -0.1254  0.3048  0.0418
15331TIP3   OH267407   5.621   2.767   5.173  0.2767  0.0760  0.3071
15331TIP3    H167408   5.539   2.804   5.141  0.5795  0.7209  0.2670
15331TIP3    H267409   5.598   2.727   5.257  0.1055  1.0408  0.7231
15332TIP3   OH267410   2.395   6.489   3.750  0.1284 -0.0843 -0.3728
15332TIP3    H167411   2.429   6.432   3.819  0.1405 -0.8365 -0.9912
15332TIP3    H267412   2.453   6.564   3.750 -0.9541  0.8054  1.6742
15333TIP3   OH267413   2.847   4.698   3.785  0.4858 -0.3416  0.1731
15333TIP3    H167414   2.871   4.780   3.828  0.4168 -1.1779  1.8535
15333TIP3    H267415   2.757   4.683   3.811  0.2111 -0.5159 -0.8534
15334TIP3   OH267416   3.893   3.963  14.828 -0.0655 -0.7663  0.2955
15334TIP3    H167417   3.811   3.935  14.786  0.2602  0.1982 -1.0241
15334TIP3    H267418   3.961   3.913  14.782  0.3624  0.8384 -0.8617
15335TIP3   OH267419   5.632   0.996   3.915  0.3925  0.1967 -0.3453
15335TIP3    H167420   5.679   0.967   3.993  0.8520  2.2966  0.1877
15335TIP3    H267421   5.539   0.996   3.941  0.1814 -2.5843 -0.9600
15336TIP3   OH267422   0.349   5.514   0.271 -0.0433  0.3679  0.2012
15336TIP3    H167423   0.353   5.453   0.345  1.2613  0.4312  0.1933
15336TIP3    H267424   0.316   5.461   0.199  0.7498 -0.2437  0.2821
15337TIP3   OH267425   0.057   1.025  11.740  0.9185 -0.0358  0.2755
15337TIP3    H167426   0.016   1.108  11.718 -0.7626 -1.0202 -0.4114
15337TIP3    H267427  -0.012   0.974  11.782  0.9919 -2.2294 -2.1536
15338TIP3   OH267428   1.332   5.991   3.870 -0.7694 -0.5598 -0.0470
15338TIP3    H167429   1.266   5.925   3.851 -1.2721  0.1420 -0.7716
15338TIP3    H267430   1.345   5.984   3.965  0.2070 -2.6289 -0.3110
15339TIP3   OH267431   6.117   0.339   1.528  0.3139 -0.3925 -0.3591
15339TIP3    H167432   6.210   0.315   1.527  0.4830  0.2640 -2.3573
15339TIP3    H267433   6.079   0.288   1.456 -0.8060 -0.3524  0.1936
15340TIP3   OH267434   6.308   3.597  15.774 -0.2228 -0.4035  0.0946
15340TIP3    H167435   6.263   3.574  15.693  0.4686 -3.3652  0.5163
15340TIP3    H267436   6.243   3.583  15.843 -0.9018  2.3820  0.1028
15341TIP3   OH267437   1.802   0.265  12.964  0.5262  0.3958  0.3184
15341TIP3    H167438   1.716   0.248  12.926  0.6677 -0.5726  0.4104
15341TIP3    H267439   1.799   0.357  12.992 -0.6427  0.2362  0.7525
15342TIP3   OH267440   1.728   0.145  15.271 -0.4499 -0.6235 -0.4077
15342TIP3    H167441   1.785   0.170  15.343  0.1124 -1.4075 -0.5644
15342TIP3    H267442   1.641   0.172  15.298 -0.3130 -1.3771  0.7952
15343TIP3   OH267443   6.606   1.151   0.422 -0.2188 -0.4531  0.0653
15343TIP3    H167444   6.571   1.180   0.507  1.7455  0.7629  0.4745
15343TIP3    H267445   6.646   1.066   0.441  0.3264 -0.1268  0.3810
15344TIP3   OH267446   4.093   2.926   2.565  0.5489  0.4846 -0.3758
15344TIP3    H167447   4.047   2.866   2.625  1.8002  0.4555  0.5665
15344TIP3    H267448   4.115   3.002   2.619 -0.5195  1.5656 -1.4293
15345TIP3   OH267449   0.665   0.155  15.434  0.2771  0.0983 -0.2967
15345TIP3    H167450   0.749   0.119  15.462 -0.1184  0.4798  1.4303
15345TIP3    H267451   0.600   0.105  15.483 -0.4415  0.7867 -0.5335
15346TIP3   OH267452   3.984   3.589  15.671  0.5178 -0.0627  0.2837
15346TIP3    H167453   3.955   3.527  15.738 -0.7770 -0.0900 -0.2816
15346TIP3    H267454   4.079   3.580  15.670  0.4183 -1.3644  0.8664
15347TIP3   OH267455   1.093   2.230   6.282  0.2097 -0.7005  0.6147
15347TIP3    H167456   1.098   2.286   6.360  0.1769 -1.0939  0.9015
15347TIP3    H267457   1.128   2.146   6.311  3.7288  0.1960 -0.7896
15348TIP3   OH267458   5.038   6.256   0.615  0.2494 -0.5193  0.3775
15348TIP3    H167459   4.950   6.282   0.589  1.3420  1.1257 -1.7297
15348TIP3    H267460   5.040   6.162   0.599 -1.1350 -0.6084  0.5820
15349TIP3   OH267461   3.345   3.403  16.962  0.2178 -0.2702  0.0314
15349TIP3    H167462   3.393   3.320  16.961  0.4735 -0.1178 -0.0066
15349TIP3    H267463   3.270   3.387  16.904  1.0090 -0.0187 -1.0679
15350TIP3   OH267464   0.880   6.607  16.368  0.3801 -0.2263 -0.0010
15350TIP3    H167465   0.851   6.610  16.277 -0.9747  0.0068  0.4197
15350TIP3    H267466   0.848   6.522  16.400  1.7472 -0.7559 -0.0293
15351TIP3   OH267467   2.782   6.139   0.822  0.2052  0.1801  0.6371
15351TIP3    H167468   2.732   6.221   0.821 -2.3240 -1.3299 -0.8517
15351TIP3    H267469   2.782   6.113   0.914 -0.5204  0.9050  0.8492
15352TIP3   OH267470   2.323   3.635   1.206 -0.0619 -0.1895 -0.0688
15352TIP3    H167471   2.255   3.680   1.255  0.3815  0.6978 -0.2504
15352TIP3    H267472   2.351   3.698   1.139  0.7005 -0.6596 -0.2074
15353TIP3   OH267473   1.884   3.809  16.746 -0.1197  1.0005 -0.2524
15353TIP3    H167474   1.865   3.899  16.771 -1.2903  1.1080 -1.5186
15353TIP3    H267475   1.860   3.803  16.654  0.0784 -0.5658 -0.2222
15354TIP3   OH267476   2.825   4.582   1.298  0.0033 -0.1502  0.1602
15354TIP3    H167477   2.882   4.659   1.304  0.0707  0.0465 -2.2982
15354TIP3    H267478   2.736   4.618   1.299  0.0429  0.2378 -3.1270
15355TIP3   OH267479   6.311   3.012  16.434  0.3152  0.3323  0.1331
15355TIP3    H167480   6.318   2.931  16.484  0.7526  1.0999  1.3479
15355TIP3    H267481   6.218   3.032  16.434  0.4192  0.9267  1.6617
15356TIP3   OH267482   3.528   5.574  16.262  0.2554  0.3519  0.0641
15356TIP3    H167483   3.532   5.575  16.166 -0.1075  0.0892  0.0452
15356TIP3    H267484   3.493   5.487  16.283  0.0276  0.5328  0.4215
15357TIP3   OH267485   4.833   6.749   5.777 -0.0102  0.1424  0.1498
15357TIP3    H167486   4.802   6.660   5.763  3.0267 -1.2342  1.8062
15357TIP3    H267487   4.889   6.768   5.702  0.5419  0.1143  0.5561
15358TIP3   OH267488   1.876   4.871  16.539 -0.3822  0.5939 -0.2183
15358TIP3    H167489   1.867   4.794  16.594  3.5932  0.2948  0.1558
15358TIP3    H267490   1.871   4.946  16.599  1.8539  0.3460  0.3154
15359TIP3   OH267491   6.718   4.712  13.162  0.4956  0.2416 -0.1947
15359TIP3    H167492   6.787   4.679  13.105 -0.1874  1.2774 -1.6524
15359TIP3    H267493   6.730   4.807  13.162 -0.9285  0.4351 -0.5075
15360TIP3   OH267494   6.396   2.157  16.748 -0.0452 -0.3371  0.4126
15360TIP3    H167495   6.316   2.183  16.794  0.6029  2.7718 -0.1060
15360TIP3    H267496   6.458   2.135  16.818 -0.2165  0.8506  0.9623
15361TIP3   OH267497   0.366   2.710   0.464  0.4314  0.6222 -0.1576
15361TIP3    H167498   0.460   2.703   0.478  0.4822 -1.4652 -1.4289
15361TIP3    H267499   0.357   2.745   0.376  0.0038  0.3185 -0.2350
15362TIP3   OH267500   3.049   4.183   0.785  0.0852  0.0100  0.4192
15362TIP3    H167501   3.049   4.127   0.863  0.1691 -1.4818 -0.6302
15362TIP3    H267502   3.131   4.161   0.741 -0.7002 -0.2989 -0.8978
15363TIP3   OH267503   6.206   4.772   5.297  0.6778 -0.4942 -0.3135
15363TIP3    H167504   6.162   4.709   5.354  0.5897 -1.0213 -0.9609
15363TIP3    H267505   6.180   4.857   5.332  3.1930 -0.7712  2.4299
15364TIP3   OH267506   3.143   1.023   1.571  0.2916  0.9895 -0.5623
15364TIP3    H167507   3.093   1.055   1.647 -0.7640  0.5675 -1.0622
15364TIP3    H267508   3.077   0.978   1.517  1.3290 -0.0906 -0.9457
15365TIP3   OH267509   1.893   3.108   3.340  0.1582 -0.5640  0.3980
15365TIP3    H167510   1.834   3.145   3.405 -0.1088 -1.6877  0.8125
15365TIP3    H267511   1.932   3.033   3.384  1.6200 -0.0443 -0.0049
15366TIP3   OH267512   5.208   2.575   4.419 -0.0224 -0.4344 -0.3159
15366TIP3    H167513   5.130   2.529   4.389  0.0636 -1.0780  0.4320
15366TIP3    H267514   5.202   2.572   4.515 -0.6845  2.2359 -0.2224
15367TIP3   OH267515   3.419   3.691  12.070 -0.0437 -0.1907  0.0198
15367TIP3    H167516   3.398   3.783  12.050  0.1064 -0.2183 -0.2588
15367TIP3    H267517   3.472   3.696  12.149  0.7781  0.0266 -0.5394
15368TIP3   OH267518   6.423   0.451  17.166  0.4250  0.6680 -0.2472
15368TIP3    H167519   6.397   0.526  17.220  1.0999  1.7949 -1.4793
15368TIP3    H267520   6.363   0.452  17.092  0.5549  0.1039 -0.3628
15369TIP3   OH267521   2.710   6.370   1.826 -0.2104  0.1450 -0.4001
15369TIP3    H167522   2.778   6.436   1.815  0.7025 -0.5830  0.7517
15369TIP3    H267523   2.649   6.386   1.754  0.9594  1.0743 -1.1979
15370TIP3   OH267524   1.464   2.961   5.150  0.2462 -0.2290 -0.3573
15370TIP3    H167525   1.398   2.975   5.218 -1.0038  0.5145 -1.6928
15370TIP3    H267526   1.431   2.887   5.099  0.7888 -0.2999 -0.6142
15371TIP3   OH267527   6.532   1.573  14.225 -0.1952 -0.4711 -0.3160
15371TIP3    H167528   6.471   1.520  14.276 -1.1404  1.1948  0.3335
15371TIP3    H267529   6.606   1.588  14.284  0.5125 -1.8384 -0.8319
15372TIP3   OH267530   0.121   0.664  14.749 -0.1052  0.8677 -0.2010
15372TIP3    H167531   0.144   0.690  14.660 -0.0791 -2.7247 -1.3211
15372TIP3    H267532   0.195   0.612  14.779 -0.7251  0.8925  1.4460
15373TIP3   OH267533   1.191   4.423  15.404 -0.2952  0.1280 -0.6639
15373TIP3    H167534   1.256   4.433  15.335  0.6829 -0.1346  0.2159
15373TIP3    H267535   1.235   4.373  15.473 -1.1101  0.7520  0.3384
15374TIP3   OH267536   5.430   3.850  16.952  0.6018 -0.5404 -0.5347
15374TIP3    H167537   5.412   3.921  17.014  2.3728 -0.3363 -0.2310
15374TIP3    H267538   5.411   3.887  16.866  0.9646  0.1285 -0.3334
15375TIP3   OH267539   3.901   1.109   5.689  0.2849  0.4867 -0.2696
15375TIP3    H167540   3.985   1.151   5.707  0.5493 -0.5758  1.0451
15375TIP3    H267541   3.924   1.018   5.669 -0.5536  0.1577  0.2330
15376TIP3   OH267542   4.467   5.046  12.794 -0.1314 -0.0811  0.2240
15376TIP3    H167543   4.393   5.103  12.774 -0.4345 -0.2900  0.7299
15376TIP3    H267544   4.510   5.087  12.869 -0.7265 -0.8506  0.9981
15377TIP3   OH267545   1.862   1.796   3.023  0.3093  0.0294 -0.1416
15377TIP3    H167546   1.849   1.891   3.032 -0.0686  0.0929 -1.3009
15377TIP3    H267547   1.782   1.758   3.060 -0.0383  0.1982 -0.7164
15378TIP3   OH267548   4.523   4.746  13.838 -0.2091 -0.2125 -0.5709
15378TIP3    H167549   4.452   4.688  13.864 -0.0629 -0.3521 -0.4806
15378TIP3    H267550   4.545   4.794  13.917 -1.2512  0.9518 -0.9704
15379TIP3   OH267551   4.014   1.232  11.408 -0.5714 -0.4701  0.0079
15379TIP3    H167552   4.021   1.173  11.334 -0.6822 -1.5115  0.8204
15379TIP3    H267553   3.954   1.189  11.468 -2.0253  1.2744 -0.1548
15380TIP3   OH267554   6.056   0.911  13.405  0.4442  0.0390 -0.4000
15380TIP3    H167555   6.146   0.891  13.432 -0.3490  1.2835  3.4362
15380TIP3    H267556   6.005   0.836  13.436 -0.2326  0.5801 -0.2251
15381TIP3   OH267557   2.519   2.526  11.553 -0.6761  0.2357 -0.5020
15381TIP3    H167558   2.589   2.589  11.538 -0.0578 -0.2454  0.3274
15381TIP3    H267559   2.441   2.568  11.516 -0.5060  1.9828  1.0546
15382TIP3   OH267560   2.640   6.686  12.705  0.2265 -0.3614 -0.6971
15382TIP3    H167561   2.588   6.654  12.779 -0.4873  0.7036 -0.7228
15382TIP3    H267562   2.728   6.697  12.740 -0.2240  0.6619  0.1647
15383TIP3   OH267563   3.624   2.089   1.702 -0.2489  0.0689 -0.0185
15383TIP3    H167564   3.661   2.074   1.788  0.4907  1.8575 -0.0022
15383TIP3    H267565   3.530   2.075   1.713 -0.0336 -0.7412  0.8153
15384TIP3   OH267566   3.095   2.566   3.845 -0.5227 -0.2758  0.2579
15384TIP3    H167567   3.164   2.630   3.825 -0.2232 -0.1367  1.6740
15384TIP3    H267568   3.027   2.583   3.780  0.0158  0.7818 -0.0485
15385TIP3   OH267569   5.450   2.447   2.130  0.3829  0.3512 -0.1845
15385TIP3    H167570   5.527   2.484   2.087  0.9478  1.3322  1.6008
15385TIP3    H267571   5.419   2.379   2.070  3.1237 -0.6347 -0.5602
15386TIP3   OH267572   0.220   5.989  17.027 -0.2746 -0.3360  0.0214
15386TIP3    H167573   0.150   6.037  16.983 -1.2892 -1.7873  0.0061
15386TIP3    H267574   0.298   6.009  16.976 -0.2984  2.7296  1.0713
15387TIP3   OH267575   2.461   3.045  11.651 -0.4257  0.5491 -0.9074
15387TIP3    H167576   2.430   3.126  11.692 -1.4559  1.0558 -2.6683
15387TIP3    H267577   2.551   3.034  11.684 -0.9068  1.4395  0.7382
15388TIP3   OH267578   4.169   5.279  12.082 -0.1404  0.4792  0.1572
15388TIP3    H167579   4.169   5.375  12.083 -2.9635  0.5695 -2.5018
15388TIP3    H267580   4.188   5.256  11.991  1.0529 -1.5148  0.8825
15389TIP3   OH267581   5.139   3.707  13.830  0.3906 -0.1759  0.1345
15389TIP3    H167582   5.163   3.763  13.756  0.6820 -0.3563  0.0920
15389TIP3    H267583   5.114   3.623  13.790  0.0968 -0.1252  0.2074
15390TIP3   OH267584   2.871   1.461  13.120 -0.8276 -0.5611 -0.1008
15390TIP3    H167585   2.933   1.397  13.086 -1.3571 -0.7231 -0.7678
15390TIP3    H267586   2.891   1.542  13.073 -1.2557 -0.6650 -0.4617
15391TIP3   OH267587   2.023   3.994   5.296  0.8244  0.0077  0.7138
15391TIP3    H167588   1.990   3.968   5.210 -0.0282  2.0832  0.4004
15391TIP3    H267589   2.090   4.060   5.278  0.2061  0.9053  1.6556
15392TIP3   OH267590   4.081   5.973  16.599 -0.1473  0.2512  0.4267
15392TIP3    H167591   4.174   5.989  16.578  0.2781 -0.5988  1.6156
15392TIP3    H267592   4.052   6.052  16.643  0.5371 -0.1974  1.7087
15393TIP3   OH267593   4.621   6.593   4.689  0.0118 -0.0009 -0.1856
15393TIP3    H167594   4.694   6.584   4.750 -1.2320  1.6718  1.5959
15393TIP3    H267595   4.557   6.648   4.735 -1.8440 -0.3988 -2.1894
15394TIP3   OH267596   3.583   4.566  11.104 -0.1986 -0.2760  0.5457
15394TIP3    H167597   3.671   4.594  11.128 -0.4291  0.8647  0.0691
15394TIP3    H267598   3.577   4.476  11.137  1.2748 -0.5016  0.2271
15395TIP3   OH267599   0.656   5.126  12.045 -0.4252 -0.7977  0.0337
15395TIP3    H167600   0.750   5.113  12.059 -0.2699 -2.1866 -1.9785
15395TIP3    H267601   0.637   5.075  11.966 -3.0391 -1.2268  0.8901
15396TIP3   OH267602   4.749   0.112  11.440  0.6782 -0.4653  0.1085
15396TIP3    H167603   4.674   0.120  11.381 -0.1304 -2.2859  0.8727
15396TIP3    H267604   4.821   0.153  11.391  0.0686 -2.1026 -2.2705
15397TIP3   OH267605   4.289   5.887  15.017 -0.1446  0.5617  0.4790
15397TIP3    H167606   4.354   5.867  14.949  1.5248  2.1579  1.5261
15397TIP3    H267607   4.217   5.928  14.970 -0.6630 -1.7429 -0.7855
15398TIP3   OH267608   5.498   5.312  14.182 -0.3993 -0.3349 -0.3618
15398TIP3    H167609   5.536   5.346  14.100 -0.4670  0.6203 -0.0115
15398TIP3    H267610   5.497   5.388  14.240  0.9167 -1.3361  0.9929
15399TIP3   OH267611   2.785   5.515  13.128 -0.2842  0.4257 -0.0501
15399TIP3    H167612   2.802   5.424  13.101  0.7902  0.0880  1.7207
15399TIP3    H267613   2.711   5.508  13.188  1.5153  0.3642  2.2199
15400TIP3   OH267614   1.667   2.394   2.464 -0.1412 -0.0304 -0.0052
15400TIP3    H167615   1.599   2.380   2.530  0.0372 -0.9305 -0.0065
15400TIP3    H267616   1.745   2.415   2.514  0.4428 -2.4973  0.1830
15401TIP3   OH267617   3.651   4.157   6.648 -0.5615  0.3344 -0.1512
15401TIP3    H167618   3.639   4.242   6.606 -1.2283  0.3940  0.1605
15401TIP3    H267619   3.744   4.155   6.671 -0.4789  0.8566 -0.4192
15402TIP3   OH267620   4.194   1.573   3.840 -0.1343 -0.1855 -0.7240
15402TIP3    H167621   4.262   1.598   3.902 -0.0879  0.1540 -0.9147
15402TIP3    H267622   4.224   1.489   3.805 -0.9273 -1.1729  0.8770
15403TIP3   OH267623   4.008   1.337   0.842 -0.0002 -0.4304 -0.0594
15403TIP3    H167624   4.078   1.279   0.813  0.7212  0.2894  0.2324
15403TIP3    H267625   4.033   1.361   0.931  0.4121  1.4278 -0.6659
15404TIP3   OH267626   0.169   3.165   4.426 -0.3485  0.1033  0.3435
15404TIP3    H167627   0.151   3.112   4.349 -1.4747  1.3291 -0.2472
15404TIP3    H267628   0.139   3.253   4.403  1.6157  1.0470  1.2611
15405TIP3   OH267629   2.012   3.855  15.415 -0.0288  0.7907  0.5627
15405TIP3    H167630   2.075   3.809  15.471  0.6634  0.1876 -0.6887
15405TIP3    H267631   2.041   3.835  15.326 -2.1019  0.3501 -0.0400
15406TIP3   OH267632   0.170   3.352   4.708  0.1257  0.2292  0.0490
15406TIP3    H167633   0.224   3.333   4.784 -1.3064 -1.0100  0.7881
15406TIP3    H267634   0.201   3.292   4.640  1.4398  1.3735 -0.3819
15407TIP3   OH267635   1.192   4.803   5.011  0.3093 -0.2973 -0.4448
15407TIP3    H167636   1.119   4.745   5.036  1.6234 -2.6324 -1.8139
15407TIP3    H267637   1.236   4.824   5.093  0.2545 -1.8870  0.0088
15408TIP3   OH267638   2.809   0.788   5.385 -0.3634 -0.0664 -0.1300
15408TIP3    H167639   2.754   0.864   5.365  0.8696  1.2773  1.3978
15408TIP3    H267640   2.895   0.812   5.350 -0.0661 -0.9501 -0.0050
15409TIP3   OH267641   3.596   1.784   0.708  0.4569 -0.5739  0.7230
15409TIP3    H167642   3.658   1.855   0.692 -0.2731  0.4978  2.5368
15409TIP3    H267643   3.592   1.737   0.625 -0.0468  2.2994 -0.9221
15410TIP3   OH267644   1.264   0.794  16.342  0.2847 -0.3769 -0.8276
15410TIP3    H167645   1.347   0.829  16.375 -0.8825  1.3879  0.2937
15410TIP3    H267646   1.289   0.746  16.263  2.4295 -0.2433 -0.2722
15411TIP3   OH267647   3.380   5.244   4.704 -0.7520 -0.1521  0.3207
15411TIP3    H167648   3.335   5.302   4.643 -1.3191 -0.6614  0.2440
15411TIP3    H267649   3.317   5.233   4.776 -0.2577  0.1125  0.7953
15412TIP3   OH267650   4.049   1.022  12.205 -0.5020  0.1931 -0.1861
15412TIP3    H167651   4.134   1.056  12.175 -0.4722  0.5840  0.3283
15412TIP3    H267652   4.048   0.931  12.177  0.4020 -0.0175  0.4371
15413TIP3   OH267653   5.725   5.040   1.341  0.4748  0.6918  0.4607
15413TIP3    H167654   5.730   5.127   1.302  3.1138  0.4220  0.1391
15413TIP3    H267655   5.759   5.051   1.430 -0.3011  0.1994  0.8323
15414TIP3   OH267656   5.210   1.421   0.722  0.1349  0.0826  0.4106
15414TIP3    H167657   5.243   1.398   0.635 -1.8029 -0.5370 -0.1907
15414TIP3    H267658   5.272   1.381   0.783  0.0649 -1.7482 -0.6747
15415TIP3   OH267659   0.564   5.109  16.938  0.7534  0.6380 -0.4858
15415TIP3    H167660   0.603   5.084  16.855 -1.1001  0.0794 -1.2180
15415TIP3    H267661   0.631   5.163  16.981  2.3664 -0.4181 -1.6076
15416TIP3   OH267662   5.343   4.954   4.130  0.0992 -0.3137  0.2785
15416TIP3    H167663   5.297   4.921   4.053  2.1231 -0.8520 -0.7287
15416TIP3    H267664   5.290   4.923   4.204  0.0726 -2.9194 -0.7563
15417TIP3   OH267665   2.264   4.911  12.549  0.1209 -0.4890 -0.0956
15417TIP3    H167666   2.299   4.835  12.503  1.2134  0.1288 -0.2948
15417TIP3    H267667   2.333   4.977  12.543 -0.8112  0.5187  0.0929
15418TIP3   OH267668   2.039   1.962  16.683  0.5508  0.3293  0.3349
15418TIP3    H167669   2.064   2.022  16.753  2.7867  0.2278 -0.3438
15418TIP3    H267670   1.983   2.014  16.625  0.3943  0.9991  1.0757
15419TIP3   OH267671   1.810   5.174  15.458 -0.0034  0.3480 -0.4987
15419TIP3    H167672   1.726   5.173  15.412 -0.2871 -0.2067  0.0290
15419TIP3    H267673   1.799   5.110  15.529  0.0832  1.9284  0.9548
15420TIP3   OH267674   0.807   2.154   0.583  0.3946  0.1278  0.4333
15420TIP3    H167675   0.730   2.150   0.526  0.1689  1.8638  0.5840
15420TIP3    H267676   0.870   2.096   0.542 -0.2552  0.3107 -0.8603
15421TIP3   OH267677   0.239   3.899  13.808  0.0301  0.3957 -0.2717
15421TIP3    H167678   0.179   3.953  13.859 -0.8009 -1.1020  0.3891
15421TIP3    H267679   0.242   3.940  13.722 -0.3474  1.6479  0.3072
15422TIP3   OH267680   0.597   6.610  14.231  0.1004 -0.0123 -0.0667
15422TIP3    H167681   0.629   6.663  14.304  2.9434 -0.0079 -1.2785
15422TIP3    H267682   0.535   6.550  14.272 -1.9520  3.0865  1.5872
15423TIP3   OH267683   2.718   0.210  13.388  0.0651  0.1259  0.0897
15423TIP3    H167684   2.712   0.167  13.473 -1.4710 -0.6217 -0.3917
15423TIP3    H267685   2.704   0.140  13.324 -0.3760  0.9696 -0.7493
15424TIP3   OH267686   1.881   5.670  13.920 -0.3486  0.5913  0.3795
15424TIP3    H167687   1.931   5.603  13.965  1.6213  1.0896 -1.0346
15424TIP3    H267688   1.871   5.740  13.984 -0.3123 -0.0267  1.0590
15425TIP3   OH267689   0.316   2.879   6.317  0.2255  0.3503 -0.1442
15425TIP3    H167690   0.358   2.803   6.277 -0.0573  0.6924 -1.1217
15425TIP3    H267691   0.224   2.853   6.326  0.1897  0.4613 -0.1874
15426TIP3   OH267692   3.850   1.088  15.041  0.3759  0.1045  0.5639
15426TIP3    H167693   3.754   1.084  15.045  0.4558 -1.1935  1.8161
15426TIP3    H267694   3.876   0.999  15.019  1.3038  0.3842  0.5317
15427TIP3   OH267695   5.717   3.713   0.678 -0.5174  0.3815  0.1573
15427TIP3    H167696   5.740   3.730   0.769  0.3063 -0.2295  0.0685
15427TIP3    H267697   5.686   3.622   0.677  0.2538  0.1219 -0.3153
15428TIP3   OH267698   4.768   0.929  11.193  0.3059 -0.3028 -0.1413
15428TIP3    H167699   4.846   0.984  11.206  1.5876 -2.0853 -0.0984
15428TIP3    H267700   4.751   0.933  11.100  1.2188 -0.8798 -0.3459
15429TIP3   OH267701   1.823   1.954   4.809  0.0234 -0.8668  0.8802
15429TIP3    H167702   1.761   1.916   4.746 -1.4781  0.8495  1.2825
15429TIP3    H267703   1.909   1.932   4.773 -0.7845  1.0120 -2.4315
15430TIP3   OH267704   0.894   3.950  14.779  0.0765 -0.3153  0.2182
15430TIP3    H167705   0.814   3.995  14.751 -0.1712 -0.1501  1.1652
15430TIP3    H267706   0.941   4.015  14.831  0.7257 -0.4791 -0.1721
15431TIP3   OH267707   6.046   3.429  14.988 -0.2098  0.3965 -0.3890
15431TIP3    H167708   6.053   3.406  15.081 -0.1582 -0.8271 -0.6944
15431TIP3    H267709   6.122   3.484  14.971 -1.1238  2.0410  0.7070
15432TIP3   OH267710   4.273   4.675   2.696  0.0333 -0.0895 -0.3782
15432TIP3    H167711   4.332   4.668   2.621  0.6287  0.1005  0.0659
15432TIP3    H267712   4.300   4.603   2.753  0.2766  0.4051  0.1322
15433TIP3   OH267713   4.869   5.369  17.090  0.0214  0.7048 -0.0081
15433TIP3    H167714   4.775   5.355  17.095 -0.0695  0.7987 -1.4267
15433TIP3    H267715   4.898   5.368  17.182 -1.1369 -0.7404  0.3646
15434TIP3   OH267716   1.210   4.223   0.136 -0.3188 -0.2120 -0.5072
15434TIP3    H167717   1.126   4.243   0.178 -0.1589  2.2042 -1.2538
15434TIP3    H267718   1.273   4.223   0.209 -1.0715 -3.1994  0.2323
15435TIP3   OH267719   0.651   3.960  10.921 -0.0914 -0.2338  0.6387
15435TIP3    H167720   0.718   3.897  10.894  0.0447 -0.5142  1.6190
15435TIP3    H267721   0.697   4.045  10.918 -0.5443 -0.0237 -1.6229
15436TIP3   OH267722   3.332   4.504   5.488  0.1263 -0.4691 -0.0593
15436TIP3    H167723   3.242   4.496   5.457 -0.5239  1.5732  1.2173
15436TIP3    H267724   3.378   4.430   5.448 -1.7692 -0.6588 -1.9518
15437TIP3   OH267725   1.797   1.087   0.514  0.4013 -0.0581 -0.5238
15437TIP3    H167726   1.792   1.180   0.538  0.6534  0.2874 -1.7835
15437TIP3    H267727   1.713   1.051   0.542 -0.2516  0.8518 -1.2580
15438TIP3   OH267728   0.475   1.368  12.233  0.1681  0.1101  0.0374
15438TIP3    H167729   0.500   1.434  12.168  1.4219  1.4072  1.8213
15438TIP3    H267730   0.533   1.382  12.307 -1.6224 -0.9704  1.7194
15439TIP3   OH267731   3.870   5.346   4.616  0.0939  0.1900 -0.1951
15439TIP3    H167732   3.963   5.334   4.632  0.1991 -0.5463 -1.2937
15439TIP3    H267733   3.842   5.264   4.574 -0.6503  1.1064 -1.5359
15440TIP3   OH267734   0.993   2.863   0.267  0.3496  0.2935 -0.2468
15440TIP3    H167735   0.964   2.839   0.355 -0.9348  0.2387 -0.6891
15440TIP3    H267736   0.936   2.815   0.208  1.8526 -0.4573 -1.1376
15441TIP3   OH267737   3.918   2.091   2.449  0.1834 -0.5073  0.2614
15441TIP3    H167738   3.833   2.056   2.479 -0.0769  0.5265  0.7423
15441TIP3    H267739   3.959   2.123   2.529  0.1263  0.9120 -0.2825
15442TIP3   OH267740   6.110   0.439   5.455 -0.7035 -0.3903 -0.0880
15442TIP3    H167741   6.051   0.423   5.528 -0.1592 -0.4395  0.3499
15442TIP3    H267742   6.142   0.352   5.431 -1.3427 -0.4374 -0.7799
15443TIP3   OH267743   5.602   0.227  15.611 -0.2945 -0.3098 -0.1820
15443TIP3    H167744   5.652   0.286  15.666  1.0575  0.0079 -1.7190
15443TIP3    H267745   5.514   0.265  15.609  0.2615  0.9852 -0.1902
15444TIP3   OH267746   3.769   6.368   3.659  0.3317  0.2482  0.0671
15444TIP3    H167747   3.678   6.370   3.690 -0.0060  0.6874 -0.9141
15444TIP3    H267748   3.797   6.277   3.673 -1.1738 -0.6107 -2.1261
15445TIP3   OH267749   5.512   3.579  10.593  0.4333 -0.0683  0.5819
15445TIP3    H167750   5.432   3.550  10.549 -1.2019  0.2924  3.2600
15445TIP3    H267751   5.549   3.499  10.629  0.4775 -0.0099  0.6640
15446TIP3   OH267752   3.431   5.893   2.592 -0.0176  0.2468  0.2607
15446TIP3    H167753   3.428   5.841   2.672 -0.3998  0.6586  0.5163
15446TIP3    H267754   3.456   5.981   2.622 -1.8615  0.8309  0.1473
15447TIP3   OH267755   0.244   1.144   2.582 -0.0198  0.0917  0.4681
15447TIP3    H167756   0.217   1.128   2.491  1.7569 -0.2985 -0.0036
15447TIP3    H267757   0.202   1.075   2.632 -2.6011  1.4364  0.2572
15448TIP3   OH267758   2.182   0.313   2.081 -0.1339 -0.0765 -0.1373
15448TIP3    H167759   2.090   0.340   2.077 -0.5948 -1.7313 -0.7221
15448TIP3    H267760   2.225   0.364   2.012 -0.3199  1.7667  1.0748
15449TIP3   OH267761   3.589   3.106   4.917  0.5621  0.0156  0.0808
15449TIP3    H167762   3.578   3.064   5.002 -0.7767 -0.9643 -0.5728
15449TIP3    H267763   3.567   3.039   4.853  0.8656  0.9522 -1.0374
15450TIP3   OH267764   3.919   4.239   4.216  0.2764  0.1879 -0.4970
15450TIP3    H167765   3.894   4.271   4.303  0.2756 -1.6138  0.1719
15450TIP3    H267766   3.842   4.254   4.162  0.0383  0.6779 -0.0357
15451TIP3   OH267767   4.473   5.798   0.709  0.1472  0.0558 -0.3206
15451TIP3    H167768   4.435   5.882   0.736  0.0197 -0.6976  1.8670
15451TIP3    H267769   4.398   5.738   0.707  0.5605 -0.4628 -0.0216
15452TIP3   OH267770   5.105   6.776  11.611  0.3415  0.2733 -0.5938
15452TIP3    H167771   5.086   6.688  11.643 -1.5303  1.1569  0.7708
15452TIP3    H267772   5.193   6.769  11.573  0.6793 -1.9002  0.5311
15453TIP3   OH267773   0.656   4.190  15.392  0.2014 -0.1769 -0.5445
15453TIP3    H167774   0.640   4.241  15.472 -0.8462 -2.2703  0.6193
15453TIP3    H267775   0.705   4.114  15.422 -0.9297 -1.4123 -1.7746
15454TIP3   OH267776   6.141   3.479  15.952  1.1596 -0.2764 -0.1404
15454TIP3    H167777   6.170   3.395  15.915  0.3521 -0.4037 -0.4850
15454TIP3    H267778   6.077   3.455  16.019  0.5998  0.0860 -0.5457
15455TIP3   OH267779   1.361   3.754  16.377 -0.3689 -0.5014  0.3102
15455TIP3    H167780   1.294   3.699  16.337 -0.3506 -0.7091  0.5606
15455TIP3    H267781   1.443   3.708  16.361  0.0555  1.0946 -2.3570
15456TIP3   OH267782   2.182   0.128  14.165 -0.1484 -0.1069  0.2622
15456TIP3    H167783   2.113   0.194  14.154 -0.8280 -0.6621  1.0326
15456TIP3    H267784   2.263   0.174  14.144 -0.6732  0.7956  0.1594
15457TIP3   OH267785   6.773   3.500  16.289 -0.6345 -0.3446 -0.2573
15457TIP3    H167786   6.746   3.584  16.251 -1.9266 -1.0548 -0.9298
15457TIP3    H267787   6.868   3.508  16.298 -0.8188  1.4332  0.3098
15458TIP3   OH267788   2.935   4.933   3.902 -0.0855 -0.2517 -0.1651
15458TIP3    H167789   2.899   5.014   3.867  0.3392 -0.8369 -2.0191
15458TIP3    H267790   2.899   4.927   3.991 -4.2751 -0.6771 -1.8014
15459TIP3   OH267791   0.607   3.195  14.962  0.9324 -0.0016 -0.0691
15459TIP3    H167792   0.676   3.165  15.021  2.2582  2.9491 -0.0676
15459TIP3    H267793   0.553   3.253  15.016 -2.2929 -3.1100  0.2567
15460TIP3   OH267794   6.089   5.656   4.126  0.6803  0.2231  0.1238
15460TIP3    H167795   6.081   5.664   4.031 -2.7741 -0.1364  0.3255
15460TIP3    H267796   6.048   5.571   4.146  2.3421 -0.2054  1.8310
15461TIP3   OH267797   6.598   4.036  12.128 -0.4518 -0.1453  0.5475
15461TIP3    H167798   6.543   4.112  12.106  0.9719  0.8200  0.2481
15461TIP3    H267799   6.660   4.030  12.055 -0.2600 -1.3183  0.8089
15462TIP3   OH267800   2.502   6.751   4.591  0.0291  0.5505 -0.4381
15462TIP3    H167801   2.472   6.722   4.677 -0.0285 -2.3555 -1.3910
15462TIP3    H267802   2.434   6.810   4.561 -0.7158  0.3764  0.8539
15463TIP3   OH267803   2.665   3.528   1.090  0.3756 -0.3574  0.1622
15463TIP3    H167804   2.616   3.601   1.052  0.5512  0.0025  0.6056
15463TIP3    H267805   2.642   3.530   1.183  0.0821 -1.1172  0.1077
15464TIP3   OH267806   3.474   6.396  14.631 -0.2596  0.4775  0.0758
15464TIP3    H167807   3.491   6.468  14.692 -0.6801  0.7966 -0.1898
15464TIP3    H267808   3.452   6.438  14.549  0.1595  0.0397 -0.2632
15465TIP3   OH267809   3.214   5.004  13.888  0.1504 -0.0557  0.1389
15465TIP3    H167810   3.181   5.003  13.978 -0.6539 -0.6406 -0.1591
15465TIP3    H267811   3.238   5.095  13.873  0.9962 -0.0909  1.1979
15466TIP3   OH267812   6.316   2.877   3.233 -0.0015  0.0939  0.1635
15466TIP3    H167813   6.316   2.966   3.197  1.6052  0.1275  0.2251
15466TIP3    H267814   6.313   2.890   3.328  0.2496  0.0785  0.1730
15467TIP3   OH267815   3.967   2.129   2.952  0.4646  0.3915  0.1184
15467TIP3    H167816   3.969   2.049   3.004  1.6899  0.7411  0.6251
15467TIP3    H267817   4.006   2.195   3.009 -3.2928  2.0666  0.8868
15468TIP3   OH267818   5.133   6.215  15.816  0.1695  0.0176 -0.3627
15468TIP3    H167819   5.039   6.211  15.797  0.5389 -1.2344 -2.1092
15468TIP3    H267820   5.171   6.148  15.759  2.3855  2.1975 -1.5609
15469TIP3   OH267821   2.439   2.761  10.901 -0.3616  0.2182 -0.2420
15469TIP3    H167822   2.366   2.818  10.924 -0.9309 -0.7980  0.5046
15469TIP3    H267823   2.473   2.796  10.819 -0.4989  1.8285  0.3695
15470TIP3   OH267824   4.270   0.297  10.295  0.1436  0.5271 -0.1137
15470TIP3    H167825   4.351   0.252  10.319 -1.2290 -0.6198  2.6184
15470TIP3    H267826   4.273   0.379  10.343 -0.9418 -0.1476  1.1309
15471TIP3   OH267827   3.412   4.273  11.024 -0.4482  0.3286  0.1739
15471TIP3    H167828   3.505   4.291  11.014 -0.4403  1.0548  1.4373
15471TIP3    H267829   3.388   4.314  11.107 -1.6372 -0.8543  0.4431
15472TIP3   OH267830   2.518   4.585  15.615  0.0521 -0.1362 -0.1553
15472TIP3    H167831   2.592   4.538  15.654  0.5228  0.9825  0.3280
15472TIP3    H267832   2.545   4.677  15.616  0.6026 -0.1561 -4.2425
15473TIP3   OH267833   2.481   5.729  11.685  0.5309  0.1193  0.0504
15473TIP3    H167834   2.460   5.803  11.741  2.7199  1.8283 -1.3134
15473TIP3    H267835   2.441   5.654  11.729 -1.0736  1.9677  1.8578
15474TIP3   OH267836   6.500   1.261   3.429  0.2098 -0.5723 -0.2333
15474TIP3    H167837   6.576   1.263   3.370 -0.4933  0.2633 -1.1334
15474TIP3    H267838   6.457   1.178   3.410 -0.1140 -0.2273 -1.0458
15475TIP3   OH267839   1.201   6.097   2.455 -0.5118 -0.1442 -0.0995
15475TIP3    H167840   1.242   6.112   2.540  0.4200 -0.0160 -0.5636
15475TIP3    H267841   1.111   6.128   2.466 -0.1068  0.8509  0.5418
15476TIP3   OH267842   3.822   4.294   0.095  0.4320 -0.6017 -0.5993
15476TIP3    H167843   3.734   4.258   0.085  0.0531  0.3853 -0.9053
15476TIP3    H267844   3.820   4.337   0.181  0.5483 -0.4140 -0.6898
15477TIP3   OH267845   2.996   1.298   1.318 -0.8316  0.2883  0.0864
15477TIP3    H167846   2.997   1.391   1.293 -0.6055  0.6370  1.3481
15477TIP3    H267847   2.921   1.290   1.376 -2.4556 -0.9113 -2.0858
15478TIP3   OH267848   5.660   2.310   0.296 -0.1074 -0.4445  0.4810
15478TIP3    H167849   5.742   2.262   0.305  0.3445  0.6239  2.3581
15478TIP3    H267850   5.640   2.306   0.203  1.7079 -1.3094  0.1077
15479TIP3   OH267851   0.596   4.430   5.632 -0.1807 -0.3387 -0.5676
15479TIP3    H167852   0.521   4.490   5.630  1.3864  1.6640 -0.8779
15479TIP3    H267853   0.608   4.409   5.724 -1.6415 -1.3906 -0.5888
15480TIP3   OH267854   2.398   5.846   0.517 -0.2231  0.1400 -0.4766
15480TIP3    H167855   2.310   5.848   0.479 -0.6649 -0.6707  0.4803
15480TIP3    H267856   2.404   5.927   0.568 -0.5498  0.0283 -0.2591
15481TIP3   OH267857   3.865   1.081   5.170 -0.3923  0.6329 -0.3935
15481TIP3    H167858   3.840   1.021   5.240 -0.8187  2.2022  0.8197
15481TIP3    H267859   3.828   1.041   5.090 -0.0355 -1.0727  0.2719
15482TIP3   OH267860   2.326   6.133   2.230 -0.2496  0.0026 -0.2951
15482TIP3    H167861   2.279   6.214   2.250  0.5937  0.3807  0.1803
15482TIP3    H267862   2.278   6.095   2.156 -1.0674  0.5754 -0.0649
15483TIP3   OH267863   4.154   4.460   3.815  0.0611 -0.0369 -0.2113
15483TIP3    H167864   4.222   4.482   3.752 -0.0333 -0.1507 -0.3529
15483TIP3    H267865   4.180   4.374   3.849 -0.4288 -0.4297 -0.8367
15484TIP3   OH267866   1.029   5.206  13.921 -0.4335 -0.6668 -0.2829
15484TIP3    H167867   1.009   5.284  13.869 -0.2312 -0.7911 -0.5501
15484TIP3    H267868   0.944   5.175  13.952 -0.3936  0.4710  1.0112
15485TIP3   OH267869   5.568   3.992  12.024  0.2072  0.6860  0.5653
15485TIP3    H167870   5.548   3.911  12.071 -0.7743  0.7923  0.3568
15485TIP3    H267871   5.663   3.996  12.020  0.2572 -0.3591  0.7495
15486TIP3   OH267872   1.013   1.965  15.475 -0.1907 -0.0667 -0.5266
15486TIP3    H167873   1.030   1.941  15.384 -1.8862  2.3808 -1.5418
15486TIP3    H267874   0.930   1.923  15.496  1.7104 -3.2911  1.0194
15487TIP3   OH267875   5.902   1.490  15.290 -0.3076 -0.1089  0.0614
15487TIP3    H167876   5.983   1.497  15.340 -0.8466  0.3119  0.8734
15487TIP3    H267877   5.930   1.492  15.198  0.6125 -0.1600  0.3412
15488TIP3   OH267878   6.168   1.563   5.796 -0.3224  0.0522  0.6383
15488TIP3    H167879   6.142   1.516   5.876  0.2558  0.3165  0.9883
15488TIP3    H267880   6.264   1.563   5.800 -0.3040  0.3478  0.1055
15489TIP3   OH267881   3.724   5.070   5.721  0.1080  0.6303  0.0645
15489TIP3    H167882   3.760   5.122   5.793  1.3580  0.4119 -0.3811
15489TIP3    H267883   3.790   5.077   5.652 -0.8032  0.3491 -0.8451
15490TIP3   OH267884   3.342   1.468  11.745  0.0294 -0.4172 -0.1021
15490TIP3    H167885   3.267   1.483  11.804  0.3754 -1.2017  0.5442
15490TIP3    H267886   3.314   1.506  11.662 -1.1592 -0.8432  0.0881
15491TIP3   OH267887   2.053   2.153  14.124 -0.0997 -0.3235  0.4290
15491TIP3    H167888   2.028   2.070  14.164 -0.5852 -1.1892 -1.6341
15491TIP3    H267889   2.129   2.132  14.069  0.2568  0.7538  0.4877
15492TIP3   OH267890   4.016   5.626   5.022  0.2617  0.0516  0.0489
15492TIP3    H167891   4.047   5.572   5.095  1.8512  1.0562  0.1395
15492TIP3    H267892   4.019   5.716   5.055 -0.1013  0.4148 -0.8776
15493TIP3   OH267893   4.119   2.335  16.040 -0.7911 -0.1164  0.7194
15493TIP3    H167894   4.050   2.368  15.983 -0.5580 -0.5088  0.2082
15493TIP3    H267895   4.192   2.315  15.981 -0.1140  0.6086  1.2892
15494TIP3   OH267896   1.364   3.548  14.405 -0.1591  0.5901 -0.5992
15494TIP3    H167897   1.276   3.582  14.390 -1.4541 -2.8181 -1.2127
15494TIP3    H267898   1.395   3.522  14.318  1.5645  1.9238 -0.4228
15495TIP3   OH267899   0.698   3.058  14.062  0.5935 -0.0149 -0.0410
15495TIP3    H167900   0.623   2.998  14.057 -0.4221  1.3242 -1.1457
15495TIP3    H267901   0.753   3.033  13.988 -0.1239  0.7947 -0.8559
15496TIP3   OH267902   0.388   0.923  10.607  0.0537  0.2307 -0.0303
15496TIP3    H167903   0.420   0.943  10.519 -0.2039 -0.8282 -0.3773
15496TIP3    H267904   0.330   0.996  10.629  2.0538  1.7719  0.2860
15497TIP3   OH267905   3.470   1.351  16.884  0.2755 -0.4586 -0.6529
15497TIP3    H167906   3.498   1.271  16.928  0.5267  1.6313  3.2150
15497TIP3    H267907   3.379   1.364  16.913 -0.0284  0.2038 -1.8834
15498TIP3   OH267908   2.504   6.160   1.816 -0.3415  0.0027  0.7009
15498TIP3    H167909   2.422   6.117   1.840 -0.2404  0.1539  1.3348
15498TIP3    H267910   2.542   6.187   1.900  0.7979 -0.8930  0.4780
15499TIP3   OH267911   6.119   5.063  11.708 -0.8109  0.5032 -0.1556
15499TIP3    H167912   6.138   5.121  11.635 -2.6727 -0.3271 -1.3317
15499TIP3    H267913   6.111   4.976  11.669 -0.0241 -0.2445  1.2993
15500TIP3   OH267914   0.020   5.685   5.137  0.4583  0.3511 -0.4028
15500TIP3    H167915   0.061   5.704   5.221 -2.0099  0.0628  0.9013
15500TIP3    H267916   0.029   5.590   5.127  1.1765  0.4462 -0.7131
15501TIP3   OH267917   4.384   0.335   5.537 -0.7663 -0.4780 -0.1584
15501TIP3    H167918   4.339   0.321   5.455 -0.4439 -0.7339 -0.2923
15501TIP3    H267919   4.473   0.303   5.522  0.1654  2.1616 -0.6520
15502TIP3   OH267920   2.015   4.096   1.903  0.5075  0.3607  0.0951
15502TIP3    H167921   1.945   4.095   1.968 -0.4733 -0.9943 -0.9187
15502TIP3    H267922   2.093   4.067   1.950  0.1300  0.7840  0.9827
15503TIP3   OH267923   0.929   3.979   3.160 -0.6419 -0.2799 -0.0935
15503TIP3    H167924   0.937   4.039   3.086 -0.7194  1.1035  0.9816
15503TIP3    H267925   0.869   3.911   3.130 -0.2437 -0.0392 -1.4821
15504TIP3   OH267926   0.097   4.043   3.887  0.1037  0.0815  0.2227
15504TIP3    H167927   0.010   4.004   3.879  0.8044 -1.6646  0.7545
15504TIP3    H267928   0.105   4.067   3.979  0.4548 -0.4399  0.3312
15505TIP3   OH267929   5.813   3.806   0.938 -0.2043  0.3647 -0.0797
15505TIP3    H167930   5.728   3.840   0.966 -0.2001 -0.8421  1.4563
15505TIP3    H267931   5.860   3.789   1.019  0.6062 -1.2117 -0.8488
15506TIP3   OH267932   5.235   6.087   6.165 -0.5638 -0.2292  0.1830
15506TIP3    H167933   5.306   6.024   6.180  0.4531  0.7387 -0.4032
15506TIP3    H267934   5.200   6.106   6.252  0.3010 -0.2714  0.5456
15507TIP3   OH267935   4.120   6.706   4.565 -0.5941 -0.2526  0.2972
15507TIP3    H167936   4.134   6.629   4.510 -0.0569  0.1558 -0.1589
15507TIP3    H267937   4.153   6.779   4.512 -1.1925  0.3016  0.6800
15508TIP3   OH267938   3.619   3.714   5.537  0.3860 -0.8243 -0.4249
15508TIP3    H167939   3.590   3.770   5.610  0.5454  2.2048 -2.5682
15508TIP3    H267940   3.714   3.715   5.542  0.3951 -0.6731 -0.6131
15509TIP3   OH267941   6.395   1.731   0.594 -0.4140 -0.4734  0.2810
15509TIP3    H167942   6.435   1.757   0.676  1.0109 -0.2825 -0.4596
15509TIP3    H267943   6.429   1.793   0.530  0.3553 -2.0495 -0.8761
15510TIP3   OH267944   0.657   4.886   5.179 -0.6765 -0.1069 -0.5421
15510TIP3    H167945   0.576   4.936   5.182 -1.5642 -1.4660 -1.5477
15510TIP3    H267946   0.718   4.936   5.234 -2.5501  0.2880  1.2576
15511TIP3   OH267947   3.342   5.476  13.012  0.0322 -0.3782  0.6304
15511TIP3    H167948   3.259   5.429  12.998 -0.5149  1.2513 -1.7971
15511TIP3    H267949   3.323   5.566  12.987  2.0165  0.4510  2.0192
15512TIP3   OH267950   4.504   2.723  12.413  0.4024  0.3354 -0.4724
15512TIP3    H167951   4.539   2.675  12.489  0.6635  0.9740 -0.1835
15512TIP3    H267952   4.531   2.671  12.338 -1.1981 -1.1310 -0.0484
15513TIP3   OH267953   0.293   3.991  11.375  0.2272  0.0257  0.0295
15513TIP3    H167954   0.315   3.898  11.373  0.6443  0.1257  0.1081
15513TIP3    H267955   0.226   4.001  11.307  0.2876 -0.3037 -0.0798
15514TIP3   OH267956   3.083   6.641   3.468 -0.4674 -0.0276  0.5665
15514TIP3    H167957   3.086   6.649   3.563 -0.0697 -3.0563  0.8680
15514TIP3    H267958   3.159   6.587   3.446  0.2506  1.7874 -1.6386
15515TIP3   OH267959   5.781   6.234   0.754 -0.0892 -0.1829 -0.0827
15515TIP3    H167960   5.717   6.200   0.816 -0.3440 -1.0965 -0.8386
15515TIP3    H267961   5.825   6.156   0.719 -0.4362  0.2677 -1.5741
15516TIP3   OH267962   0.023   5.860   4.446  0.6335  0.2030  0.2501
15516TIP3    H167963   0.011   5.912   4.366  1.0789 -0.3728 -0.2016
15516TIP3    H267964  -0.048   5.796   4.444  0.4372  0.4096  0.5010
15517TIP3   OH267965   2.482   3.364   2.134  0.5201 -0.2545  0.3620
15517TIP3    H167966   2.406   3.348   2.191  1.1426 -0.9715  1.0108
15517TIP3    H267967   2.526   3.438   2.174 -0.3515  0.7708 -0.5558
15518TIP3   OH267968   1.341   2.677   5.766 -0.0658  0.5036  0.1559
15518TIP3    H167969   1.369   2.660   5.676 -0.4892  1.6305 -0.1989
15518TIP3    H267970   1.249   2.649   5.768  0.2069 -0.3988  0.5052
15519TIP3   OH267971   5.822   6.779   0.304 -0.4962  0.0657 -0.1161
15519TIP3    H167972   5.777   6.701   0.335 -0.7068  0.9964  1.9947
15519TIP3    H267973   5.759   6.850   0.317 -0.3219  0.5922 -2.0405
15520TIP3   OH267974   6.220   4.303  14.356  0.0236  0.4174  0.2713
15520TIP3    H167975   6.130   4.298  14.325 -0.6406  1.4329  2.0054
15520TIP3    H267976   6.213   4.309  14.451  1.9799 -0.9630  0.5156
15521TIP3   OH267977   5.973   3.054  14.088  0.1287  0.3159 -0.1817
15521TIP3    H167978   5.941   3.107  14.161 -0.4104 -0.0674 -0.1357
15521TIP3    H267979   6.047   3.103  14.053 -2.0119  2.4499 -1.8562
15522TIP3   OH267980   3.206   0.596   4.056  0.5360  0.5358 -0.1409
15522TIP3    H167981   3.240   0.584   3.968 -2.5494 -0.0856 -1.3128
15522TIP3    H267982   3.154   0.518   4.073 -0.8866  1.7408  1.2760
15523TIP3   OH267983   6.577   4.385  15.090 -0.4457  0.1894  0.2031
15523TIP3    H167984   6.672   4.380  15.100 -0.3349  1.0316 -0.3764
15523TIP3    H267985   6.558   4.479  15.099 -1.3488 -0.1081  1.4900
15524TIP3   OH267986   6.235   3.801   3.459 -0.2148 -0.0832  0.4339
15524TIP3    H167987   6.158   3.779   3.407 -1.2018  0.7697  1.5025
15524TIP3    H267988   6.270   3.716   3.487  0.6354 -0.5777 -2.0047
15525TIP3   OH267989   1.841   6.316   5.864 -0.2706 -0.0718 -0.2122
15525TIP3    H167990   1.766   6.347   5.915  0.2421  0.0963  0.4492
15525TIP3    H267991   1.836   6.221   5.870  1.1580 -0.0295  2.1951
15526TIP3   OH267992   0.971   1.063   1.989 -0.5697  0.0754 -0.4688
15526TIP3    H167993   0.985   1.005   1.914  0.8726 -0.0081 -0.1483
15526TIP3    H267994   0.999   1.011   2.065  0.4864  1.0999 -0.1557
15527TIP3   OH267995   0.342   5.851  12.651 -0.0261  0.6594 -0.3427
15527TIP3    H167996   0.282   5.883  12.583 -0.4497  1.5299  0.4248
15527TIP3    H267997   0.378   5.930  12.691  0.4884  0.1526  0.2146
15528TIP3   OH267998   6.570   4.134  13.265  0.0424  0.8725  0.1188
15528TIP3    H167999   6.489   4.086  13.282  0.1172  0.7300  0.0689
15528TIP3    H268000   6.634   4.067  13.241  0.3829  0.9052  0.9105
15529TIP3   OH268001   5.200   6.469   5.610  1.6217 -0.4445  0.1734
15529TIP3    H168002   5.175   6.402   5.545  4.8739 -2.4198  0.8637
15529TIP3    H268003   5.167   6.435   5.693  2.2312 -0.5933  0.3534
15530TIP3   OH268004   4.115   4.292  14.002  0.2941  0.0820  0.4633
15530TIP3    H168005   4.167   4.292  13.922  0.7530 -0.3978  0.7580
15530TIP3    H268006   4.071   4.207  14.002 -0.5745  0.5201  0.1692
15531TIP3   OH268007   1.528   3.424  14.213  0.1138 -0.0339  0.6365
15531TIP3    H168008   1.573   3.501  14.179 -2.0221  1.8689  2.0523
15531TIP3    H268009   1.451   3.414  14.156 -0.6667  0.0662  1.6630
15532TIP3   OH268010   6.664   2.970  16.349 -0.4451 -0.2102  0.4456
15532TIP3    H168011   6.644   3.040  16.411  3.4647  0.1656  1.3864
15532TIP3    H268012   6.656   2.890  16.400  1.1089 -0.0087  1.0354
15533TIP3   OH268013   4.005   5.533  14.171 -0.4065 -0.0334  0.6477
15533TIP3    H168014   3.911   5.518  14.170 -0.3923 -0.1088  0.4048
15533TIP3    H268015   4.036   5.488  14.249 -0.5333 -0.2578  0.5705
15534TIP3   OH268016   4.231   3.776   0.259 -0.1909  0.5592 -0.0360
15534TIP3    H168017   4.209   3.789   0.167  0.6958  1.1860 -0.1728
15534TIP3    H268018   4.316   3.820   0.269 -0.0510  0.0698  0.9620
15535TIP3   OH268019   6.046   0.229   3.346  0.2678 -0.3058 -0.1127
15535TIP3    H168020   6.108   0.256   3.279 -0.7539  1.3684 -0.4346
15535TIP3    H268021   5.960   0.250   3.309 -0.4108 -1.3428  0.8529
15536TIP3   OH268022   6.216   1.484  11.589 -0.1342 -0.3333 -0.2416
15536TIP3    H168023   6.305   1.447  11.589 -0.2137 -0.5332 -0.8100
15536TIP3    H268024   6.172   1.438  11.661  0.2297 -0.2128  0.0612
15537TIP3   OH268025   3.551   3.184   2.602  0.3925  0.6261  0.3174
15537TIP3    H168026   3.643   3.200   2.581  0.4367  2.3425  1.6845
15537TIP3    H268027   3.510   3.270   2.597 -0.8320  0.1106  1.1785
15538TIP3   OH268028   2.557   5.437   1.532 -0.1281  0.2282  0.3904
15538TIP3    H168029   2.625   5.373   1.553 -0.1872 -0.2020 -0.7114
15538TIP3    H268030   2.492   5.388   1.481  0.4791  1.4470 -1.6303
15539TIP3   OH268031   4.187   2.877  14.459  0.1298 -0.4466  0.4747
15539TIP3    H168032   4.128   2.920  14.397 -0.9945 -0.7532  1.3040
15539TIP3    H268033   4.135   2.871  14.540  1.7263  0.3673  1.5883
15540TIP3   OH268034   6.330   4.063  17.187  0.4016 -0.2317  0.3248
15540TIP3    H168035   6.413   4.022  17.165 -0.4109 -1.0803 -1.2086
15540TIP3    H268036   6.300   4.103  17.105 -0.3947  0.6214  1.0147
15541TIP3   OH268037   2.028   0.125  13.062 -0.0541 -0.0913 -0.4587
15541TIP3    H168038   1.976   0.063  13.112  0.7316 -0.3216  0.0886
15541TIP3    H268039   1.964   0.182  13.019 -0.7420 -0.0282  0.6310
15542TIP3   OH268040   5.446   5.029  13.874  0.0351  0.7753 -0.5252
15542TIP3    H168041   5.523   5.062  13.920  0.3526 -3.0172  1.9400
15542TIP3    H268042   5.477   5.010  13.785  1.0704  2.3460 -0.5090
15543TIP3   OH268043   2.924   4.372  11.420  0.5064  0.5795 -0.4512
15543TIP3    H168044   2.925   4.433  11.347 -2.4171  1.2445 -0.0077
15543TIP3    H268045   2.842   4.390  11.466  0.7438 -1.9994  1.1362
15544TIP3   OH268046   6.072   2.242  16.638 -0.1760  0.1237 -0.5542
15544TIP3    H168047   5.982   2.249  16.606 -0.1808  0.5149 -0.4578
15544TIP3    H268048   6.094   2.150  16.627 -1.5902 -0.5815  2.1227
15545TIP3   OH268049   2.008   1.889  15.744  0.1551 -0.2835  0.3429
15545TIP3    H168050   2.005   1.794  15.729  2.0729 -0.2408 -0.4304
15545TIP3    H268051   2.101   1.910  15.751 -0.2796  1.4488  1.2268
15546TIP3   OH268052   6.304   4.476   4.557  0.4956 -0.1320 -0.2683
15546TIP3    H168053   6.312   4.525   4.639 -0.2591 -1.1719  0.4339
15546TIP3    H268054   6.386   4.428   4.550  1.4487  1.5845 -1.2089
15547TIP3   OH268055   4.139   4.323  12.451 -0.3290  0.3932  0.4147
15547TIP3    H168056   4.225   4.336  12.491  0.8283 -0.6995 -1.6427
15547TIP3    H268057   4.115   4.410  12.419  1.0294  0.2917 -0.9469
15548TIP3   OH268058   0.936   4.062   3.721  0.2618 -0.1539  0.0845
15548TIP3    H168059   0.925   3.970   3.695  1.1713 -0.3617  0.4264
15548TIP3    H268060   1.015   4.062   3.775  0.0239  0.7647  0.4363
15549TIP3   OH268061   4.342   0.431   4.025  0.2477  0.7409  0.2295
15549TIP3    H168062   4.419   0.433   3.968  1.2131  0.6275  1.4946
15549TIP3    H268063   4.268   0.447   3.967  0.9495 -1.7883 -1.4782
15550TIP3   OH268064   1.338   3.480  14.832 -0.3743  0.3254  0.2263
15550TIP3    H168065   1.290   3.412  14.784  0.1319 -0.1010  0.3204
15550TIP3    H268066   1.340   3.555  14.773 -1.4090  0.4465  0.3288
15551TIP3   OH268067   4.396   2.219   3.758  0.5208 -0.0833  0.2368
15551TIP3    H168068   4.487   2.229   3.731  0.3265  0.1475 -0.3499
15551TIP3    H268069   4.391   2.131   3.796  0.7996 -0.4273 -0.5078
15552TIP3   OH268070   3.838   1.893   2.072  0.6441  0.2637  0.2478
15552TIP3    H168071   3.820   1.902   1.978  1.3601  0.9411  0.1719
15552TIP3    H268072   3.933   1.902   2.079  0.6233 -0.0945  1.0044
15553TIP3   OH268073   0.373   6.779  11.072 -0.6585  0.1304 -0.2345
15553TIP3    H168074   0.452   6.814  11.032 -1.0745  0.3969 -0.8312
15553TIP3    H268075   0.377   6.684  11.056  0.2940 -0.0792  1.0797
15554TIP3   OH268076   6.584   6.393   6.164 -0.4663  0.2873  0.4195
15554TIP3    H168077   6.577   6.484   6.135  0.3997 -0.2064 -1.3615
15554TIP3    H268078   6.529   6.389   6.242 -0.5658  2.3235  0.4712
15555TIP3   OH268079   3.554   4.203  13.523  0.5606  0.1934  0.0837
15555TIP3    H168080   3.479   4.145  13.511  0.8684 -0.1193 -0.3402
15555TIP3    H268081   3.523   4.270  13.584  0.2793 -0.5442  0.7592
15556TIP3   OH268082   4.460   0.907  14.133  0.2345 -0.4631 -0.4327
15556TIP3    H168083   4.499   0.834  14.182  0.7748 -0.9104 -1.5174
15556TIP3    H268084   4.464   0.880  14.042  0.6509  1.0186 -0.8687
15557TIP3   OH268085   5.820   3.001   3.699 -0.3620 -0.1651 -0.2385
15557TIP3    H168086   5.882   3.029   3.766 -0.3468 -0.5669 -0.0819
15557TIP3    H268087   5.860   3.027   3.616  0.7117 -1.7196 -0.2278
15558TIP3   OH268088   1.007   4.715   3.528 -0.4842  0.6459  0.4678
15558TIP3    H168089   1.072   4.681   3.467  0.5112  3.6027 -0.2106
15558TIP3    H268090   0.927   4.722   3.475 -1.3711 -2.7548  1.2389
15559TIP3   OH268091   0.185   0.486   1.240 -0.0041 -0.4342  0.5701
15559TIP3    H168092   0.264   0.487   1.185  0.9064  1.1576  1.8470
15559TIP3    H268093   0.129   0.419   1.200  0.2071  1.2806 -2.8327
15560TIP3   OH268094   6.316   6.783  12.974  0.3982  0.0065 -0.0397
15560TIP3    H168095   6.321   6.725  12.898  2.9299 -0.3098  0.3357
15560TIP3    H268096   6.327   6.871  12.937 -3.4582  0.3231 -0.6083
15561TIP3   OH268097   1.478   0.049   4.952 -0.3502  0.5159  0.5046
15561TIP3    H168098   1.499   0.127   4.901  0.7250 -0.2748 -0.3168
15561TIP3    H268099   1.456  -0.017   4.886 -0.2754 -0.1393  1.1267
15562TIP3   OH268100   6.154   3.280   3.525 -0.1838  0.3485  0.1628
15562TIP3    H168101   6.200   3.217   3.580 -1.2641 -0.0746  0.6073
15562TIP3    H268102   6.214   3.297   3.452 -0.1960 -1.8343 -0.3958
15563TIP3   OH268103   3.174   0.256   4.598 -0.4081  0.2260  0.3812
15563TIP3    H168104   3.119   0.193   4.645 -0.1154  0.4678  1.0569
15563TIP3    H268105   3.179   0.332   4.656  0.2395  0.3955  0.1083
15564TIP3   OH268106   6.229   1.996   0.550  0.2226 -0.3939  0.0629
15564TIP3    H168107   6.171   1.939   0.499 -2.7325  2.4143  0.1309
15564TIP3    H268108   6.227   1.960   0.638  2.3760 -3.0506 -0.8902
15565TIP3   OH268109   1.407   4.469  17.011 -0.0421 -0.1128  0.1710
15565TIP3    H168110   1.346   4.396  17.013 -0.0102 -0.1748 -0.6614
15565TIP3    H268111   1.486   4.436  17.053 -0.4934 -0.1102  1.0344
15566TIP3   OH268112   0.345   4.144   5.664 -0.5740  0.3364  0.5467
15566TIP3    H168113   0.261   4.103   5.640 -1.5408  2.8131 -0.4536
15566TIP3    H268114   0.328   4.185   5.749 -0.6346  1.5686 -0.0570
15567TIP3   OH268115   0.895   5.315  16.703  0.1147 -0.4819 -0.3465
15567TIP3    H168116   0.913   5.380  16.771  0.2753 -1.1158  0.2274
15567TIP3    H268117   0.969   5.254  16.708 -0.5422 -1.2721 -0.1974
15568TIP3   OH268118   5.909   3.848  15.897 -0.1793 -0.0666  0.3443
15568TIP3    H168119   5.925   3.905  15.822 -2.2103  0.6374  0.4014
15568TIP3    H268120   5.935   3.900  15.973 -1.1439  0.4402  0.3327
15569TIP3   OH268121   3.956   4.751  13.577  0.0032 -0.2840  0.4783
15569TIP3    H168122   3.910   4.766  13.660 -1.4721 -2.2817  0.0507
15569TIP3    H268123   3.981   4.838  13.548 -0.9641  0.5976  2.1919
15570TIP3   OH268124   5.329   2.448   5.230  0.5174 -0.5898 -0.0926
15570TIP3    H168125   5.386   2.516   5.266 -0.6238  1.9580 -2.9209
15570TIP3    H268126   5.389   2.378   5.204  1.7978 -0.3520  2.0721
15571TIP3   OH268127   1.993   3.968  12.229 -0.3752 -0.4257  0.0821
15571TIP3    H168128   1.945   3.962  12.312 -2.0876  0.6461 -0.8179
15571TIP3    H268129   1.960   3.894  12.178  0.7921 -1.1752  0.3811
15572TIP3   OH268130   5.067   2.929  13.834 -0.3927  0.1376  0.4936
15572TIP3    H168131   5.056   3.007  13.780 -0.2453  0.1193  0.4363
15572TIP3    H268132   5.027   2.952  13.918 -0.3667  0.2699  0.4713
15573TIP3   OH268133   5.199   3.951   4.662 -0.6584  0.1860  0.8247
15573TIP3    H168134   5.155   3.909   4.736 -0.2413  1.2516  1.6913
15573TIP3    H268135   5.292   3.934   4.675 -0.6487 -0.3565  0.0775
15574TIP3   OH268136   0.091   5.873  11.357 -0.2794 -0.4037  0.2536
15574TIP3    H168137   0.154   5.803  11.372 -0.3803 -0.7096 -0.7556
15574TIP3    H268138   0.016   5.830  11.317 -0.3211  0.2893 -0.4129
15575TIP3   OH268139   6.128   1.906   5.498  0.0905  0.0450  0.0523
15575TIP3    H168140   6.154   1.941   5.583 -0.2437 -2.3494  1.2059
15575TIP3    H268141   6.155   1.814   5.501  0.4512  0.0109 -2.6082
15576TIP3   OH268142   2.482   1.728  13.566 -0.2717 -0.1455  0.9986
15576TIP3    H168143   2.562   1.779  13.577  0.8710 -1.2604 -1.5368
15576TIP3    H268144   2.489   1.658  13.631  0.9233 -0.3276  0.6953
15577TIP3   OH268145   0.198   6.748   1.068 -0.3211  0.5912 -0.1672
15577TIP3    H168146   0.207   6.806   1.143 -1.1475  0.9937 -0.3737
15577TIP3    H268147   0.196   6.807   0.992 -4.2065  0.5359 -0.1764
15578TIP3   OH268148   5.595   6.248   3.311 -0.1590  0.3310  0.1905
15578TIP3    H168149   5.648   6.317   3.350 -0.2167  0.2978  0.3287
15578TIP3    H268150   5.637   6.230   3.226  0.3519 -0.0495  0.5171
15579TIP3   OH268151   0.709   5.575  11.423  0.6015 -0.9216 -0.8332
15579TIP3    H168152   0.701   5.656  11.373  2.1415 -0.7457 -0.8219
15579TIP3    H268153   0.670   5.508  11.367  1.3487 -0.5446 -1.8273
15580TIP3   OH268154   0.173   0.166  11.005 -0.8043  0.4419 -0.5018
15580TIP3    H168155   0.246   0.104  11.014  0.2938  1.6866 -0.6924
15580TIP3    H268156   0.112   0.141  11.075  0.5640  0.4032  0.6951
15581TIP3   OH268157   5.649   5.560  14.437 -0.8676  0.2949  0.0742
15581TIP3    H168158   5.680   5.489  14.381  0.9348  0.5246  0.7328
15581TIP3    H268159   5.560   5.578  14.408 -0.0478  0.2466 -2.5566
15582TIP3   OH268160   0.677   5.951  16.707 -0.2800  0.1132  0.3406
15582TIP3    H168161   0.725   5.887  16.760  0.7528  1.0539  0.5571
15582TIP3    H268162   0.744   6.014  16.679 -0.7358 -0.4596 -2.2355
15583TIP3   OH268163   5.999   6.074   5.375 -0.3670 -0.0171 -0.3037
15583TIP3    H168164   5.957   6.060   5.460  0.5775  0.4943  0.2630
15583TIP3    H268165   6.069   6.137   5.394 -1.1318  1.2927 -1.7519
15584TIP3   OH268166   2.548   1.378  12.764  0.0780  0.0707 -0.1541
15584TIP3    H168167   2.492   1.448  12.728 -0.4191  1.2139  2.6654
15584TIP3    H268168   2.503   1.297  12.740 -2.5987  0.9476  1.5293
15585TIP3   OH268169   2.673   3.675  14.233  0.7460 -0.5599 -0.2602
15585TIP3    H168170   2.742   3.609  14.233  1.0097 -0.2916 -1.8499
15585TIP3    H268171   2.630   3.666  14.148 -0.0980  0.3996  0.0546
15586TIP3   OH268172   1.136   1.504  12.647 -0.6210  0.3943  0.6211
15586TIP3    H168173   1.095   1.514  12.562 -1.8060 -2.1792  0.8422
15586TIP3    H268174   1.218   1.553  12.640 -0.9940  0.7366 -1.7792
15587TIP3   OH268175   2.865   2.495   3.974  0.1634  0.6053  0.6792
15587TIP3    H168176   2.952   2.504   3.937  0.1372 -0.6598  0.3152
15587TIP3    H268177   2.877   2.442   4.053 -0.3957 -0.3145  0.1519
15588TIP3   OH268178   2.250   6.658  14.912 -0.3178 -0.0044  0.1777
15588TIP3    H168179   2.215   6.709  14.985  0.5233  2.0563 -0.8030
15588TIP3    H268180   2.178   6.600  14.886 -2.3414  2.6999 -0.5002
15589TIP3   OH268181   0.572   4.519  11.615 -0.1369  0.3276 -0.1693
15589TIP3    H168182   0.555   4.425  11.609 -0.8421  0.3285  1.6282
15589TIP3    H268183   0.539   4.555  11.533  0.5620 -1.0590 -1.0662
15590TIP3   OH268184   0.188   3.769   1.451 -0.3730  0.2340  0.3793
15590TIP3    H168185   0.143   3.697   1.407  0.5300  0.0105 -0.1956
15590TIP3    H268186   0.186   3.840   1.388  3.0872 -0.8579 -1.0479
15591TIP3   OH268187   2.014   1.353  15.869 -0.0378 -0.1473 -0.0430
15591TIP3    H168188   2.007   1.342  15.774 -0.9581 -1.1113  0.1335
15591TIP3    H268189   2.108   1.366  15.884  0.0521  0.4788 -1.1317
15592TIP3   OH268190   0.934   4.557  11.506  0.3447 -0.1772 -0.1505
15592TIP3    H168191   1.011   4.615  11.501 -0.7777  1.2088 -2.0284
15592TIP3    H268192   0.951   4.491  11.438 -1.2579  1.6158 -2.3773
15593TIP3   OH268193   4.702   5.518   6.532 -0.5172  0.1221 -0.3568
15593TIP3    H168194   4.633   5.491   6.593  0.6619 -1.0081  0.5114
15593TIP3    H268195   4.782   5.516   6.585  0.2220  1.1803 -1.4154
15594TIP3   OH268196   1.171   1.472   6.268  0.4818 -0.5961 -0.1900
15594TIP3    H168197   1.172   1.420   6.187  0.4842 -1.5960  0.4395
15594TIP3    H268198   1.171   1.406   6.338 -0.0538  0.2655  0.6172
15595TIP3   OH268199   0.283   6.489  12.908 -0.8270 -0.3926  0.0418
15595TIP3    H168200   0.239   6.431  12.970 -1.5434 -0.3087 -0.3819
15595TIP3    H268201   0.212   6.537  12.866 -0.3352 -0.3323 -0.7262
15596TIP3   OH268202   1.067   6.492   2.044 -0.4933 -0.1600  0.0337
15596TIP3    H168203   1.012   6.491   1.966 -0.9601 -0.9903  0.3722
15596TIP3    H268204   1.007   6.475   2.116  0.0404 -0.0356  0.5072
15597TIP3   OH268205   5.198   5.092  13.991 -0.0816  0.0365 -0.2928
15597TIP3    H168206   5.197   5.180  14.028 -0.7187 -0.3420  0.6199
15597TIP3    H268207   5.290   5.071  13.980  0.0682  1.0680 -1.1404
15598TIP3   OH268208   4.212   6.258   2.349  0.4727  0.3614 -0.1735
15598TIP3    H168209   4.153   6.205   2.295 -0.3203  0.7731  0.2670
15598TIP3    H268210   4.271   6.300   2.286  0.1661  0.1062 -0.6383
15599TIP3   OH268211   0.708   2.401   4.937 -0.0841 -0.6214  0.8494
15599TIP3    H168212   0.803   2.411   4.937  0.0940 -1.8585 -1.9504
15599TIP3    H268213   0.693   2.314   4.974  0.0410 -1.4440 -0.9974
15600TIP3   OH268214   2.161   4.338   6.546  0.4752  0.4969  0.2534
15600TIP3    H168215   2.079   4.322   6.499 -0.4870  1.3784  1.5853
15600TIP3    H268216   2.190   4.251   6.572 -0.7138  0.2665  0.8643
15601TIP3   OH268217   5.660   2.190  11.182  0.3553  0.5091  0.1308
15601TIP3    H168218   5.627   2.104  11.159 -0.6953  1.0128 -0.2507
15601TIP3    H268219   5.718   2.174  11.257 -1.3640 -0.2859  1.3257
15602TIP3   OH268220   2.723   5.795   3.656  0.2138 -0.3919 -0.4929
15602TIP3    H168221   2.780   5.840   3.718 -1.3687 -1.0248  1.4895
15602TIP3    H268222   2.755   5.704   3.656 -0.2911 -0.5726  0.0259
15603TIP3   OH268223   0.566   1.456   2.079 -0.7519  0.4700 -0.4143
15603TIP3    H168224   0.558   1.394   2.152 -1.7576 -0.2805 -1.1582
15603TIP3    H268225   0.649   1.432   2.037  0.1679  1.3333  0.8623
15604TIP3   OH268226   4.678   3.213   0.945  0.2255 -0.3965  0.0817
15604TIP3    H168227   4.731   3.137   0.970  0.6416  0.1652  0.9452
15604TIP3    H268228   4.588   3.181   0.948  0.5138 -1.3853 -1.4958
15605TIP3   OH268229   3.640   6.404  15.480  0.0281  0.7424 -0.2329
15605TIP3    H168230   3.703   6.361  15.538  2.1751  2.0030 -1.5998
15605TIP3    H268231   3.633   6.345  15.405  1.1246  1.5658 -0.9950
15606TIP3   OH268232   0.609   5.016   0.498  0.0581  0.3511  0.5600
15606TIP3    H168233   0.559   4.972   0.429 -0.7702  0.8602  0.8332
15606TIP3    H268234   0.622   4.948   0.564  0.3626  0.0188  0.1695
15607TIP3   OH268235   4.337   6.545  15.387  0.1470 -0.1796 -0.1736
15607TIP3    H168236   4.350   6.459  15.347 -0.2706 -0.0617 -0.5674
15607TIP3    H268237   4.420   6.591  15.376 -0.3109  0.2655 -1.9091
15608TIP3   OH268238   3.487   2.069  12.282 -0.8940 -0.5524 -0.1821
15608TIP3    H168239   3.576   2.085  12.251 -0.7447 -0.7067  0.1568
15608TIP3    H268240   3.435   2.140  12.244 -0.3485  0.4105  0.8336
15609TIP3   OH268241   2.677   4.827   5.699 -0.1225 -0.2260  0.0737
15609TIP3    H168242   2.770   4.818   5.720 -0.4321  2.1989  2.8018
15609TIP3    H268243   2.668   4.918   5.671 -1.4666 -0.8049 -1.4232
15610TIP3   OH268244   3.135   4.660  16.224 -0.0491 -1.0151  0.3651
15610TIP3    H168245   3.070   4.723  16.194  0.8138  0.5134  1.6051
15610TIP3    H268246   3.114   4.645  16.316  0.1724 -2.0274  0.2604
15611TIP3   OH268247   5.233   2.726  12.363  0.5091  0.1489 -1.4527
15611TIP3    H168248   5.305   2.782  12.333  1.4306 -0.7913 -1.0273
15611TIP3    H268249   5.274   2.641  12.378 -0.4536 -0.0763 -0.0133
15612TIP3   OH268250   5.204   1.214   6.675  0.1472 -0.2639  0.1618
15612TIP3    H168251   5.254   1.257   6.606  1.0656  0.0129  0.9831
15612TIP3    H268252   5.219   1.269   6.752 -1.5505 -0.0929  0.3914
15613TIP3   OH268253   5.405   4.014  16.305 -0.3588 -0.0021 -0.3788
15613TIP3    H168254   5.359   4.069  16.368 -0.3132  0.1159 -0.4480
15613TIP3    H268255   5.416   3.930  16.349  0.0142  0.1995 -0.0828
15614TIP3   OH268256   4.696   2.885   4.051  0.4744  0.0083  0.0766
15614TIP3    H168257   4.640   2.918   3.982  1.0933  0.3002 -0.2924
15614TIP3    H268258   4.785   2.910   4.025  0.8906 -1.3271  0.1390
15615TIP3   OH268259   4.518   3.151  12.857  0.3005 -0.2527  0.0670
15615TIP3    H168260   4.511   3.172  12.764 -0.4309  0.5802  0.2977
15615TIP3    H268261   4.509   3.056  12.862  0.8111 -0.3421 -0.7534
15616TIP3   OH268262   5.978   4.465  16.395 -1.0025 -0.0385  0.1129
15616TIP3    H168263   6.066   4.503  16.401 -1.0371  0.0322  0.1887
15616TIP3    H268264   5.933   4.499  16.472 -0.3684 -1.9775  1.3693
15617TIP3   OH268265   2.158   2.829  16.848  0.6322 -0.8596 -0.0636
15617TIP3    H168266   2.209   2.758  16.887 -2.8357 -3.2225  0.4414
15617TIP3    H268267   2.110   2.788  16.776  0.4705  1.5697 -1.4043
15618TIP3   OH268268   5.390   6.386  14.130 -0.4888  0.0492  0.0842
15618TIP3    H168269   5.418   6.448  14.197  1.8388  2.2485 -2.7930
15618TIP3    H268270   5.471   6.347  14.097 -1.7840 -3.1982  0.5363
15619TIP3   OH268271   6.148   0.019  13.770 -0.3889  0.2698  0.1007
15619TIP3    H168272   6.096  -0.048  13.813 -0.1392 -1.5976 -2.4002
15619TIP3    H268273   6.232  -0.023  13.753 -0.4603  0.9482 -2.1094
15620TIP3   OH268274   5.936   6.778   1.887  0.1648 -0.0767 -0.5542
15620TIP3    H168275   5.917   6.872   1.889 -0.1888 -0.0976 -2.3467
15620TIP3    H268276   6.029   6.772   1.909  0.3833  0.7525 -1.2545
15621TIP3   OH268277   5.553   2.447   1.538  0.3546 -0.3809  0.3553
15621TIP3    H168278   5.468   2.453   1.581 -0.7100 -1.9225 -1.4465
15621TIP3    H268279   5.609   2.401   1.601 -0.3185  0.1087  1.3114
15622TIP3   OH268280   0.286   2.765  13.225  0.4566  0.2633 -0.1525
15622TIP3    H168281   0.197   2.799  13.216  0.2438  0.0633  1.0861
15622TIP3    H268282   0.275   2.680  13.267  1.2821  0.5566  0.6696
15623TIP3   OH268283   1.311   4.615  13.673 -0.3900 -0.2010 -0.0213
15623TIP3    H168284   1.303   4.649  13.584  1.9775  2.4937  0.7204
15623TIP3    H268285   1.391   4.561  13.671 -0.1178  0.1742  0.5577
15624TIP3   OH268286   3.806   5.847  13.787 -0.1772  0.6971  0.1042
15624TIP3    H168287   3.753   5.776  13.823  0.2669 -0.0095 -0.6372
15624TIP3    H268288   3.860   5.806  13.720 -0.0164  1.7544 -0.4269
15625TIP3   OH268289   0.459   5.679  14.221 -0.6112  0.2059  0.2892
15625TIP3    H168290   0.385   5.640  14.269 -0.3294 -0.1818  0.4074
15625TIP3    H268291   0.481   5.613  14.154  2.1046 -1.3823  2.6716
15626TIP3   OH268292   5.794   5.485   4.540  0.1213  0.3359  0.5232
15626TIP3    H168293   5.774   5.555   4.602  1.5575  0.0725  1.3219
15626TIP3    H268294   5.748   5.509   4.460  2.1409  3.2106  0.1830
15627TIP3   OH268295   5.624   6.651   4.660  0.5309  0.3673  0.4585
15627TIP3    H168296   5.636   6.729   4.606  0.7202 -0.2796 -0.4320
15627TIP3    H268297   5.624   6.684   4.750  0.6207  1.3917  0.0838
15628TIP3   OH268298   4.067   0.963   5.420 -0.8923  0.0240 -0.2373
15628TIP3    H168299   4.037   1.052   5.400 -0.5841  0.1222 -0.2616
15628TIP3    H268300   4.039   0.911   5.344  0.8385  0.5209 -1.2378
15629TIP3   OH268301   1.370   1.922  12.839  0.6583  0.3759  0.5344
15629TIP3    H168302   1.330   2.009  12.843  2.2018  1.1434 -0.2750
15629TIP3    H268303   1.309   1.870  12.786  0.7983  1.5730 -0.8269
15630TIP3   OH268304   6.697   5.854   2.424  0.0375  0.2156  0.4561
15630TIP3    H168305   6.621   5.802   2.450 -0.3134  0.7748  0.5625
15630TIP3    H268306   6.747   5.865   2.504  1.0218 -1.4433  0.0778
15631TIP3   OH268307   4.857   2.285  14.887  0.4075 -0.7440 -0.8869
15631TIP3    H168308   4.788   2.325  14.834 -0.9092 -0.8855  0.6849
15631TIP3    H268309   4.814   2.211  14.929  1.5265 -0.8186  0.1330
15632TIP3   OH268310   1.307   2.876  15.610 -0.5560 -0.4333  0.1457
15632TIP3    H168311   1.259   2.828  15.678  0.1216 -1.9821 -0.4604
15632TIP3    H268312   1.341   2.809  15.552 -0.6499  0.8447 -1.4378
15633TIP3   OH268313   4.938   3.027   0.551 -0.0320  0.0020 -0.4032
15633TIP3    H168314   4.925   2.948   0.603  0.1202 -0.0191 -0.3951
15633TIP3    H268315   4.890   3.011   0.470 -1.4216  0.6028  0.2984
15634TIP3   OH268316   1.142   1.258  13.780  0.5082 -0.1419  0.0413
15634TIP3    H168317   1.196   1.216  13.847  0.2271 -0.9149 -0.2168
15634TIP3    H268318   1.109   1.338  13.822  2.2184  0.5830  0.0558
15635TIP3   OH268319   1.767   2.695   2.784 -0.0239  0.5178  0.2572
15635TIP3    H168320   1.705   2.654   2.845  0.6537  1.7992  1.8599
15635TIP3    H268321   1.727   2.779   2.763  1.1271  1.3440  1.2787
15636TIP3   OH268322   1.780   2.647  12.426 -0.8377  0.0325 -0.1256
15636TIP3    H168323   1.773   2.735  12.464 -0.0930  1.2755 -2.7330
15636TIP3    H268324   1.862   2.612  12.461 -0.2027  1.1215 -0.4793
15637TIP3   OH268325   3.220   2.815  15.224  0.0230 -0.1231  0.3217
15637TIP3    H168326   3.299   2.800  15.275 -0.3951 -0.6898  0.8157
15637TIP3    H268327   3.240   2.782  15.136  0.1007 -0.8906  0.6292
15638TIP3   OH268328   2.539   1.111  16.412  0.0136 -0.3839 -0.0483
15638TIP3    H168329   2.594   1.189  16.406 -1.0575  0.2741 -1.5291
15638TIP3    H268330   2.560   1.061  16.332 -1.4316 -0.1855 -0.5625
15639TIP3   OH268331   6.603   0.991  13.645 -0.4782  0.3347  0.4782
15639TIP3    H168332   6.590   0.945  13.562 -0.8935  0.7651  0.3069
15639TIP3    H268333   6.538   1.061  13.645  1.4052  2.1242 -0.0960
15640TIP3   OH268334   0.601   4.990  11.805  0.2269  0.1193  0.4666
15640TIP3    H168335   0.623   4.897  11.806 -1.1625 -0.2602 -2.0894
15640TIP3    H268336   0.615   5.017  11.714  0.9862  2.5224  1.2505
15641TIP3   OH268337   0.816   5.222  14.534  0.1787  0.3409  0.0217
15641TIP3    H168338   0.861   5.291  14.583 -0.0305  0.3019  0.2675
15641TIP3    H268339   0.886   5.160  14.511  0.5384  1.1053 -1.0307
15642TIP3   OH268340   5.883   1.479  10.508  0.0769 -0.3262  0.0320
15642TIP3    H168341   5.871   1.537  10.584 -0.8864  1.2146 -1.2650
15642TIP3    H268342   5.834   1.400  10.531 -0.8651  0.4387  0.6842
15643TIP3   OH268343   1.442   2.580   5.527 -0.1572 -0.3730 -0.0866
15643TIP3    H168344   1.528   2.543   5.546 -0.9675 -1.6137  1.2791
15643TIP3    H268345   1.421   2.550   5.439  2.7062  3.6475 -2.3252
15644TIP3   OH268346   6.382   0.098   4.945 -0.5766 -0.2347  0.2635
15644TIP3    H168347   6.312   0.097   5.010 -0.5850  0.0723  0.2603
15644TIP3    H268348   6.415   0.188   4.947  0.1103 -0.4873  0.5810
15645TIP3   OH268349   5.035   0.603  17.229 -0.5912  0.6247  0.0913
15645TIP3    H168350   5.021   0.697  17.222 -0.5734  0.5018 -1.7054
15645TIP3    H268351   5.001   0.580  17.316 -1.4677  2.1335  0.1603
15646TIP3   OH268352   0.930   2.265   2.495  0.6043 -0.0920  0.1886
15646TIP3    H168353   0.864   2.208   2.536  0.4901 -0.9120 -1.1019
15646TIP3    H268354   0.895   2.353   2.506 -0.7016 -0.5164 -0.4559
15647TIP3   OH268355   5.039   0.833  12.243 -0.0272  0.3179  0.2256
15647TIP3    H168356   5.122   0.788  12.261 -0.6720 -1.4710 -1.0936
15647TIP3    H268357   5.048   0.864  12.153 -1.1914 -0.8629 -0.3139
15648TIP3   OH268358   4.727   3.338  12.710 -0.2874  0.1966 -0.2380
15648TIP3    H168359   4.667   3.373  12.775 -1.1468 -1.0134 -0.3852
15648TIP3    H268360   4.777   3.271  12.756 -0.6619 -0.4237 -0.7275
15649TIP3   OH268361   2.739   0.332  14.793  0.0308  0.1522 -0.5240
15649TIP3    H168362   2.780   0.250  14.766 -0.2914 -0.1800 -0.0237
15649TIP3    H268363   2.801   0.370  14.856 -0.5871 -0.5314  0.5135
15650TIP3   OH268364   5.823   3.540  14.330  0.0416  0.4761 -0.3613
15650TIP3    H168365   5.880   3.607  14.290 -0.4095  0.3855 -1.1709
15650TIP3    H268366   5.738   3.584  14.340  0.5561  0.9974  1.9646
15651TIP3   OH268367   5.391   0.335   5.025 -0.0181 -0.2004 -0.6555
15651TIP3    H168368   5.410   0.359   5.116  0.9048 -1.6031 -0.4669
15651TIP3    H268369   5.324   0.397   4.998 -0.5692 -0.0007  1.1003
15652TIP3   OH268370   6.173   2.835   0.029 -0.7448 -0.6523  0.1113
15652TIP3    H168371   6.189   2.900  -0.040 -2.6862  0.1201  0.3593
15652TIP3    H268372   6.094   2.865   0.073 -1.6820 -3.2003  0.2570
15653TIP3   OH268373   5.104   0.757   2.199 -0.2485  0.2074 -0.0791
15653TIP3    H168374   5.116   0.670   2.237 -2.7795 -1.0258 -1.9878
15653TIP3    H268375   5.123   0.818   2.271  1.9248 -1.8812  1.1765
15654TIP3   OH268376   1.491   6.225  15.376 -0.9350 -0.3863  0.4036
15654TIP3    H168377   1.471   6.176  15.456 -0.4628  0.8347  1.2818
15654TIP3    H268378   1.519   6.311  15.407 -1.3235  0.2981 -1.1024
15655TIP3   OH268379   5.577   1.781   2.081 -0.1913  0.6851 -0.0336
15655TIP3    H168380   5.573   1.758   1.988 -1.1462  0.1557  0.1381
15655TIP3    H268381   5.513   1.851   2.091 -1.7489 -0.8073  0.6734
15656TIP3   OH268382   1.929   6.270  10.224 -0.0101  0.1754  0.5961
15656TIP3    H168383   1.944   6.241  10.134 -2.2623  1.1573 -0.1411
15656TIP3    H268384   1.916   6.365  10.217 -0.1269  0.2758  1.9702
15657TIP3   OH268385   5.135   5.334  15.745  0.1624 -0.5123  0.3142
15657TIP3    H168386   5.174   5.364  15.826  1.6947  0.7572 -0.8651
15657TIP3    H268387   5.194   5.265  15.714  0.2359 -0.1558 -0.3412
15658TIP3   OH268388   3.154   2.659   0.678  0.2628 -0.0071 -0.2650
15658TIP3    H168389   3.193   2.605   0.747 -0.5751  1.2850  1.2703
15658TIP3    H268390   3.212   2.735   0.671 -2.6326  2.7338  3.1717
15659TIP3   OH268391   6.738   2.047   3.320 -0.1225 -0.4762 -0.1645
15659TIP3    H168392   6.707   2.132   3.291  1.1537  0.4591  1.1293
15659TIP3    H268393   6.825   2.038   3.280  0.0055 -0.9013  0.1967
15660TIP3   OH268394   3.027   5.132  16.649 -0.0051  0.4174 -0.1879
15660TIP3    H168395   3.068   5.204  16.696 -0.0310  0.0319  0.4224
15660TIP3    H268396   2.955   5.174  16.600 -0.1737  0.7666  0.3532
15661TIP3   OH268397   3.412   3.912  14.824 -0.1154 -0.1123  0.0477
15661TIP3    H168398   3.326   3.952  14.810 -0.5961 -0.6647  1.3255
15661TIP3    H268399   3.395   3.841  14.886  1.4379  0.4568  1.1481
15662TIP3   OH268400   1.217   3.524   4.571 -0.2109 -0.5796  0.1731
15662TIP3    H168401   1.226   3.509   4.665 -0.8705  0.2747  0.3683
15662TIP3    H268402   1.143   3.468   4.545 -1.7682  1.2223  0.6532
15663TIP3   OH268403   5.299   6.611   4.080 -0.1617  0.5201  0.0260
15663TIP3    H168404   5.235   6.573   4.020  0.8891  1.1564 -1.5361
15663TIP3    H268405   5.358   6.538   4.100  0.0398  0.5313 -0.4970
15664TIP3   OH268406   2.986   5.257  16.187 -0.4139  0.4091 -0.4476
15664TIP3    H168407   2.982   5.312  16.109 -1.6543  0.2975 -0.4756
15664TIP3    H268408   2.896   5.231  16.202 -0.1804  0.4208  1.0232
15665TIP3   OH268409   0.590   4.354   2.288 -0.1549 -0.0197  0.1096
15665TIP3    H168410   0.558   4.272   2.251  0.2215 -0.3932  0.6022
15665TIP3    H268411   0.682   4.358   2.261  0.0271 -0.1254  0.7024
15666TIP3   OH268412   1.651   4.527   1.119 -0.2991 -0.0089 -0.3627
15666TIP3    H168413   1.609   4.482   1.192 -0.5582 -0.0372 -0.5262
15666TIP3    H268414   1.588   4.519   1.047 -1.3426  2.4837  0.1997
15667TIP3   OH268415   6.016   6.093  12.375 -0.3977 -0.0558 -0.2183
15667TIP3    H168416   5.951   6.084  12.445 -0.1643  3.0195  0.4619
15667TIP3    H268417   6.049   6.182  12.384  1.2697 -0.3441 -2.8761
15668TIP3   OH268418   3.361   3.901   2.857  0.2405  0.2729  0.1712
15668TIP3    H168419   3.411   3.911   2.938  0.6168  0.9347 -0.1309
15668TIP3    H268420   3.289   3.843   2.879 -0.0487  0.9994  1.1654
15669TIP3   OH268421   5.722   4.999   5.678 -0.9732 -0.4357 -0.5353
15669TIP3    H168422   5.777   4.984   5.601 -0.5535  0.4342 -0.4087
15669TIP3    H268423   5.637   4.964   5.653 -0.8407 -0.1544 -1.4096
15670TIP3   OH268424   1.298   1.237   3.526 -0.1400 -0.2651 -0.0678
15670TIP3    H168425   1.212   1.196   3.520  0.1331 -0.7162 -1.1553
15670TIP3    H268426   1.357   1.165   3.549  0.2924 -0.4407 -1.6602
15671TIP3   OH268427   1.426   0.959   6.758 -0.4688  0.1825  0.1682
15671TIP3    H168428   1.491   1.023   6.728 -2.6730  3.1319  1.3790
15671TIP3    H268429   1.472   0.907   6.824  1.5733  0.0150 -1.3289
15672TIP3   OH268430   3.363   2.973   4.790  0.2801 -0.1983  0.0129
15672TIP3    H168431   3.294   2.917   4.756  0.1812  0.4954 -0.9461
15672TIP3    H268432   3.444   2.937   4.754  0.2472  0.0830 -0.3412
15673TIP3   OH268433   0.298   6.119  16.472  0.3081 -0.1072 -0.2279
15673TIP3    H168434   0.212   6.111  16.432  0.7451  1.5337 -1.5495
15673TIP3    H268435   0.281   6.123  16.566 -1.2442  2.4567 -0.5797
15674TIP3   OH268436   2.630   4.028  12.839  0.2969 -0.1157 -0.1513
15674TIP3    H168437   2.704   4.049  12.782  0.3036 -0.9244 -0.4579
15674TIP3    H268438   2.553   4.043  12.784  0.3215 -1.4312 -0.5776
15675TIP3   OH268439   1.693   5.887  12.127  0.0583  0.7302 -0.1990
15675TIP3    H168440   1.670   5.828  12.055  0.8656 -0.9944  0.9365
15675TIP3    H268441   1.641   5.966  12.111  0.0139  0.2662 -2.5088
15676TIP3   OH268442   1.928   4.205   0.186 -0.1611  0.1737 -0.1984
15676TIP3    H168443   2.007   4.156   0.163 -0.9897 -0.3076 -2.1247
15676TIP3    H268444   1.867   4.138   0.219 -0.5414  0.2012 -0.8315
15677TIP3   OH268445   3.526   0.495   4.585 -0.3148 -0.2284  0.1099
15677TIP3    H168446   3.511   0.401   4.593 -1.6594 -0.2783 -2.6732
15677TIP3    H268447   3.439   0.534   4.590 -0.0474  0.6387 -1.8101
15678TIP3   OH268448   5.148   6.136   0.882 -0.1687  0.1642  0.4600
15678TIP3    H168449   5.241   6.156   0.870 -0.8123  2.5667 -0.8369
15678TIP3    H268450   5.122   6.093   0.801 -1.1229  3.2850 -0.9585
15679TIP3   OH268451   5.971   3.473  14.727  0.4687  0.0927 -0.0467
15679TIP3    H168452   5.982   3.392  14.677  0.8237  0.5787 -0.7605
15679TIP3    H268453   5.976   3.445  14.819 -2.7600 -1.2042 -0.1652
15680TIP3   OH268454   2.664   6.590   2.324 -0.2785 -0.0960  0.2330
15680TIP3    H168455   2.580   6.636   2.320 -0.0715  0.4160  1.4794
15680TIP3    H268456   2.680   6.577   2.417  0.6719 -0.8580 -0.0233
15681TIP3   OH268457   5.529   3.631  16.631 -0.3199  0.4236  0.1496
15681TIP3    H168458   5.478   3.576  16.691 -0.0405  0.0090  0.0160
15681TIP3    H268459   5.617   3.632  16.669  0.2048 -0.9994 -0.9969
15682TIP3   OH268460   2.920   1.026   2.402  0.6532  0.1121  0.2617
15682TIP3    H168461   2.989   1.053   2.341  1.0537 -1.4434 -0.0052
15682TIP3    H268462   2.841   1.023   2.348  0.9427 -0.9359 -0.1152
15683TIP3   OH268463   1.525   6.348   0.447  0.2437 -0.5925 -0.3783
15683TIP3    H168464   1.548   6.327   0.357  0.2427  0.2091 -0.5708
15683TIP3    H268465   1.529   6.444   0.451 -0.7446 -0.5735  0.2099
15684TIP3   OH268466   0.898   4.862   2.461 -0.7551 -0.6681  0.3531
15684TIP3    H168467   0.987   4.849   2.494 -0.5189 -0.1217 -0.0773
15684TIP3    H268468   0.853   4.907   2.533 -0.2357  0.5317 -0.0623
15685TIP3   OH268469   4.234   2.159  11.094  0.1953 -0.2996 -0.2381
15685TIP3    H168470   4.278   2.185  11.013  0.0254 -0.3889 -0.3588
15685TIP3    H268471   4.231   2.064  11.091 -0.6963 -0.2588 -0.5941
15686TIP3   OH268472   3.982   5.914  14.643  0.4565  0.8995  0.7527
15686TIP3    H168473   4.021   5.896  14.558 -0.7967  2.1005 -0.1118
15686TIP3    H268474   3.893   5.878  14.637 -0.0179  1.9621  1.1177
15687TIP3   OH268475   6.212   0.246   0.811  0.2218 -0.1186 -0.0218
15687TIP3    H168476   6.218   0.154   0.835  0.9048 -0.1737 -0.3772
15687TIP3    H268477   6.126   0.256   0.770  0.4537 -0.7618 -0.6737
15688TIP3   OH268478   1.526   5.326  11.484 -0.3656 -0.0435  0.6711
15688TIP3    H168479   1.528   5.264  11.557 -1.4356 -0.3265  0.4712
15688TIP3    H268480   1.438   5.363  11.487 -0.9291 -1.1672 -1.3926
15689TIP3   OH268481   4.534   1.636  16.787 -0.2267  0.0274  0.6205
15689TIP3    H168482   4.453   1.662  16.745  1.4508  2.2015 -1.4420
15689TIP3    H268483   4.534   1.682  16.871 -0.4619  1.1991 -0.0194
15690TIP3   OH268484   3.573   6.219  13.587  0.6419 -0.8284  0.4310
15690TIP3    H168485   3.513   6.289  13.560  2.1325  0.1770 -0.3622
15690TIP3    H268486   3.598   6.242  13.677 -0.3116 -1.3553  0.8313
15691TIP3   OH268487   6.555   4.796   4.660  0.0426 -0.4501 -0.8421
15691TIP3    H168488   6.488   4.843   4.710  0.7846  1.1138 -1.2822
15691TIP3    H268489   6.600   4.741   4.725  3.4872  4.3377  1.0963
15692TIP3   OH268490   3.397   2.324   2.057  0.1903 -0.5071 -0.7567
15692TIP3    H168491   3.344   2.379   1.999  1.7425  0.6536 -1.1058
15692TIP3    H268492   3.397   2.238   2.015  0.1596 -0.0342 -1.7367
15693TIP3   OH268493   0.115   0.020  16.907 -0.0225 -0.3706  0.9308
15693TIP3    H168494   0.165  -0.061  16.901  0.4016 -0.3412  3.4986
15693TIP3    H268495   0.136   0.067  16.826  2.9161 -1.0503  1.2511
15694TIP3   OH268496   3.681   4.428  16.392 -0.6446  0.3215 -0.8875
15694TIP3    H168497   3.749   4.361  16.385 -0.3328  0.5338  0.0306
15694TIP3    H268498   3.729   4.511  16.383 -0.5092  0.5407  1.4134
15695TIP3   OH268499   5.620   4.784   1.389  0.0508 -0.7629 -0.1770
15695TIP3    H168500   5.539   4.833   1.404 -0.2330 -1.3204  0.1311
15695TIP3    H268501   5.671   4.839   1.331 -1.0429 -0.9364 -1.3258
15696TIP3   OH268502   2.146   1.083  13.490  0.7052 -0.5066 -0.5520
15696TIP3    H168503   2.191   1.003  13.462 -0.0519 -1.0554 -0.2297
15696TIP3    H268504   2.136   1.134  13.410  2.8861  0.1357 -0.4555
15697TIP3   OH268505   0.103   0.567   5.078  0.3450  0.0843  0.5213
15697TIP3    H168506   0.086   0.499   5.013  0.3931  0.4168  0.1576
15697TIP3    H268507   0.197   0.560   5.096  0.2292 -0.3717  0.9707
15698TIP3   OH268508   2.787   6.113  11.471 -0.3325  0.1708  0.2289
15698TIP3    H168509   2.837   6.061  11.407 -1.6443 -2.1609  1.0617
15698TIP3    H268510   2.719   6.156  11.419  1.5018  2.1336 -0.6611
15699TIP3   OH268511   3.470   1.798  16.073  0.1405 -0.1876  0.2007
15699TIP3    H168512   3.528   1.730  16.039  1.0168  1.1324 -1.0215
15699TIP3    H268513   3.407   1.813  16.003 -0.6194 -0.3812  0.8305
15700TIP3   OH268514   6.415   2.375   6.226  0.0007 -0.7210 -0.0328
15700TIP3    H168515   6.496   2.414   6.260 -0.1626  1.7442 -2.2822
15700TIP3    H268516   6.351   2.388   6.296  0.8554 -0.1225  0.6523
15701TIP3   OH268517   5.911   0.694  11.773  0.2214 -0.1170  0.3129
15701TIP3    H168518   5.892   0.605  11.804 -2.1589 -0.1707 -1.2100
15701TIP3    H268519   5.990   0.684  11.719 -0.0105 -1.3070  0.1682
15702TIP3   OH268520   6.134   6.758  12.520  0.4123  0.7532  0.0940
15702TIP3    H168521   6.148   6.678  12.571 -0.5232  1.1925  1.0707
15702TIP3    H268522   6.041   6.754  12.497 -0.1884  2.6351  2.0480
15703TIP3   OH268523   1.579   5.277   0.516 -0.2389  0.0079  0.1509
15703TIP3    H168524   1.544   5.293   0.428 -0.1504 -0.7878 -0.0320
15703TIP3    H268525   1.510   5.308   0.575 -1.4641 -1.9335 -0.2083
15704TIP3   OH268526   2.747   0.513  12.738  0.1134 -0.1621 -0.2761
15704TIP3    H168527   2.764   0.598  12.780  1.5886 -0.2200 -0.7064
15704TIP3    H268528   2.728   0.534  12.647 -1.7859 -0.1355  0.1142
15705TIP3   OH268529   5.737   5.662   5.648 -0.6441 -0.2635 -0.2572
15705TIP3    H168530   5.832   5.658   5.638 -0.5026 -0.3835  1.0330
15705TIP3    H268531   5.703   5.639   5.561  0.4965  0.2071 -0.8449
15706TIP3   OH268532   0.437   0.061   3.800  0.1397 -0.2389 -0.3740
15706TIP3    H168533   0.473   0.058   3.888  0.0322 -0.4328 -0.3363
15706TIP3    H268534   0.387   0.143   3.796 -0.4450 -0.5742 -0.0288
15707TIP3   OH268535   0.411   1.230   3.327  0.6837  0.2155  0.0567
15707TIP3    H168536   0.338   1.170   3.343  0.9018 -0.3732 -1.1008
15707TIP3    H268537   0.383   1.284   3.254  1.0894  0.5274  0.1275
15708TIP3   OH268538   0.844   4.991   4.755  0.0101 -0.1155 -0.3380
15708TIP3    H168539   0.799   4.928   4.810 -1.7877  0.9599 -0.5517
15708TIP3    H268540   0.849   4.948   4.669  0.7589 -0.8445  0.0617
15709TIP3   OH268541   1.713   3.804  12.828 -0.1120  0.0446  0.2341
15709TIP3    H168542   1.761   3.862  12.887 -0.9393 -0.2592  1.2124
15709TIP3    H268543   1.782   3.756  12.782  0.5436  0.1192  1.1158
15710TIP3   OH268544   2.721   1.069  10.556  0.3240  0.2798  0.0078
15710TIP3    H168545   2.640   1.026  10.527  0.6864 -0.8906  0.7069
15710TIP3    H268546   2.773   0.998  10.594  2.7643  0.5288 -2.7287
15711TIP3   OH268547   4.319   5.736  11.502 -0.7065 -0.3244  0.2019
15711TIP3    H168548   4.369   5.689  11.569  0.0055  2.3474  1.6429
15711TIP3    H268549   4.377   5.738  11.426  0.0133 -0.1845  0.7458
15712TIP3   OH268550   1.608   3.646   0.716 -0.1263  0.4183 -0.2672
15712TIP3    H168551   1.693   3.620   0.680 -0.7786 -1.7511 -0.2727
15712TIP3    H268552   1.587   3.727   0.670  1.3404  0.2941 -1.2028
15713TIP3   OH268553   2.038   2.541   5.277 -0.0373 -0.3562  0.0213
15713TIP3    H168554   2.021   2.481   5.203  0.1944 -0.2799 -0.0957
15713TIP3    H268555   2.131   2.529   5.296 -0.7087 -2.5010  2.1732
15714TIP3   OH268556   5.590   1.660  12.059 -0.5376  0.0186  0.1022
15714TIP3    H168557   5.656   1.693  11.998 -1.7141  1.5176 -0.3860
15714TIP3    H268558   5.638   1.646  12.141  0.4111  0.9699 -0.2759
15715TIP3   OH268559   4.924   0.554  16.035 -0.0792  0.2856  0.1995
15715TIP3    H168560   4.848   0.613  16.038 -0.8486 -0.7560  2.4231
15715TIP3    H268561   4.995   0.609  16.000 -1.4260  1.7688 -0.2790
15716TIP3   OH268562   1.759   3.213  15.937  0.4270 -0.3468 -0.4853
15716TIP3    H168563   1.717   3.235  16.020 -0.9992 -0.1141 -1.2445
15716TIP3    H268564   1.852   3.213  15.956  0.1276  0.0894  1.0227
15717TIP3   OH268565   2.167   6.015   1.492  0.2502 -0.4428 -0.6892
15717TIP3    H168566   2.243   5.968   1.458  0.4583  0.1550 -1.0655
15717TIP3    H268567   2.094   5.981   1.441  0.2518 -1.0823 -0.2643
15718TIP3   OH268568   6.187   6.006  17.100  0.6294 -0.1304  0.1405
15718TIP3    H168569   6.281   6.014  17.118  0.4070  3.8855  0.0790
15718TIP3    H268570   6.145   6.033  17.181 -0.4850 -1.7010  0.0960
15719TIP3   OH268571   4.110   5.209   1.794  0.5400 -0.2410  0.2050
15719TIP3    H168572   4.020   5.241   1.789  0.2449 -1.1710 -0.6909
15719TIP3    H268573   4.101   5.114   1.794  1.5722 -0.3431 -0.7661
15720TIP3   OH268574   3.950   0.888  12.454  0.2385 -0.4785 -0.4432
15720TIP3    H168575   3.949   0.979  12.423  3.1068 -0.6040 -1.1157
15720TIP3    H268576   3.919   0.837  12.379  0.8295 -0.2109 -0.8839
15721TIP3   OH268577   5.898   0.652  13.337  0.5687 -0.2709  0.1191
15721TIP3    H168578   5.879   0.563  13.307  1.5992 -0.2687 -0.6061
15721TIP3    H268579   5.908   0.702  13.256  0.4800  0.3874  0.5194
15722TIP3   OH268580   0.591   0.275  13.530  0.4947 -0.3649  0.3212
15722TIP3    H168581   0.581   0.285  13.435 -0.1871 -1.4787  0.2620
15722TIP3    H268582   0.555   0.355  13.567  2.8294  1.1033 -0.4374
15723TIP3   OH268583   4.621   5.430  11.845 -0.1758 -0.2817  0.3584
15723TIP3    H168584   4.577   5.497  11.792 -2.5316 -0.3221  2.1937
15723TIP3    H268585   4.714   5.454  11.840 -0.2793 -0.2548 -3.6635
15724TIP3   OH268586   5.541   5.330   5.605 -0.8107 -0.1176  0.2476
15724TIP3    H168587   5.614   5.324   5.666 -1.0897 -0.1834  0.5816
15724TIP3    H268588   5.574   5.383   5.532 -0.7403  0.6877  0.8609
15725TIP3   OH268589   4.805   1.249   0.914 -0.4742  0.9103  0.1021
15725TIP3    H168590   4.866   1.214   0.978 -0.4123  1.7590  0.5131
15725TIP3    H268591   4.839   1.336   0.892  0.8147 -0.2661 -2.8459
15726TIP3   OH268592   3.408   4.635   3.854  0.9496  0.1280  0.0171
15726TIP3    H168593   3.315   4.657   3.843  0.9422 -0.0016 -0.1901
15726TIP3    H268594   3.454   4.716   3.833  0.8907  0.1527 -0.0184
15727TIP3   OH268595   5.817   6.494  13.197 -0.5311  0.2416 -0.5788
15727TIP3    H168596   5.835   6.400  13.202  1.3153  0.5190 -1.5168
15727TIP3    H268597   5.903   6.535  13.192 -1.3466  1.8977 -1.7109
15728TIP3   OH268598   5.974   1.882   1.283  0.0596  0.6015  0.9858
15728TIP3    H168599   5.976   1.967   1.239 -1.7765  0.9637  1.5477
15728TIP3    H268600   5.883   1.852   1.272  0.9796 -1.8771 -0.3073
15729TIP3   OH268601   5.164   4.949   1.596  0.7818 -0.1002 -0.7866
15729TIP3    H168602   5.258   4.930   1.601  0.9777  1.2903  2.5835
15729TIP3    H268603   5.159   5.037   1.560  1.0715  1.2873  2.3511
15730TIP3   OH268604   0.756   5.848   3.151  0.4375 -0.0605 -0.6501
15730TIP3    H168605   0.734   5.763   3.113  0.1493 -0.5524  0.5861
15730TIP3    H268606   0.779   5.829   3.241 -1.2226  1.3666  0.1203
15731TIP3   OH268607   6.765   2.630  14.719 -0.1066  0.3744  0.4856
15731TIP3    H168608   6.841   2.634  14.662  0.1264 -0.4251  0.7272
15731TIP3    H268609   6.733   2.540  14.710 -0.6820  0.5421  0.8115
15732TIP3   OH268610   6.432   3.180   2.331  0.5652 -0.1421 -0.4439
15732TIP3    H168611   6.354   3.127   2.350 -1.1813  1.6065 -2.3767
15732TIP3    H268612   6.501   3.116   2.313 -0.3881 -1.7350  1.4207
15733TIP3   OH268613   1.353   5.030   2.098 -0.1100  0.2661  0.6492
15733TIP3    H168614   1.300   5.089   2.151 -0.7570 -0.6672  1.0567
15733TIP3    H268615   1.431   5.013   2.152  1.0688  2.3833 -0.3478
15734TIP3   OH268616   5.093   0.033  16.153 -0.3590 -0.1702  0.2932
15734TIP3    H168617   5.014   0.031  16.099 -0.7778  0.9773  0.8458
15734TIP3    H268618   5.062   0.017  16.242  0.0096  0.4356  0.5350
15735TIP3   OH268619   3.163   3.093  13.288  0.3008  0.4889 -0.0874
15735TIP3    H168620   3.167   3.128  13.199  0.0835  1.5766  0.3278
15735TIP3    H268621   3.110   3.156  13.337 -0.2223 -0.4916  0.6369
15736TIP3   OH268622   5.081   3.390  13.889  0.0557  0.2671  0.2577
15736TIP3    H168623   5.021   3.320  13.862  0.6566 -0.6376  1.2102
15736TIP3    H268624   5.044   3.422  13.971  1.5235 -1.1476  1.5085
15737TIP3   OH268625   5.546   2.105   5.647 -0.7101 -0.2643 -0.8209
15737TIP3    H168626   5.504   2.164   5.584 -0.1073  0.7827 -0.2388
15737TIP3    H268627   5.475   2.079   5.706 -0.7805  0.6120 -0.5153
15738TIP3   OH268628   5.349   6.709  13.408  0.5863 -0.2497  0.7153
15738TIP3    H168629   5.350   6.685  13.315  0.3503 -2.4563  1.2618
15738TIP3    H268630   5.433   6.753  13.422  1.2360 -1.1767 -0.2088
15739TIP3   OH268631   6.622   4.553  14.764 -0.1272  0.7041  0.1598
15739TIP3    H168632   6.585   4.641  14.760  0.9875  1.2757  2.0235
15739TIP3    H268633   6.714   4.566  14.788  0.3986 -0.8929 -0.8899
15740TIP3   OH268634   1.301   1.728   4.334 -0.6765 -0.4454 -0.0327
15740TIP3    H168635   1.275   1.697   4.247  0.1560  0.5775 -0.6542
15740TIP3    H268636   1.360   1.661   4.367  0.1794 -0.1119 -0.8743
15741TIP3   OH268637   6.768   4.003   3.368 -0.1252 -0.0710  0.4434
15741TIP3    H168638   6.785   3.928   3.310  2.2456 -1.4953  2.8860
15741TIP3    H268639   6.803   4.078   3.320  1.0269 -1.0986 -0.3726
15742TIP3   OH268640   2.508   4.976  12.714  0.0430  0.2145 -0.8298
15742TIP3    H168641   2.435   4.929  12.756 -0.6172  1.2832 -0.7561
15742TIP3    H268642   2.561   4.907  12.674 -0.5701 -0.6440 -0.1933
15743TIP3   OH268643   0.880   1.686   0.273 -0.3050 -0.1550 -0.0252
15743TIP3    H168644   0.845   1.735   0.199 -1.9836 -0.6106  0.4465
15743TIP3    H268645   0.960   1.733   0.297 -1.0133  1.3825 -0.6176
15744TIP3   OH268646   6.350   5.372   0.067 -0.9056 -0.4239  0.8367
15744TIP3    H168647   6.364   5.369  -0.027 -0.4755  0.4689  0.8650
15744TIP3    H268648   6.385   5.289   0.099 -2.1892 -1.2838  0.0822
15745TIP3   OH268649   3.832   1.371   2.132 -0.1046  0.0704 -0.0926
15745TIP3    H168650   3.901   1.430   2.162  0.0630  0.6342 -1.5739
15745TIP3    H268651   3.874   1.285   2.126 -0.3946 -0.2725  2.2460
15746TIP3   OH268652   2.516   0.888  15.649  0.6563 -0.4200 -0.3656
15746TIP3    H168653   2.586   0.842  15.695 -1.1150 -1.8927  0.9335
15746TIP3    H268654   2.449   0.821  15.633 -1.2087  1.3150 -0.0331
15747TIP3   OH268655   2.371   6.768   4.912  0.0865  0.2923  0.2912
15747TIP3    H168656   2.326   6.732   4.835 -0.2580 -0.2198  0.7267
15747TIP3    H268657   2.347   6.860   4.913  0.6565  0.4563 -0.6169
15748TIP3   OH268658   3.415   6.044   1.498 -0.1860 -0.0166  0.6559
15748TIP3    H168659   3.418   6.138   1.515 -2.1463 -0.1906  2.0884
15748TIP3    H268660   3.507   6.018   1.489  0.4110  1.8522  1.2520
15749TIP3   OH268661   4.010   2.270   4.383  0.5202  0.3407  0.4245
15749TIP3    H168662   4.012   2.186   4.429  2.4182 -0.5431 -1.2055
15749TIP3    H268663   4.046   2.333   4.446  0.0863 -0.2473  1.2720
15750TIP3   OH268664   5.363   2.876   5.093 -0.0319 -0.0685  0.2757
15750TIP3    H168665   5.370   2.882   4.998  0.8314 -2.2243  0.1958
15750TIP3    H268666   5.271   2.855   5.109 -0.1780  0.3041 -0.0573
15751TIP3   OH268667   5.350   3.871   5.537  0.9622  0.2715 -0.3425
15751TIP3    H168668   5.286   3.873   5.609  0.9154  0.7821 -0.3913
15751TIP3    H268669   5.396   3.788   5.548 -0.9869 -1.0114 -1.4311
15752TIP3   OH268670   5.227   3.227   3.051  0.4966  0.0260 -0.1461
15752TIP3    H168671   5.275   3.161   3.101  0.7895 -0.4490 -1.0459
15752TIP3    H268672   5.148   3.183   3.021  0.5771  0.1407 -0.5407
15753TIP3   OH268673   5.700   2.669   0.656 -0.3679  0.0627  0.5070
15753TIP3    H168674   5.681   2.726   0.582 -1.1346  0.4496  0.9945
15753TIP3    H268675   5.639   2.697   0.724 -2.0699 -2.6009  0.1372
15754TIP3   OH268676   3.767   2.745  15.169  0.1457 -0.1932 -0.3783
15754TIP3    H168677   3.688   2.693  15.154 -1.6887  2.0601  1.1168
15754TIP3    H268678   3.773   2.753  15.264  0.3878  2.2719 -0.5713
15755TIP3   OH268679   0.814   0.614   4.107 -0.1757 -0.6544  0.4995
15755TIP3    H168680   0.847   0.546   4.047 -0.4763 -0.2024 -0.1765
15755TIP3    H268681   0.773   0.565   4.178  2.9817 -1.3002  1.9925
15756TIP3   OH268682   2.816   2.974  11.535 -0.2904  0.2710 -0.4300
15756TIP3    H168683   2.836   2.881  11.530 -1.4700  0.0677 -1.3961
15756TIP3    H268684   2.807   3.003  11.444 -1.3464  1.0136 -0.1016
15757TIP3   OH268685   0.368   4.582   6.285  0.2229 -0.3824 -0.6055
15757TIP3    H168686   0.349   4.507   6.341 -0.3742 -0.5407 -1.0115
15757TIP3    H268687   0.462   4.576   6.267  0.4315 -0.2988  0.4177
15758TIP3   OH268688   3.594   0.486   0.037 -0.0468  0.5045 -0.1963
15758TIP3    H168689   3.689   0.496   0.045 -0.0292 -1.3729  2.5043
15758TIP3    H268690   3.558   0.535   0.111 -1.1605  0.6673 -0.8401
15759TIP3   OH268691   0.427   2.972  16.765  0.3237  0.7092  0.1796
15759TIP3    H168692   0.373   3.020  16.828 -0.5359  0.5849 -0.4609
15759TIP3    H268693   0.392   2.996  16.679 -0.0910 -0.9935 -0.1650
15760TIP3   OH268694   4.276   1.685   0.242  0.5900 -0.1914  0.3628
15760TIP3    H168695   4.191   1.663   0.281 -0.1399  3.0363  0.7723
15760TIP3    H268696   4.297   1.610   0.187 -2.4615 -1.1538  0.3927
15761TIP3   OH268697   6.296   3.851   1.285  0.6483 -0.2118  0.3766
15761TIP3    H168698   6.294   3.865   1.190 -2.3481  2.1273  0.7211
15761TIP3    H268699   6.251   3.767   1.297  0.0844  0.0000 -0.2103
15762TIP3   OH268700   1.588   1.556   2.421 -0.4998  0.0630 -0.3809
15762TIP3    H168701   1.536   1.478   2.403  0.3488 -0.2337 -1.5636
15762TIP3    H268702   1.650   1.562   2.349  0.5437  0.9073  0.5547
15763TIP3   OH268703   0.333   6.462   2.072 -0.0789 -0.2337 -0.9652
15763TIP3    H168704   0.415   6.437   2.115 -0.1285 -0.1564 -0.8264
15763TIP3    H268705   0.265   6.417   2.121 -0.3494  1.7202  0.5245
15764TIP3   OH268706   6.096   3.653   2.438 -0.3169 -0.3607  0.2779
15764TIP3    H168707   6.140   3.737   2.456 -1.1955  0.1778 -0.0722
15764TIP3    H268708   6.131   3.626   2.353 -0.6499  0.0606  0.0057
15765TIP3   OH268709   5.640   5.907   2.846  0.0379  0.2114  0.7421
15765TIP3    H168710   5.580   5.971   2.887  0.9313  1.6211 -0.1028
15765TIP3    H268711   5.583   5.848   2.798 -0.7974  0.5046  1.3533
15766TIP3   OH268712   1.040   0.024   1.664 -0.3291 -0.3536  0.0655
15766TIP3    H168713   1.101   0.077   1.714  0.3527 -2.9611  2.1148
15766TIP3    H268714   0.963   0.080   1.651  0.8452  1.5256  1.0430
15767TIP3   OH268715   6.360   1.932   3.807 -0.3925 -0.5436  0.6646
15767TIP3    H168716   6.322   1.857   3.762  1.0991 -0.0002 -1.6118
15767TIP3    H268717   6.293   1.961   3.868 -2.9303 -0.6463 -1.9972
15768TIP3   OH268718   6.246   4.194  11.319 -0.4788 -0.2918  0.1066
15768TIP3    H168719   6.258   4.099  11.325 -0.5996 -0.3771 -0.9977
15768TIP3    H268720   6.164   4.205  11.270  0.7037  0.3998 -1.7517
15769TIP3   OH268721   2.809   3.900   2.094 -0.1195  0.2052 -0.1604
15769TIP3    H168722   2.898   3.899   2.130  0.0285 -0.4944 -0.5406
15769TIP3    H268723   2.801   3.817   2.046 -1.2377 -0.0975  0.5138
15770TIP3   OH268724   1.938   5.208   3.616 -0.0027  0.1528 -0.1223
15770TIP3    H168725   1.985   5.218   3.698 -0.9457 -1.2785  0.6173
15770TIP3    H268726   1.849   5.183   3.642  0.0283 -1.6119 -1.5925
15771TIP3   OH268727   0.566   2.468  11.606 -0.6782 -0.0989 -0.9108
15771TIP3    H168728   0.514   2.408  11.552  0.3387  0.3618 -2.4088
15771TIP3    H268729   0.560   2.552  11.561 -0.2735  0.4252  0.0032
15772TIP3   OH268730   2.061   1.282  15.022 -0.2080  0.1903 -0.4860
15772TIP3    H168731   2.125   1.218  15.054  0.0371  0.1428 -1.0689
15772TIP3    H268732   2.052   1.345  15.093  0.8413  0.4614 -0.5924
15773TIP3   OH268733   5.081   2.002  13.091 -0.2294  0.2604  0.3226
15773TIP3    H168734   5.149   1.948  13.131 -0.1930  0.2031  0.1839
15773TIP3    H268735   5.084   1.979  12.998 -0.8637 -0.1922  0.4170
15774TIP3   OH268736   4.283   2.973  16.980  0.3077  0.0729  0.5223
15774TIP3    H168737   4.340   3.047  16.963  0.5340 -0.4171 -0.9900
15774TIP3    H268738   4.342   2.898  16.991  0.1017  0.1571  2.4032
15775TIP3   OH268739   5.259   0.821  14.692 -0.0303  0.4041 -0.5119
15775TIP3    H168740   5.340   0.868  14.710  0.3788 -0.4160 -0.1834
15775TIP3    H268741   5.190   0.877  14.729  0.3940  1.0089 -0.6221
15776TIP3   OH268742   1.473   5.087  11.253  0.3494  0.1925 -1.0289
15776TIP3    H168743   1.526   5.045  11.186  1.5825 -0.4497  0.3190
15776TIP3    H268744   1.456   5.175  11.219 -0.0602 -0.5125 -2.6993
15777TIP3   OH268745   5.979   4.358   1.982  0.1697  0.3941  0.7364
15777TIP3    H168746   6.043   4.288   1.965 -0.1307  0.1423  0.6405
15777TIP3    H268747   6.029   4.425   2.029  0.8850  0.8568 -0.6299
15778TIP3   OH268748   2.492   2.967  13.234 -0.5504  0.7251  1.2566
15778TIP3    H168749   2.536   2.900  13.287  0.7030  1.3097  0.9557
15778TIP3    H268750   2.510   3.049  13.279  2.7126  1.5905 -1.3845
15779TIP3   OH268751   0.359   3.488  16.915  0.0791  0.3988 -0.2806
15779TIP3    H168752   0.340   3.573  16.955  1.0354  1.3995 -1.8977
15779TIP3    H268753   0.285   3.471  16.857 -0.1357  0.1024  0.0769
15780TIP3   OH268754   1.587   4.660   3.494 -0.4758  0.2994 -0.1555
15780TIP3    H168755   1.665   4.715   3.499 -0.2035  0.0917 -2.0039
15780TIP3    H268756   1.612   4.587   3.438 -1.4162 -0.7630  0.7846
15781TIP3   OH268757   0.027   5.124   0.581 -0.7282  0.2171 -0.0866
15781TIP3    H168758  -0.064   5.152   0.583 -1.1818 -1.3030  1.2589
15781TIP3    H268759   0.059   5.139   0.670  0.3977  0.8880 -0.5883
15782TIP3   OH268760   2.601   6.098   3.763 -0.2921 -0.1533  0.1076
15782TIP3    H168761   2.628   6.143   3.682  0.5470 -2.9135 -1.2285
15782TIP3    H268762   2.677   6.044   3.786 -2.7338 -4.1694 -0.8029
15783TIP3   OH268763   5.605   3.200  12.393 -0.0678  0.7375 -0.1344
15783TIP3    H168764   5.603   3.197  12.297 -0.9420 -0.0384 -0.0947
15783TIP3    H268765   5.583   3.291  12.414  0.0607  0.8969 -0.6631
15784TIP3   OH268766   6.034   3.388  16.186  0.2403  0.5907  0.4171
15784TIP3    H168767   6.118   3.400  16.230 -0.1203  1.5822  0.8338
15784TIP3    H268768   5.969   3.398  16.255 -0.1899 -1.0546  0.2575
15785TIP3   OH268769   0.936   0.289   1.061 -0.4473 -0.2861 -0.6141
15785TIP3    H168770   0.894   0.221   1.114  0.4940 -1.2611 -1.0930
15785TIP3    H268771   0.909   0.371   1.102 -0.3480 -0.9989  0.9308
15786TIP3   OH268772   4.729   6.186  16.463 -0.2493 -0.1116  0.4994
15786TIP3    H168773   4.736   6.278  16.440  0.1300 -0.3590 -0.3956
15786TIP3    H268774   4.649   6.156  16.419  0.6383 -0.6578 -0.7679
15787TIP3   OH268775   4.232   4.541   1.286  0.2115 -0.2214  0.8021
15787TIP3    H168776   4.206   4.540   1.378 -0.1086  0.5669  0.7275
15787TIP3    H268777   4.174   4.606   1.245  0.9123  0.0418  0.2120
15788TIP3   OH268778   2.600   4.176   0.843  0.2040 -0.5802  0.0614
15788TIP3    H168779   2.650   4.153   0.921 -0.6121  0.3730  0.8758
15788TIP3    H268780   2.538   4.243   0.873  1.8227  1.9144 -2.0180
15789TIP3   OH268781   0.608   1.095   4.303 -0.3037  0.1533  0.3928
15789TIP3    H168782   0.562   1.036   4.362  0.3033  1.7818  2.5385
15789TIP3    H268783   0.679   1.132   4.356  1.8473 -0.2607 -2.0628
15790TIP3   OH268784   3.100   5.435   4.393  0.1165 -0.0687  0.0832
15790TIP3    H168785   3.147   5.352   4.396 -1.3408 -0.9453 -0.6602
15790TIP3    H268786   3.016   5.417   4.436  0.1649  1.2814  0.7783
15791TIP3   OH268787   5.020   3.970  14.596  0.0039  0.0008 -0.1277
15791TIP3    H168788   4.947   4.020  14.633  0.2698  0.5176 -0.2814
15791TIP3    H268789   5.034   4.010  14.510  0.5476 -0.0065 -0.0449
15792TIP3   OH268790   3.437   1.150   2.561 -0.6000  0.3838 -0.4142
15792TIP3    H168791   3.356   1.188   2.528 -1.0984  1.0351  1.5092
15792TIP3    H268792   3.463   1.086   2.494 -1.7217  1.4642 -1.9019
15793TIP3   OH268793   6.189   3.216   1.183  0.1222  0.4871  0.4648
15793TIP3    H168794   6.240   3.138   1.160 -1.7037 -0.9767  1.2364
15793TIP3    H268795   6.199   3.274   1.108  0.1879 -1.1814 -0.8535
15794TIP3   OH268796   0.891   0.996  14.366 -0.3009 -0.4625  0.3176
15794TIP3    H168797   0.924   0.976  14.279  1.0222 -0.1269  0.7284
15794TIP3    H268798   0.888   1.092  14.370  0.3287 -0.4610  0.8819
15795TIP3   OH268799   1.217   1.670   0.518  0.8898  0.0751  0.2296
15795TIP3    H168800   1.222   1.747   0.573  1.9041  0.0569  0.1698
15795TIP3    H268801   1.163   1.608   0.568  2.6713 -0.3423  1.7057
15796TIP3   OH268802   3.622   4.377   4.568  0.1745 -0.2055 -0.0526
15796TIP3    H168803   3.620   4.303   4.629 -2.1492 -0.9005 -0.9292
15796TIP3    H268804   3.614   4.454   4.624  0.3281 -0.7165  0.6855
15797TIP3   OH268805   3.067   3.348  13.424  0.5489 -0.0554  0.0131
15797TIP3    H168806   3.018   3.429  13.410 -1.6973 -1.2708  0.7534
15797TIP3    H268807   3.131   3.370  13.492  1.8261  1.8388 -1.7301
15798TIP3   OH268808   1.091   1.310  14.869  0.4024  0.5192 -0.3044
15798TIP3    H168809   1.136   1.243  14.817 -0.8540 -0.8382  0.3191
15798TIP3    H268810   1.003   1.276  14.881 -0.3654  2.4662 -0.2584
15799TIP3   OH268811   2.615   2.761  13.379 -0.2182  0.5563 -0.2541
15799TIP3    H168812   2.635   2.679  13.334 -0.4755 -0.3885  1.3126
15799TIP3    H268813   2.688   2.775  13.438 -1.6725 -0.2433  1.7995
15800TIP3   OH268814   4.213   2.088   1.487 -0.2430  0.5082  0.3915
15800TIP3    H168815   4.276   2.025   1.523  0.1712  0.8239  0.2196
15800TIP3    H268816   4.260   2.131   1.416  0.6562  3.4235  2.6553
15801TIP3   OH268817   6.787   2.741  15.901 -0.1756 -0.3883 -0.5568
15801TIP3    H168818   6.717   2.775  15.958  1.1508 -0.3568  1.1113
15801TIP3    H268819   6.857   2.806  15.909  0.8036 -1.4261 -0.6187
15802TIP3   OH268820   5.099   4.396  17.176  0.3680 -0.4800 -0.2576
15802TIP3    H168821   5.144   4.344  17.243  0.7188 -0.2060 -0.2778
15802TIP3    H268822   5.029   4.441  17.223  1.4971  0.8325  0.2188
15803TIP3   OH268823   2.016   1.286  12.368  0.3908 -0.2909  0.0023
15803TIP3    H168824   1.979   1.368  12.336  1.1694 -0.4948 -1.4193
15803TIP3    H268825   2.025   1.299  12.463 -0.0970  1.0154 -0.1242
15804TIP3   OH268826   1.566   3.836   5.388 -0.2214  0.7365 -0.3560
15804TIP3    H168827   1.534   3.883   5.465 -0.5844  0.5298 -0.3775
15804TIP3    H268828   1.512   3.757   5.384  1.0187 -0.1658  0.2415
15805TIP3   OH268829   0.832   5.733  16.842 -0.4766  0.0372 -0.1733
15805TIP3    H168830   0.907   5.678  16.865 -0.1378  1.1283  1.4382
15805TIP3    H268831   0.756   5.682  16.868 -0.3140 -1.2200 -2.1346
15806TIP3   OH268832   0.871   1.185  16.583  0.3938  0.1817  0.2514
15806TIP3    H168833   0.932   1.117  16.612  1.7448  1.0400 -0.5149
15806TIP3    H268834   0.903   1.265  16.624 -0.0706  0.6773 -0.3555
15807TIP3   OH268835   3.104   5.805  14.284 -0.4392  0.8243 -0.3198
15807TIP3    H168836   3.024   5.839  14.245 -1.9408 -1.3047  0.7784
15807TIP3    H268837   3.155   5.773  14.209 -0.9107  1.5610 -0.9623
15808TIP3   OH268838   1.153   3.551   3.015  0.0465 -0.2359  0.0688
15808TIP3    H168839   1.084   3.613   2.990  1.3618  0.8161 -1.0436
15808TIP3    H268840   1.106   3.474   3.046 -1.6291  0.6189 -0.2852
15809TIP3   OH268841   5.821   5.509   0.679 -0.0109 -0.5360 -0.1797
15809TIP3    H168842   5.900   5.554   0.648 -1.9115  3.1375  0.0782
15809TIP3    H268843   5.792   5.458   0.603  0.4911  1.0872 -1.4813
15810TIP3   OH268844   6.687   0.704   3.815  0.2219 -0.2729 -0.5639
15810TIP3    H168845   6.597   0.732   3.833  0.9119  0.8908  1.2489
15810TIP3    H268846   6.719   0.767   3.751  0.6697  1.1216  0.9887
15811TIP3   OH268847   1.521   0.074   0.146 -0.0381 -0.6834  0.1121
15811TIP3    H168848   1.483   0.066   0.233  0.8298  0.0970  0.5761
15811TIP3    H268849   1.531  -0.017   0.116  0.2243 -0.9785  1.0777
15812TIP3   OH268850   4.101   5.661  11.344 -0.7522  0.3829  0.0640
15812TIP3    H168851   4.023   5.685  11.394 -0.0296 -0.1714  1.4786
15812TIP3    H268852   4.174   5.699  11.393  0.1644 -2.1580  0.7667
15813TIP3   OH268853   3.696   5.625   1.678 -0.1017 -0.4013 -0.4085
15813TIP3    H168854   3.709   5.548   1.622 -0.7797  0.4802 -1.8043
15813TIP3    H268855   3.635   5.680   1.630 -3.7318 -1.3159  2.8843
15814TIP3   OH268856   6.165   5.304   3.939 -0.3358  0.5087  0.0440
15814TIP3    H168857   6.177   5.331   4.031  1.5597  2.0764 -0.6161
15814TIP3    H268858   6.254   5.290   3.907 -0.9645  0.3862 -1.6834
15815TIP3   OH268859   4.373   6.627   3.362 -0.1909  0.7114 -0.3514
15815TIP3    H168860   4.390   6.534   3.350  1.5590  1.1400 -1.4047
15815TIP3    H268861   4.337   6.634   3.451  0.1224 -0.9052 -0.0883
15816TIP3   OH268862   2.836   6.080  12.558 -0.1168 -0.2110 -0.0193
15816TIP3    H168863   2.813   6.004  12.612 -1.1133 -0.0564 -0.2005
15816TIP3    H268864   2.904   6.049  12.499  0.3235 -0.6357  0.7021
15817TIP3   OH268865   2.529   3.414   3.933  0.0343 -0.1878 -0.0975
15817TIP3    H168866   2.558   3.327   3.959 -1.1635 -0.6276 -0.2107
15817TIP3    H268867   2.519   3.462   4.015  0.5168 -0.2004 -0.0263
15818TIP3   OH268868   5.468   0.306  11.496  0.1285  0.0495  0.0737
15818TIP3    H168869   5.494   0.218  11.468 -0.2173 -0.1684  0.4268
15818TIP3    H268870   5.393   0.291  11.553 -0.6737  0.6453 -0.8011
15819TIP3   OH268871   0.780   6.672   1.568 -0.0008  0.0065 -0.4497
15819TIP3    H168872   0.871   6.649   1.586  0.4154  1.5273 -0.5655
15819TIP3    H268873   0.733   6.654   1.650  0.3010 -1.2361 -0.5383
15820TIP3   OH268874   4.980   4.868  12.517  0.2927 -0.0427  0.1337
15820TIP3    H168875   4.960   4.942  12.459  0.3161 -0.4628 -0.4110
15820TIP3    H268876   5.056   4.898  12.567  2.3870 -0.8876 -2.3758
15821TIP3   OH268877   6.638   2.782  17.219 -0.0500  0.1980 -0.5558
15821TIP3    H168878   6.579   2.822  17.154 -0.7446 -0.6893 -0.4800
15821TIP3    H268879   6.662   2.855  17.276 -5.1547 -0.2673  2.5153
15822TIP3   OH268880   0.908   4.912  16.600  0.3734 -0.7459  0.2093
15822TIP3    H168881   0.821   4.878  16.621 -1.1537  2.4365 -0.6768
15822TIP3    H268882   0.901   4.939  16.508  1.2739  2.5234  1.0532
15823TIP3   OH268883   5.913   3.327  13.950  0.0217 -0.6109  0.3871
15823TIP3    H168884   5.889   3.296  14.038  1.7604  0.5328  1.3110
15823TIP3    H268885   6.003   3.360  13.961  0.8661 -1.9380 -2.1850
15824TIP3   OH268886   2.120   5.161   2.404 -0.1804  0.0351 -1.2000
15824TIP3    H168887   2.073   5.238   2.437 -1.3474 -1.0520 -0.2813
15824TIP3    H268888   2.114   5.169   2.309 -1.0173  0.6504 -1.1062
15825TIP3   OH268889   0.037   0.621  17.009  0.4937 -0.0743  0.0490
15825TIP3    H168890  -0.040   0.644  17.062  0.4553 -0.1967  0.0456
15825TIP3    H268891   0.025   0.528  16.990 -1.3315  0.7634 -3.2381
15826TIP3   OH268892   2.837   1.592  16.404 -0.0562 -0.0621  0.1105
15826TIP3    H168893   2.832   1.621  16.313 -1.3107 -1.1757 -0.1760
15826TIP3    H268894   2.852   1.673  16.454 -3.7492  1.1869 -0.6607
15827TIP3   OH268895   0.292   4.427   5.482  0.0823 -0.2175  0.7319
15827TIP3    H168896   0.214   4.442   5.428  0.2779 -1.2353  0.1517
15827TIP3    H268897   0.306   4.510   5.528 -1.4099 -0.0566  0.9253
15828TIP3   OH268898   6.632   2.890   0.219 -0.0200 -0.6175 -0.0513
15828TIP3    H168899   6.679   2.856   0.295  0.4916 -0.5944 -0.3613
15828TIP3    H268900   6.671   2.975   0.203 -2.2972  0.8307  1.6564
15829TIP3   OH268901   6.373   4.360   1.173 -0.6489  0.2585 -0.2907
15829TIP3    H168902   6.385   4.270   1.144 -1.3250  0.1069 -0.1146
15829TIP3    H268903   6.383   4.413   1.093  0.7055  0.1181 -0.2311
15830TIP3   OH268904   2.154   2.545   4.644  0.7698 -0.3185  0.3970
15830TIP3    H168905   2.239   2.500   4.649  0.2494 -0.9799  4.5086
15830TIP3    H268906   2.171   2.633   4.679 -0.1816 -0.3160  0.8544
15831TIP3   OH268907   1.037   1.059  12.508  0.0894 -0.0063  0.7318
15831TIP3    H168908   0.979   1.061  12.584 -0.0433 -0.3733  0.6406
15831TIP3    H268909   1.104   1.125  12.528 -0.5478  0.6699  0.6772
15832TIP3   OH268910   2.907   4.142  11.738  0.2919 -0.4212 -0.2908
15832TIP3    H168911   2.853   4.063  11.733 -0.3570 -0.1191  1.5287
15832TIP3    H268912   2.857   4.208  11.690  1.2381 -1.2954 -2.5615
15833TIP3   OH268913   4.334   1.647  14.273  1.0258 -0.3802  0.3720
15833TIP3    H168914   4.317   1.608  14.188 -0.8685 -1.1458  1.0553
15833TIP3    H268915   4.407   1.597  14.309  0.6110 -1.2701 -0.0264
15834TIP3   OH268916   2.257   0.124   4.630 -0.0535  0.3040 -0.0350
15834TIP3    H168917   2.275   0.194   4.692  0.5566  0.1157  0.0094
15834TIP3    H268918   2.169   0.094   4.652  0.4162 -0.2145  1.1906
15835TIP3   OH268919   3.528   0.797   2.667 -0.6009  0.6439  0.9743
15835TIP3    H168920   3.434   0.798   2.649 -0.3350  0.1598 -0.4738
15835TIP3    H268921   3.568   0.841   2.593  0.4687 -0.9487  0.5715
15836TIP3   OH268922   6.469   3.658   1.396  0.1225 -0.1424 -0.5465
15836TIP3    H168923   6.376   3.646   1.412 -0.1920  0.9722 -1.4864
15836TIP3    H268924   6.485   3.751   1.411  1.1053 -0.3393 -0.3073
15837TIP3   OH268925   5.434   4.996   5.700 -0.1555 -1.0784  0.5833
15837TIP3    H168926   5.457   5.087   5.718 -0.4086 -0.5961 -1.4234
15837TIP3    H268927   5.338   4.994   5.705 -0.3154 -0.6654 -1.7903
15838TIP3   OH268928   2.675   0.608   0.925  0.6000 -0.1086 -0.2675
15838TIP3    H168929   2.621   0.674   0.969  0.2069  0.2515 -1.2776
15838TIP3    H268930   2.750   0.657   0.892  0.9594 -0.4003  0.1278
15839TIP3   OH268931   0.439   5.486   3.845  0.1454 -0.2892 -1.1611
15839TIP3    H168932   0.502   5.437   3.897 -0.1486 -1.0478 -1.5074
15839TIP3    H268933   0.460   5.462   3.754  0.5038  0.8334 -1.3733
15840TIP3   OH268934   0.457   2.848   5.175 -0.4061  0.3705 -0.2308
15840TIP3    H168935   0.372   2.864   5.134 -1.1501 -1.7488  0.3714
15840TIP3    H268936   0.499   2.933   5.178 -2.4270  1.4214 -0.7502
15841TIP3   OH268937   3.044   2.959   5.871 -0.2041 -0.4302  0.5902
15841TIP3    H168938   3.089   2.955   5.955 -2.5416  0.3983  1.9207
15841TIP3    H268939   3.114   2.977   5.808  1.5289 -0.6524  2.3951
15842TIP3   OH268940   0.633   3.672  16.932 -0.1796 -0.2170 -0.0727
15842TIP3    H168941   0.555   3.719  16.902  0.6611  0.5943 -1.0250
15842TIP3    H268942   0.604   3.626  17.010 -2.7916 -3.4132 -2.7475
15843TIP3   OH268943   0.672   5.713  15.213 -0.3290 -0.3798  0.1981
15843TIP3    H168944   0.700   5.650  15.279 -2.2902 -1.7423 -0.2145
15843TIP3    H268945   0.584   5.684  15.188 -1.0235  2.1589 -0.4709
15844TIP3   OH268946   5.513   0.081   5.459 -0.1670  0.4622  0.2883
15844TIP3    H168947   5.446   0.034   5.508  0.5820 -1.3034 -0.3699
15844TIP3    H268948   5.593   0.030   5.471  0.5164  1.2243 -0.9313
15845TIP3   OH268949   4.248   0.499  16.637  0.2159 -0.0039  0.0197
15845TIP3    H168950   4.270   0.415  16.676 -1.5507 -0.2425  0.5375
15845TIP3    H268951   4.309   0.561  16.677 -0.0853 -0.6200  1.4523
15846TIP3   OH268952   0.141   0.501  13.974  0.4526 -0.0361  0.0462
15846TIP3    H168953   0.086   0.423  13.985 -1.4538  1.5258  1.8180
15846TIP3    H268954   0.155   0.534  14.063  1.7267  1.3379 -0.6368
15847TIP3   OH268955   4.463   2.738   6.138 -0.2685  0.1815  0.0943
15847TIP3    H168956   4.440   2.786   6.059  1.8488 -0.7419 -1.1329
15847TIP3    H268957   4.505   2.804   6.194  0.7511  0.2434 -0.7269
15848TIP3   OH268958   2.056   6.319  11.156 -0.5119  0.6584  0.2546
15848TIP3    H168959   2.048   6.239  11.104  1.3602  0.9169 -0.4700
15848TIP3    H268960   2.148   6.321  11.182 -0.9109  1.7622  1.5968
15849TIP3   OH268961   3.528   5.933  15.313  0.1253 -0.1886 -0.6542
15849TIP3    H168962   3.571   5.885  15.383 -1.6128  1.0683  1.3353
15849TIP3    H268963   3.488   5.865  15.258  1.1653 -1.1574 -0.2244
15850TIP3   OH268964   0.679   5.842  14.827 -1.0839 -0.4239  0.1448
15850TIP3    H168965   0.642   5.892  14.754 -0.1300  2.6476  1.6555
15850TIP3    H268966   0.765   5.813  14.794 -1.4303 -0.6369 -0.5848
15851TIP3   OH268967   4.944   2.414  11.533 -0.5138 -0.5629  0.1092
15851TIP3    H168968   4.926   2.439  11.442 -2.1551 -0.5603  0.4229
15851TIP3    H268969   5.022   2.358  11.528  0.8952  1.4700 -1.0192
15852TIP3   OH268970   2.131   1.664  16.982  0.0611  0.8437 -0.3478
15852TIP3    H168971   2.108   1.634  16.894 -0.0683 -0.0389 -0.0158
15852TIP3    H268972   2.196   1.733  16.967 -0.3452  1.0582 -1.1563
15853TIP3   OH268973   5.936   4.158   4.711  0.1099 -0.4068 -0.2528
15853TIP3    H168974   5.980   4.078   4.740  0.4145  0.8603  3.0711
15853TIP3    H268975   5.991   4.191   4.640  1.4284 -1.8050  0.0925
15854TIP3   OH268976   2.164   4.447  14.478  0.5617 -0.0726 -0.5886
15854TIP3    H168977   2.241   4.396  14.452  0.6922  0.3875 -1.1122
15854TIP3    H268978   2.152   4.509  14.406  0.4077  0.6422  0.0561
15855TIP3   OH268979   3.547   0.568  15.795 -0.1452  0.2096  0.2671
15855TIP3    H168980   3.526   0.523  15.714  0.0147 -0.3989  0.5595
15855TIP3    H268981   3.628   0.615  15.776  0.1679 -0.3366  0.2189
15856TIP3   OH268982   6.681   2.515   4.374 -0.0872 -0.1434 -0.3021
15856TIP3    H168983   6.628   2.509   4.295  0.3525 -0.0066 -0.6085
15856TIP3    H268984   6.742   2.587   4.357 -1.3911  1.3153  1.0016
15857TIP3   OH268985   1.409   3.571  15.332  0.2658  0.2604  0.3517
15857TIP3    H168986   1.415   3.662  15.362 -0.2869  0.3115  0.3126
15857TIP3    H268987   1.498   3.537  15.342  0.6822  1.0777 -0.4833
15858TIP3   OH268988   0.811   3.412  14.699 -0.0084  0.6177 -0.0901
15858TIP3    H168989   0.879   3.470  14.664  0.5357  0.5134  0.7590
15858TIP3    H268990   0.776   3.459  14.775  1.5970 -0.8508  1.6133
15859TIP3   OH268991   3.561   5.310  14.390 -0.3179  0.2839 -0.7664
15859TIP3    H168992   3.505   5.387  14.380 -0.6752  0.2785  0.9858
15859TIP3    H268993   3.561   5.293  14.484 -2.1396 -3.2301 -1.3295
15860TIP3   OH268994   0.777   1.731   1.070 -0.8413 -0.2634 -0.6913
15860TIP3    H168995   0.731   1.801   1.116 -0.6775 -1.4253  1.2789
15860TIP3    H268996   0.708   1.671   1.042 -0.8795  0.0965 -1.3783
15861TIP3   OH268997   5.591   2.938  14.536  0.2173  0.1557 -0.0251
15861TIP3    H168998   5.566   3.026  14.506 -3.1145 -0.5453  0.5342
15861TIP3    H268999   5.539   2.924  14.615  0.6241 -2.3898 -0.1778
15862TIP3   OH269000   2.284   6.625   3.181  0.0499 -0.6739 -0.3707
15862TIP3    H169001   2.282   6.536   3.216 -1.2256 -0.6635 -0.3822
15862TIP3    H269002   2.197   6.637   3.142  0.3992  0.3858 -0.8438
15863TIP3   OH269003   6.026   2.388   2.121 -0.1211 -0.5973 -0.2693
15863TIP3    H169004   5.986   2.311   2.161 -3.2014  1.6630  1.2024
15863TIP3    H269005   6.119   2.381   2.143 -1.1882 -1.1596  4.4876
15864TIP3   OH269006   3.532   6.334   1.820  0.3844  0.5797  0.1737
15864TIP3    H169007   3.533   6.244   1.853  1.0399  0.0628 -1.2537
15864TIP3    H269008   3.495   6.385   1.893 -1.6102 -1.0730  0.3665
15865TIP3   OH269009   6.755   0.721  16.270 -0.7890  0.5821 -0.0433
15865TIP3    H169010   6.774   0.630  16.293 -0.2279  0.9988  1.1511
15865TIP3    H269011   6.832   0.750  16.221 -0.1682  0.9610  1.1363
15866TIP3   OH269012   2.659   5.934   0.650 -0.5053 -0.6195  0.4547
15866TIP3    H169013   2.616   5.857   0.690 -1.0924 -0.0933  0.8538
15866TIP3    H269014   2.684   5.988   0.725 -2.1626  0.6743  0.1116
15867TIP3   OH269015   4.410   3.203   4.676  0.0551 -0.4589  0.0483
15867TIP3    H169016   4.501   3.226   4.655  0.3112 -1.3004  0.2219
15867TIP3    H269017   4.371   3.286   4.704  0.2054  0.3025 -1.9490
15868TIP3   OH269018   2.912   2.342   3.424 -0.0287 -0.0416 -0.3717
15868TIP3    H169019   2.842   2.320   3.485  1.1225 -1.7716  0.3394
15868TIP3    H269020   2.929   2.435   3.440  1.2276 -0.7682  3.0146
15869TIP3   OH269021   5.567   1.095  16.655  0.5009  0.4209  0.7719
15869TIP3    H169022   5.589   1.166  16.715  1.4081  1.2814 -0.5765
15869TIP3    H269023   5.572   1.134  16.568  2.4017 -1.6375 -0.0930
15870TIP3   OH269024   3.362   5.135   2.523 -0.4229 -0.1643  0.3986
15870TIP3    H169025   3.432   5.076   2.496  1.2904  0.3777  3.4798
15870TIP3    H269026   3.304   5.081   2.577  0.5435  0.6339  2.2884
15871TIP3   OH269027   0.731   0.418  13.806 -0.3660 -0.0824 -0.3988
15871TIP3    H169028   0.746   0.507  13.775 -0.0733 -0.5226 -1.5679
15871TIP3    H269029   0.682   0.376  13.735 -0.3712 -0.8972  0.0762
15872TIP3   OH269030   4.843   0.432   3.828 -0.2211  0.0100  0.0241
15872TIP3    H169031   4.869   0.401   3.915 -1.3647 -1.3593 -0.0873
15872TIP3    H269032   4.766   0.487   3.844 -1.3723 -1.4749 -0.2169
15873TIP3   OH269033   2.649   3.045  12.937  0.6420  0.5308 -0.3128
15873TIP3    H169034   2.625   2.967  12.886 -1.5488  1.8084 -1.2816
15873TIP3    H269035   2.656   3.013  13.027 -2.8069 -0.3216 -0.2874
15874TIP3   OH269036   1.996   3.378   4.391  0.7041 -0.2217  0.1506
15874TIP3    H169037   2.089   3.396   4.377  0.8273 -1.0005 -0.0542
15874TIP3    H269038   1.971   3.324   4.317  0.5088 -1.4408  1.0842
15875TIP3   OH269039   2.846   2.234  15.272 -0.0219  0.3331  0.4456
15875TIP3    H169040   2.822   2.324  15.296 -0.8733  0.6453 -1.4996
15875TIP3    H269041   2.940   2.239  15.253  0.4194  0.3196  2.4864
15876TIP3   OH269042   5.801   1.290   5.105 -0.1292 -0.3429 -0.3826
15876TIP3    H169043   5.804   1.241   5.023  0.0508 -0.0323 -0.5625
15876TIP3    H269044   5.889   1.283   5.141  0.0740  0.3597 -0.7169
15877TIP3   OH269045   5.640   1.505   6.202  0.2399  0.2861 -0.2117
15877TIP3    H169046   5.698   1.479   6.274  2.3141 -0.1870 -2.0083
15877TIP3    H269047   5.698   1.542   6.136 -1.7454  1.6327 -1.2653
15878TIP3   OH269048   4.452   3.069   0.930 -0.5031 -0.5291 -0.4118
15878TIP3    H169049   4.366   3.065   0.888 -0.6253 -1.2894 -0.0832
15878TIP3    H269050   4.498   2.992   0.898 -0.1312 -0.4059 -0.1711
15879TIP3   OH269051   5.455   4.659  11.227 -0.5455  0.3628 -0.1497
15879TIP3    H169052   5.547   4.631  11.237 -0.0870  1.9787  0.2961
15879TIP3    H269053   5.454   4.748  11.262 -2.1246  0.6587 -0.9556
15880TIP3   OH269054   2.490   1.785  16.095 -0.3320  0.2610  0.1139
15880TIP3    H169055   2.473   1.696  16.064 -2.1987  1.2359 -1.9063
15880TIP3    H269056   2.402   1.822  16.108  0.4188  1.7392  1.0757
15881TIP3   OH269057   5.975   3.718  12.372 -0.1024 -0.0351  0.3904
15881TIP3    H169058   6.065   3.694  12.393  0.4135  1.3966 -0.1282
15881TIP3    H269059   5.962   3.803  12.414 -1.2122 -0.2408  0.4703
15882TIP3   OH269060   1.522   5.645  10.039  0.2742 -0.0357 -0.1092
15882TIP3    H169061   1.595   5.595  10.077  0.8891  1.7158  1.0787
15882TIP3    H269062   1.503   5.600   9.957  2.0693 -1.0999  0.0186
15883TIP3   OH269063   6.538   1.882  15.531 -0.5558  0.1135 -0.3080
15883TIP3    H169064   6.558   1.976  15.535  0.3403 -0.1030  0.6382
15883TIP3    H269065   6.584   1.851  15.453 -3.3742  1.0177 -2.4141
15884TIP3   OH269066   0.443   3.756   1.508 -0.1279 -0.3085  0.8721
15884TIP3    H169067   0.364   3.789   1.466  1.0752  1.5534 -0.0099
15884TIP3    H269068   0.416   3.738   1.599 -1.4835  0.5982  0.6684
15885TIP3   OH269069   1.113   1.440   2.812 -0.2560 -0.0101  0.4699
15885TIP3    H169070   1.098   1.531   2.836  0.1094  0.0972  0.3010
15885TIP3    H269071   1.027   1.407   2.786 -0.8442 -0.4192  2.8380
15886TIP3   OH269072   5.264   3.562  10.434  0.4824  0.2286  0.0427
15886TIP3    H169073   5.228   3.624  10.370 -2.6485  0.0744  1.5485
15886TIP3    H269074   5.254   3.476  10.393  1.8914  0.4227 -0.7384
15887TIP3   OH269075   0.182   1.269   4.621 -0.9859  0.7957  0.3645
15887TIP3    H169076   0.144   1.181   4.626  1.9973 -0.6007 -0.1407
15887TIP3    H269077   0.161   1.299   4.533  0.9164 -0.9164 -0.7439
15888TIP3   OH269078   0.748   3.027   2.193 -0.5047  0.4827  0.0933
15888TIP3    H169079   0.804   3.100   2.219  0.7499 -0.2034 -0.6370
15888TIP3    H269080   0.661   3.065   2.185  0.3300  2.1635 -1.4416
15889TIP3   OH269081   5.305   6.590   2.422  0.0943  1.0768 -0.4464
15889TIP3    H169082   5.284   6.678   2.390  1.5829  1.4967 -0.2931
15889TIP3    H269083   5.337   6.544   2.345  0.2624  0.9798 -0.3192
15890TIP3   OH269084   4.434   0.090   0.289 -0.2129  0.1420 -0.2500
15890TIP3    H169085   4.366   0.042   0.242 -0.0907 -0.9826  0.7031
15890TIP3    H269086   4.467   0.028   0.354  0.1739  1.4050  0.7874
15891TIP3   OH269087   4.441   1.990  15.606 -0.7093  0.0595  0.2774
15891TIP3    H169088   4.369   1.956  15.553  0.5903 -0.0967 -1.4059
15891TIP3    H269089   4.462   1.919  15.666 -2.9153  0.6311  1.8248
15892TIP3   OH269090   0.247   0.456   0.286 -0.1756  0.2345 -0.6038
15892TIP3    H169091   0.191   0.415   0.220 -0.8599  0.5734 -0.2433
15892TIP3    H269092   0.304   0.386   0.316  0.2015  0.0962 -1.6164
15893TIP3   OH269093   3.875   4.755   5.862  0.2674  0.2700 -0.2418
15893TIP3    H169094   3.842   4.800   5.940 -0.8841 -1.3360  0.2381
15893TIP3    H269095   3.813   4.778   5.793 -0.3573 -0.6131  0.0185
15894TIP3   OH269096   3.328   4.620  13.308 -0.0356 -0.2703 -0.2623
15894TIP3    H169097   3.298   4.622  13.399 -2.3717  0.8497 -1.0221
15894TIP3    H269098   3.393   4.690  13.302 -0.5623  0.2664  0.3234
15895TIP3   OH269099   0.344   6.172  11.246 -0.0605 -0.1950  0.1209
15895TIP3    H169100   0.382   6.192  11.160  0.2232  0.5643  0.4209
15895TIP3    H269101   0.255   6.143  11.227 -0.3274  0.9199 -0.3609
15896TIP3   OH269102   4.768   5.313   2.871 -0.4396  0.7376 -0.1972
15896TIP3    H169103   4.736   5.325   2.782 -2.9660 -0.7547  0.4820
15896TIP3    H269104   4.690   5.308   2.925  0.8950 -2.7696  1.5526
15897TIP3   OH269105   3.057   3.040   1.118  0.3933  0.2142 -0.1015
15897TIP3    H169106   3.088   2.951   1.136  0.8663  0.6599  1.3594
15897TIP3    H269107   3.045   3.042   1.023  2.1386 -0.8383 -0.3653
15898TIP3   OH269108   3.935   6.553   0.766  0.8605  0.4945  0.2147
15898TIP3    H169109   4.002   6.552   0.835  1.6252 -0.2030 -0.5325
15898TIP3    H269110   3.898   6.465   0.768 -0.2897  0.9743  0.8500
15899TIP3   OH269111   4.581   0.316   0.376  0.0433  0.5668  0.1913
15899TIP3    H169112   4.557   0.225   0.357 -0.7745  0.5986  1.0014
15899TIP3    H269113   4.579   0.321   0.472 -1.1421  1.7676  0.1128
15900TIP3   OH269114   4.638   4.436  12.076 -0.2467  0.1964  0.0548
15900TIP3    H169115   4.723   4.476  12.058  0.1443 -0.1179  1.1503
15900TIP3    H269116   4.644   4.348  12.039  0.5098 -0.4074  1.5801
15901TIP3   OH269117   2.096   1.449  14.801 -0.9320  0.1793 -0.5390
15901TIP3    H169118   2.074   1.524  14.857 -1.5302 -0.1665 -0.2988
15901TIP3    H269119   2.097   1.374  14.860 -1.4925 -0.1773 -0.9679
15902TIP3   OH269120   0.368   4.053   4.431 -0.1507 -0.6413  0.8051
15902TIP3    H169121   0.347   4.140   4.397  2.3985  0.0161  0.8297
15902TIP3    H269122   0.394   4.003   4.354 -2.1359 -1.5596  0.7185
15903TIP3   OH269123   6.380   0.207   4.575 -0.6945  1.2393  0.5224
15903TIP3    H169124   6.326   0.217   4.497 -0.5675 -0.3481  0.2080
15903TIP3    H269125   6.317   0.195   4.646 -0.7884  1.5850  0.4991
15904TIP3   OH269126   1.843   0.793  15.846 -0.1515 -0.1670 -0.3888
15904TIP3    H169127   1.825   0.802  15.753 -0.3422  2.2962 -0.1377
15904TIP3    H269128   1.924   0.743  15.850 -0.7364 -1.2645 -1.8290
15905TIP3   OH269129   2.803   0.068   2.829 -0.1237 -0.5454 -0.0716
15905TIP3    H169130   2.886   0.115   2.818 -0.3054 -0.0840  0.4409
15905TIP3    H269131   2.752   0.089   2.751  0.4690 -1.3049 -0.6574
15906TIP3   OH269132   6.083   2.900   1.469 -0.0166 -0.3901 -0.1611
15906TIP3    H169133   6.087   2.847   1.549 -1.3062  0.6851  0.6270
15906TIP3    H269134   6.120   2.985   1.495 -0.7153  0.0545 -0.6336
15907TIP3   OH269135   4.824   0.223  15.163  0.2180 -0.8306  0.1127
15907TIP3    H169136   4.907   0.210  15.117 -0.4261 -1.2524 -0.9688
15907TIP3    H269137   4.757   0.211  15.095 -0.7600 -1.4856  1.1639
15908TIP3   OH269138   3.363   2.979  10.932 -0.1096 -0.4047  0.0148
15908TIP3    H169139   3.323   3.009  10.851  1.4421  0.3601 -0.4990
15908TIP3    H269140   3.457   2.987  10.916  0.2075 -0.2161  1.9116
15909TIP3   OH269141   1.300   2.803  16.810  0.0035 -0.1937  0.0356
15909TIP3    H169142   1.270   2.876  16.757 -2.7451 -1.8598 -0.8161
15909TIP3    H269143   1.268   2.822  16.898 -3.2403 -1.7062 -0.7627
15910TIP3   OH269144   6.263   6.751   3.927 -0.3839  0.2363  0.3448
15910TIP3    H169145   6.313   6.670   3.915 -1.9239 -0.6068 -0.4789
15910TIP3    H269146   6.248   6.784   3.839 -0.7525  0.8171  0.6222
15911TIP3   OH269147   5.177   4.618  14.368  0.4501 -0.4295  0.2201
15911TIP3    H169148   5.160   4.709  14.347  0.0199 -1.0645 -2.3897
15911TIP3    H269149   5.218   4.582  14.289  2.1463 -2.0929  1.7983
15912TIP3   OH269150   0.194   2.332  16.447 -0.1650 -0.3056 -0.0536
15912TIP3    H169151   0.152   2.343  16.532  0.1090  0.3487 -0.0054
15912TIP3    H269152   0.127   2.357  16.383  0.0148  0.3572  0.0135
15913TIP3   OH269153   1.068   0.037  16.189 -0.7199 -0.4682  0.6159
15913TIP3    H169154   1.139  -0.016  16.153  0.5415  0.6064  1.4659
15913TIP3    H269155   0.995   0.024  16.129  0.3243 -1.2668 -0.4962
15914TIP3   OH269156   3.536   6.650  11.090 -0.1626  0.3218 -0.1682
15914TIP3    H169157   3.582   6.664  11.007 -1.2082 -0.8707 -0.9752
15914TIP3    H269158   3.492   6.733  11.107  1.3662  1.1109  0.0468
15915TIP3   OH269159   3.414   6.465  13.982  0.1304 -0.0533 -0.2055
15915TIP3    H169160   3.450   6.520  14.051 -0.1007 -0.2218  0.0492
15915TIP3    H269161   3.412   6.522  13.905 -1.9415  0.8864  0.5195
15916TIP3   OH269162   3.190   5.313   1.354 -0.1292 -0.0866 -0.1703
15916TIP3    H169163   3.103   5.347   1.335  0.0366  0.7140  0.4459
15916TIP3    H269164   3.180   5.265   1.436 -0.1568 -0.6883 -0.5234
15917TIP3   OH269165   3.496   1.891  16.976 -0.7046  0.1876  0.7688
15917TIP3    H169166   3.569   1.830  16.990 -0.5825 -0.3622 -1.9033
15917TIP3    H269167   3.537   1.978  16.981  0.7767 -0.1551 -3.4050
15918TIP3   OH269168   4.667   3.713  17.173  0.0004  0.8340 -0.5953
15918TIP3    H169169   4.609   3.690  17.246  0.1024  1.1902 -0.4013
15918TIP3    H269170   4.755   3.707  17.210  0.0584  0.8568 -0.7325
15919TIP3   OH269171   2.261   5.064   3.233 -0.1671  0.9252  0.0013
15919TIP3    H169172   2.295   4.983   3.195 -1.3151  1.1395 -1.5339
15919TIP3    H269173   2.293   5.063   3.323  0.2270 -1.0012 -0.1332
15920TIP3   OH269174   1.759   5.064   3.903 -0.0283  0.2144  0.5430
15920TIP3    H169175   1.801   4.980   3.917 -2.9868 -1.3252  0.6831
15920TIP3    H269176   1.746   5.070   3.808  1.3358  1.1404  0.3960
15921TIP3   OH269177   4.566   6.453   1.174 -0.6027  0.3140 -0.3417
15921TIP3    H169178   4.504   6.381   1.168 -1.2371  0.7497  0.8341
15921TIP3    H269179   4.648   6.417   1.139 -0.7796 -1.1336  0.6584
15922TIP3   OH269180   0.368   3.753  11.303 -0.0217 -0.2326 -0.0658
15922TIP3    H169181   0.460   3.736  11.325  0.1122 -1.1726 -1.3073
15922TIP3    H269182   0.365   3.751  11.208 -1.4523 -0.8793 -0.0156
15923TIP3   OH269183   4.684   6.337  14.666 -0.3670 -0.4685 -0.0715
15923TIP3    H169184   4.740   6.273  14.712  1.3123  0.8906 -0.1631
15923TIP3    H269185   4.607   6.345  14.721  0.6339 -0.5376  1.3714
15924TIP3   OH269186   4.037   0.639  12.584 -0.5331 -0.6364 -0.2199
15924TIP3    H169187   3.966   0.576  12.571 -0.3773 -0.6539 -1.0313
15924TIP3    H269188   3.993   0.724  12.583 -0.3870 -0.5719 -2.0449
15925TIP3   OH269189   2.367   2.281  13.973  0.0269  0.6379 -0.4200
15925TIP3    H169190   2.276   2.292  13.944 -0.3050  0.6010  0.5995
15925TIP3    H269191   2.419   2.315  13.901 -0.7907  0.4260 -1.1244
15926TIP3   OH269192   2.728   2.747  12.155 -0.4061 -0.1769 -0.2520
15926TIP3    H169193   2.766   2.697  12.083  0.4912 -1.1440  0.8643
15926TIP3    H269194   2.803   2.785  12.201 -1.0412  1.5287 -0.6010
15927TIP3   OH269195   0.261   4.349  15.260  0.2660 -0.5126  0.4104
15927TIP3    H169196   0.342   4.383  15.299  0.6394  1.0183 -1.6213
15927TIP3    H269197   0.197   4.353  15.331  0.9948  1.9732  0.9810
15928TIP3   OH269198   2.542   3.440  16.099 -0.0389  0.0022 -0.0816
15928TIP3    H169199   2.627   3.437  16.143  0.6081  3.1318 -1.0020
15928TIP3    H269200   2.563   3.451  16.006 -1.4650 -0.9552 -0.5445
15929TIP3   OH269201   0.952   6.673   3.521  0.7750  0.6395 -0.1652
15929TIP3    H169202   0.997   6.685   3.605  1.0887 -0.8279 -0.1212
15929TIP3    H269203   0.869   6.633   3.545  0.6585  0.6778 -0.5141
15930TIP3   OH269204   2.460   2.354  16.075 -0.7950 -0.0268 -0.0517
15930TIP3    H169205   2.527   2.387  16.135 -1.4578 -0.4030  0.9075
15930TIP3    H269206   2.378   2.388  16.111 -1.1545  0.1066 -1.0001
15931TIP3   OH269207   1.123   4.524   5.470  0.5393  0.4925 -0.5357
15931TIP3    H169208   1.213   4.557   5.477  1.0390 -1.2242  1.7801
15931TIP3    H269209   1.091   4.524   5.560 -0.7126 -1.8045 -0.9462
15932TIP3   OH269210   6.766   3.369   0.119  0.1192  0.3929 -0.2760
15932TIP3    H169211   6.739   3.298   0.177  1.6990 -0.3891 -0.4584
15932TIP3    H269212   6.806   3.325   0.044  1.1750  1.4593 -0.3546
15933TIP3   OH269213   2.842   5.519   1.021 -0.0312 -0.0048  0.2641
15933TIP3    H169214   2.870   5.609   1.036  0.6166 -0.4616  1.8785
15933TIP3    H269215   2.819   5.516   0.928  0.1846  1.7500  0.1395
15934TIP3   OH269216   4.299   2.641   0.165 -0.0661  0.3453 -0.0177
15934TIP3    H169217   4.232   2.574   0.150  1.6064 -0.7436 -2.9962
15934TIP3    H269218   4.345   2.612   0.244 -0.9150 -0.6878  0.1029
15935TIP3   OH269219   6.663   2.408   1.413 -0.3951  0.1663  0.1565
15935TIP3    H169220   6.658   2.476   1.480 -1.4531 -0.4927  0.7609
15935TIP3    H269221   6.675   2.456   1.331 -1.2325  1.0888  0.5636
15936TIP3   OH269222   4.038   5.703  12.305  0.4776  0.1122  0.5141
15936TIP3    H169223   4.028   5.798  12.312  1.7573  0.1898  1.3306
15936TIP3    H269224   4.009   5.669  12.390  0.3493 -0.2084  0.3451
15937TIP3   OH269225   0.731   2.321   1.509 -0.1363 -0.7913 -0.0392
15937TIP3    H169226   0.781   2.402   1.493 -0.0799 -0.4227  1.8369
15937TIP3    H269227   0.796   2.251   1.502 -0.0111 -0.5968 -0.8349
15938TIP3   OH269228   6.571   5.658  14.110 -0.7633 -0.2484 -0.0694
15938TIP3    H169229   6.641   5.608  14.152 -2.0483 -1.5455  0.5903
15938TIP3    H269230   6.578   5.746  14.147 -0.8928 -0.9682  1.7126
15939TIP3   OH269231   4.509   4.984  11.415 -0.2505 -0.0767 -0.0201
15939TIP3    H169232   4.535   5.035  11.339 -1.9298 -0.6320 -1.0003
15939TIP3    H269233   4.562   4.904  11.409  0.1806  0.2202 -0.1759
15940TIP3   OH269234   6.770   1.228  15.059  1.0635  0.2400 -0.7727
15940TIP3    H169235   6.741   1.263  14.975  1.1394  0.6122 -0.6430
15940TIP3    H269236   6.691   1.189  15.097  0.5451  1.8761 -0.1057
15941TIP3   OH269237   4.212   3.922  12.936 -0.3539 -0.3330 -0.2602
15941TIP3    H169238   4.241   3.993  12.879 -0.5932 -0.6762 -0.8195
15941TIP3    H269239   4.292   3.890  12.978 -0.1956  0.0167 -0.2983
15942TIP3   OH269240   0.964   0.258  13.423 -0.2309  0.3098 -0.2472
15942TIP3    H169241   0.963   0.177  13.372  1.0821  0.2454 -0.1973
15942TIP3    H269242   0.932   0.325  13.363 -2.0525 -0.3719 -0.0531
15943TIP3   OH269243   3.335   0.232   5.483 -0.6448 -0.1427 -0.0046
15943TIP3    H169244   3.312   0.184   5.403  0.3097 -1.7252  0.6272
15943TIP3    H269245   3.262   0.215   5.543 -1.1475  0.6680 -0.3913
15944TIP3   OH269246   1.984   5.931  12.683  0.5992  0.0842  0.3728
15944TIP3    H169247   1.982   5.990  12.608 -0.7630 -0.5438 -0.1038
15944TIP3    H269248   1.893   5.901  12.692  0.7781  0.0379  2.1759
15945TIP3   OH269249   5.554   4.322  12.065  0.0266  0.1293  0.2015
15945TIP3    H169250   5.472   4.298  12.022 -0.2482  1.8893 -0.3206
15945TIP3    H269251   5.589   4.240  12.099 -1.0565 -0.9000 -1.1340
15946TIP3   OH269252   2.661   4.863  12.955 -0.5478  0.4360 -0.0078
15946TIP3    H169253   2.589   4.920  12.931 -2.0316 -1.3880 -0.0399
15946TIP3    H269254   2.658   4.860  13.051 -0.9049 -0.1012 -0.0312
15947TIP3   OH269255   0.980   4.800  17.129  0.0538 -0.3022  0.1203
15947TIP3    H169256   0.990   4.892  17.155 -1.1996  0.0858 -0.6883
15947TIP3    H269257   1.070   4.769  17.118  0.5060  0.7400  0.6799
15948TIP3   OH269258   2.198   3.147  15.403 -0.7604  0.2779  0.1953
15948TIP3    H169259   2.220   3.054  15.399 -0.2501  0.3916  0.3248
15948TIP3    H269260   2.160   3.166  15.317  2.1717  0.7047 -1.0829
15949TIP3   OH269261   5.666   6.253  13.850  0.0644  0.3642 -0.1947
15949TIP3    H169262   5.671   6.160  13.829  0.1597  0.2952  0.1282
15949TIP3    H269263   5.583   6.282  13.812  0.1862  0.2196 -0.5732
15950TIP3   OH269264   0.048   2.346   4.510  0.0399 -0.5825  0.3505
15950TIP3    H169265   0.057   2.268   4.455  1.9485  0.3000 -0.6375
15950TIP3    H269266   0.000   2.408   4.455 -0.0281 -0.4810  0.5240
15951TIP3   OH269267   3.047   5.344  14.009 -0.3638  0.0363 -0.1392
15951TIP3    H169268   3.108   5.396  14.061 -1.6065 -0.5318  1.9393
15951TIP3    H269269   3.102   5.300  13.945  1.2877  0.3615  1.0289
15952TIP3   OH269270   3.449   5.840  16.388  0.4307  0.1725 -0.0455
15952TIP3    H169271   3.485   5.777  16.326 -1.6165  0.5694 -1.6600
15952TIP3    H269272   3.414   5.786  16.459  1.4210 -0.3494  0.0549
15953TIP3   OH269273   5.231   2.284   3.262 -0.5330 -0.3403  0.1432
15953TIP3    H169274   5.316   2.264   3.303  0.2657 -0.1760 -1.3870
15953TIP3    H269275   5.250   2.287   3.168 -1.9827  0.9827 -0.1274
15954TIP3   OH269276   3.521   4.934   4.391 -0.2474  0.3636  0.6262
15954TIP3    H169277   3.457   4.864   4.403 -0.8811  0.7043 -0.6368
15954TIP3    H269278   3.602   4.899   4.429 -0.1925 -1.6371 -1.2193
15955TIP3   OH269279   2.462   2.522   0.039 -0.4806  0.1951 -0.1327
15955TIP3    H169280   2.501   2.524  -0.049 -0.5161  1.9516 -0.1197
15955TIP3    H269281   2.533   2.495   0.097 -0.2502 -0.1867 -0.5912
15956TIP3   OH269282   2.819   2.026   5.131 -0.2439 -0.3231  0.3247
15956TIP3    H169283   2.859   1.942   5.107 -0.7334 -1.0419  1.9406
15956TIP3    H269284   2.806   2.071   5.047 -0.5354 -2.1063 -0.6226
15957TIP3   OH269285   4.374   3.778  16.799 -0.4519 -0.9407 -0.0353
15957TIP3    H169286   4.383   3.703  16.740  3.2707  0.0767 -0.9037
15957TIP3    H269287   4.436   3.843  16.766 -2.4344  1.9433  1.6380
15958TIP3   OH269288   5.642   0.981   4.240 -0.1818  0.0031  0.1862
15958TIP3    H169289   5.583   0.938   4.302  1.6052 -0.3505  1.6867
15958TIP3    H269290   5.702   0.913   4.212 -0.9305  0.1860 -1.9104
15959TIP3   OH269291   2.994   0.131  16.673  0.4320  0.5326  0.1565
15959TIP3    H169292   3.013   0.075  16.597 -1.8134  0.3312 -0.2770
15959TIP3    H269293   3.038   0.213  16.653  1.0678  0.0003 -0.6973
15960TIP3   OH269294   1.416   2.977  13.955 -0.2908 -0.3877 -0.3175
15960TIP3    H169295   1.446   2.953  13.867  3.0898 -0.4748  0.7896
15960TIP3    H269296   1.423   3.072  13.957  1.5544 -0.5253  0.4820
15961TIP3   OH269297   0.285   6.446  16.469  0.2132 -0.8740  0.2719
15961TIP3    H169298   0.257   6.370  16.417  0.4799 -0.2263 -0.8374
15961TIP3    H269299   0.361   6.480  16.422 -0.3710  0.5414  0.3312
15962TIP3   OH269300   3.379   3.635   6.090 -0.6954  0.1057  0.3023
15962TIP3    H169301   3.465   3.632   6.048 -1.5515  1.3524 -1.6550
15962TIP3    H269302   3.317   3.617   6.018 -2.1040  0.1770  1.4812
15963TIP3   OH269303   6.573   6.355  17.193  0.1801  0.1966 -0.4692
15963TIP3    H169304   6.648   6.299  17.212  1.3906  2.0594  0.5051
15963TIP3    H269305   6.543   6.327  17.107  0.0056 -2.6890  0.4868
15964TIP3   OH269306   3.411   4.843  14.119  0.3043 -0.5984 -0.0488
15964TIP3    H169307   3.481   4.885  14.169  0.5090 -0.1137 -0.7368
15964TIP3    H269308   3.340   4.832  14.182 -0.0696  1.5520 -0.0472
15965TIP3   OH269309   0.803   4.303   6.974 -0.6866  0.6377 -0.0369
15965TIP3    H169310   0.837   4.386   7.006  0.5145  0.0025  0.3616
15965TIP3    H269311   0.732   4.328   6.915  0.9762  2.0376 -1.5170
15966TIP3   OH269312   4.352   5.365  17.007 -0.3370 -0.2196  0.2849
15966TIP3    H169313   4.298   5.444  17.013  0.9005  0.7376 -1.0171
15966TIP3    H269314   4.317   5.318  16.931  0.7054  0.4485 -0.6186
15967TIP3   OH269315   2.248   5.245   5.466  0.3107  0.2070  0.0984
15967TIP3    H169316   2.173   5.220   5.519  0.5548  0.2106  0.4536
15967TIP3    H269317   2.250   5.341   5.472  2.1660  0.0675  2.6781
15968TIP3   OH269318   0.207   6.100   4.303 -0.8033  0.2340 -0.5226
15968TIP3    H169319   0.116   6.076   4.319 -0.6304 -0.1956 -0.1597
15968TIP3    H269320   0.256   6.052   4.370 -0.3443  0.7499 -0.4863
15969TIP3   OH269321   6.077   1.853  14.341  0.4090 -0.0684  0.4396
15969TIP3    H169322   6.102   1.818  14.256  0.6314 -1.8191  1.2062
15969TIP3    H269323   5.996   1.901  14.324  0.4254 -0.4467 -0.7575
15970TIP3   OH269324   0.518   6.720  15.850 -0.1367  0.3619  0.9066
15970TIP3    H169325   0.483   6.672  15.924 -1.5384  0.0508  0.0672
15970TIP3    H269326   0.571   6.656  15.802 -2.2788 -0.4990 -0.4002
15971TIP3   OH269327   3.069   3.795   1.698  0.5828  0.1958 -0.0077
15971TIP3    H169328   3.009   3.868   1.679 -0.1131 -0.5465 -0.7228
15971TIP3    H269329   3.099   3.812   1.787 -1.3444  0.1498  0.6874
15972TIP3   OH269330   3.744   3.649  12.173  0.0473  0.0965  0.0190
15972TIP3    H169331   3.704   3.576  12.220  0.9150 -0.5988 -0.3057
15972TIP3    H269332   3.727   3.725  12.229  1.0401 -0.7112  1.4597
15973TIP3   OH269333   2.531   5.570  11.992  0.1091  0.6697  0.0300
15973TIP3    H169334   2.464   5.552  11.926 -1.5661  1.5129  1.4701
15973TIP3    H269335   2.577   5.647  11.959 -2.1026  2.3920  0.8212
15974TIP3   OH269336   6.146   3.097  17.078  0.4517  0.0984 -0.5049
15974TIP3    H169337   6.149   3.020  17.021 -0.7666 -0.6226  0.3873
15974TIP3    H269338   6.056   3.101  17.108  0.4717  1.9827 -0.6631
15975TIP3   OH269339   4.275   2.696   4.732  0.0175 -0.2445 -0.5504
15975TIP3    H169340   4.299   2.788   4.744  2.8610 -1.1451  1.0563
15975TIP3    H269341   4.204   2.682   4.795  1.5325  0.1510  1.2961
15976TIP3   OH269342   5.635   2.358  12.744 -0.1166  0.2532 -0.2576
15976TIP3    H169343   5.593   2.277  12.716  0.1111 -0.3129  1.0127
15976TIP3    H269344   5.573   2.398  12.804 -0.0804  0.8534 -0.6206
15977TIP3   OH269345   3.203   1.694   4.783 -0.2700 -0.0672  0.5200
15977TIP3    H169346   3.204   1.600   4.764  1.2407  0.2001 -0.8253
15977TIP3    H269347   3.205   1.736   4.697 -1.1540  1.2048  1.1102
15978TIP3   OH269348   4.591   1.065  15.962  0.4099 -0.2394  1.2440
15978TIP3    H169349   4.551   1.036  15.880 -0.7453 -1.2118  2.1469
15978TIP3    H269350   4.564   1.000  16.027  0.5431  1.0351  2.6030
15979TIP3   OH269351   6.119   1.661  11.964  0.0918 -0.0285  0.5644
15979TIP3    H169352   6.131   1.581  11.914  0.0499  0.5174 -0.3305
15979TIP3    H269353   6.041   1.702  11.926  0.5598  0.8202  0.5014
15980TIP3   OH269354   3.507   2.347  15.143  0.1662 -0.5466 -0.3115
15980TIP3    H169355   3.546   2.278  15.197  1.4661 -0.5454 -1.2450
15980TIP3    H269356   3.426   2.309  15.111  0.1543 -1.1084  0.3775
15981TIP3   OH269357   2.710   2.346  13.161  0.3165 -0.1588 -0.0839
15981TIP3    H169358   2.801   2.316  13.165  1.0728  2.1019  0.7568
15981TIP3    H269359   2.659   2.271  13.191  1.8091 -1.7903 -1.4893
15982TIP3   OH269360   5.456   3.013  13.282 -0.0798 -0.0613  0.6579
15982TIP3    H169361   5.465   3.057  13.197 -0.0721  0.0601  0.7214
15982TIP3    H269362   5.364   3.026  13.306 -0.0724 -0.0625  0.6857
15983TIP3   OH269363   4.595   1.647   4.519 -0.0963  0.2420  0.4054
15983TIP3    H169364   4.520   1.692   4.480  0.4116  0.3726 -0.4356
15983TIP3    H269365   4.575   1.554   4.509  1.0457  0.2297 -2.2418
15984TIP3   OH269366   2.013   4.235  14.192  0.3606 -0.0070 -0.6091
15984TIP3    H169367   2.022   4.231  14.288  0.3227 -1.7952 -0.6609
15984TIP3    H269368   1.941   4.296  14.177  2.8215  3.2876  0.3556
15985TIP3   OH269369   4.628   0.828  15.041 -0.3421 -0.6051 -0.0734
15985TIP3    H169370   4.558   0.763  15.046 -2.4261  1.5739  0.2665
15985TIP3    H269371   4.599   0.890  14.974  1.2461  0.3625  0.0900
15986TIP3   OH269372   0.688   5.305  12.991 -0.3349  0.4142  0.0451
15986TIP3    H169373   0.607   5.254  12.986  1.1086 -1.8492 -0.9145
15986TIP3    H269374   0.694   5.349  12.906  0.8780 -1.7072 -0.9979
15987TIP3   OH269375   1.167   1.553  11.124  0.0751 -0.5731 -0.0924
15987TIP3    H169376   1.183   1.603  11.044  0.7045 -1.3424 -0.4636
15987TIP3    H269377   1.247   1.500  11.135  1.1634  1.4883  2.5308
15988TIP3   OH269378   6.777   2.950   2.066 -0.0851  0.1617 -0.0009
15988TIP3    H169379   6.861   2.970   2.026  1.2926 -0.3857  2.5011
15988TIP3    H269380   6.748   2.869   2.025  0.4292  0.5267 -1.1001
15989TIP3   OH269381   1.829   0.380  13.538  0.3147 -0.4168  0.3286
15989TIP3    H169382   1.753   0.428  13.571 -0.3528 -1.5477  0.4676
15989TIP3    H269383   1.850   0.318  13.608 -1.6955 -3.5039 -1.6648
15990TIP3   OH269384   5.866   2.959   3.147  0.0023 -0.6317 -0.0044
15990TIP3    H169385   5.961   2.965   3.139 -0.1018  0.2502 -0.6028
15990TIP3    H269386   5.849   2.865   3.155  0.9313 -0.7875  0.2318
15991TIP3   OH269387   3.083   3.790   4.660  0.3683  0.6071  0.0865
15991TIP3    H169388   3.094   3.853   4.589  0.2612  0.8531  0.2878
15991TIP3    H269389   3.038   3.716   4.619 -0.0459  0.9115 -0.0131
15992TIP3   OH269390   2.611   3.485   2.830  0.0275 -0.0425  0.0661
15992TIP3    H169391   2.671   3.410   2.825  0.0391 -0.1541  1.4173
15992TIP3    H269392   2.524   3.446   2.835 -0.0013  0.0375  0.2302
15993TIP3   OH269393   0.679   2.080  14.671 -0.4430 -0.1267 -0.5282
15993TIP3    H169394   0.758   2.092  14.619 -1.1182  0.1237 -1.5134
15993TIP3    H269395   0.635   2.004  14.631 -0.4693 -0.5453  0.2928
15994TIP3   OH269396   0.509   5.814  12.912 -0.2324 -0.2351 -0.1402
15994TIP3    H169397   0.414   5.821  12.912 -0.4419 -2.4099  1.2502
15994TIP3    H269398   0.526   5.730  12.871  1.0374 -0.2113  0.3184
15995TIP3   OH269399   4.883   2.649  13.869 -0.0155  0.1857 -0.0106
15995TIP3    H169400   4.969   2.616  13.893  0.0945 -0.0058 -0.6498
15995TIP3    H269401   4.901   2.719  13.805 -0.3119  0.4290  0.1689
15996TIP3   OH269402   1.765   3.169  13.163 -0.8286  0.0789 -0.3020
15996TIP3    H169403   1.713   3.100  13.121  1.0658 -1.4084 -0.2626
15996TIP3    H269404   1.716   3.192  13.242 -3.4922  1.5930 -2.3017
15997TIP3   OH269405   4.236   1.021  16.059 -0.6077  0.1772  0.1079
15997TIP3    H169406   4.257   0.930  16.035 -1.4459 -0.2117  0.8314
15997TIP3    H269407   4.231   1.020  16.154 -0.1145  1.1050  0.1487
15998TIP3   OH269408   1.958   3.432   6.283 -0.2950  0.2388 -0.4890
15998TIP3    H169409   1.876   3.481   6.283 -1.1706 -1.1817 -0.2878
15998TIP3    H269410   1.972   3.409   6.375  1.6659  2.5902 -0.1321
15999TIP3   OH269411   1.277   4.593  12.840 -0.3245 -0.2290  0.0561
15999TIP3    H169412   1.322   4.572  12.758 -0.0769 -0.2451  0.1969
15999TIP3    H269413   1.247   4.684  12.827  0.9435  0.2550  0.4935
16000TIP3   OH269414   0.657   1.530   4.143 -0.4534  0.5408  0.4962
16000TIP3    H169415   0.661   1.552   4.236  2.3611 -1.9039  1.0380
16000TIP3    H269416   0.588   1.463   4.138  0.7982 -0.8625  1.2453
16001TIP3   OH269417   1.041   6.232  13.911 -0.3244  0.6237 -0.3825
16001TIP3    H169418   1.005   6.305  13.961  0.8869 -0.2657  1.8697
16001TIP3    H269419   0.986   6.157  13.935  2.2719 -0.5370  2.3523
16002TIP3   OH269420   1.883   2.024  16.465  0.0626  0.1872  0.1304
16002TIP3    H169421   1.937   2.058  16.393  1.4454  1.7959  1.8954
16002TIP3    H269422   1.795   2.019  16.428  0.7050  1.2518 -1.5989
16003TIP3   OH269423   1.095   0.237  16.371  0.1617 -0.7363 -0.5427
16003TIP3    H169424   1.080   0.163  16.314 -0.3414 -1.9182  1.0796
16003TIP3    H269425   1.149   0.202  16.442  0.8342  0.7112 -0.3134
16004TIP3   OH269426   1.379   6.271   2.316 -0.6524 -0.2863  0.9599
16004TIP3    H169427   1.387   6.329   2.392 -2.0793  0.4365  0.5692
16004TIP3    H269428   1.334   6.194   2.350  1.0916 -1.1197  1.4399
16005TIP3   OH269429   2.812   3.538   3.786  0.3970 -0.1327 -0.3916
16005TIP3    H169430   2.785   3.617   3.833  1.4113 -0.7691  1.3397
16005TIP3    H269431   2.806   3.469   3.852  3.6881 -0.7172 -0.6320
16006TIP3   OH269432   2.216   6.042   4.935  0.3684  0.2685  0.1061
16006TIP3    H169433   2.203   6.134   4.911  0.4670  0.1085 -0.5826
16006TIP3    H269434   2.132   6.014   4.969  0.4159  0.6911  0.5894
16007TIP3   OH269435   0.671   2.548  12.195  0.1488 -0.1998  0.0624
16007TIP3    H169436   0.682   2.531  12.288  1.1493 -0.2028 -0.0394
16007TIP3    H269437   0.734   2.488  12.153  2.1953  2.1956 -0.4312
16008TIP3   OH269438   5.247   0.278   5.421  0.7742 -0.5246 -0.3466
16008TIP3    H169439   5.282   0.270   5.510  0.9702  1.0545 -0.2656
16008TIP3    H269440   5.159   0.313   5.432  1.5206  1.6325 -0.8253
16009TIP3   OH269441   2.514   2.705  16.142 -0.6115  0.3160  0.1807
16009TIP3    H169442   2.468   2.780  16.179  0.2463  0.7005  0.4803
16009TIP3    H269443   2.519   2.725  16.048  0.3140  1.0267  0.3691
16010TIP3   OH269444   3.080   2.273   0.749 -0.6122 -0.1559  0.3735
16010TIP3    H169445   3.061   2.218   0.674 -2.8580  1.5066 -0.3280
16010TIP3    H269446   3.016   2.247   0.816 -1.4451  1.2828  0.1706
16011TIP3   OH269447   0.614   1.374   3.202  0.3885  0.5245  0.2825
16011TIP3    H169448   0.631   1.341   3.114  0.6845  1.3915  0.0099
16011TIP3    H269449   0.571   1.301   3.247  1.4300 -0.3866 -0.1638
16012TIP3   OH269450   1.936   4.876   6.550  0.5146 -0.2597  0.0276
16012TIP3    H169451   1.934   4.787   6.515 -0.6780  0.0651 -0.7462
16012TIP3    H269452   2.027   4.888   6.579  0.3290 -2.2477  1.5361
16013TIP3   OH269453   5.246   1.131   4.466 -0.4846  0.5579  0.0926
16013TIP3    H169454   5.168   1.171   4.428 -0.7823 -0.2176 -0.1285
16013TIP3    H269455   5.269   1.187   4.540 -0.4561  1.5467 -0.6715
16014TIP3   OH269456   2.936   2.345  11.110 -0.6747  0.0054  0.0115
16014TIP3    H169457   2.908   2.433  11.087 -0.7779 -0.0826 -0.1971
16014TIP3    H269458   2.990   2.317  11.036  1.0214  0.6640  0.9887
16015TIP3   OH269459   5.763   5.582  15.858 -0.6653 -0.1376 -0.0101
16015TIP3    H169460   5.790   5.579  15.767  0.0316 -1.6141  0.2201
16015TIP3    H269461   5.668   5.571  15.856 -0.5654 -0.9380 -0.5275
16016TIP3   OH269462   1.235   1.723  12.233  0.7183  0.0661  0.4487
16016TIP3    H169463   1.214   1.767  12.315  0.8668 -0.2826  0.6738
16016TIP3    H269464   1.327   1.745  12.217  0.4865  0.7397 -0.0073
16017TIP3   OH269465   0.822   2.175  13.219  0.4092 -0.1218 -0.1131
16017TIP3    H169466   0.833   2.254  13.271  1.5237 -0.2005 -0.2070
16017TIP3    H269467   0.789   2.110  13.282 -1.5112  0.6661 -0.2612
16018TIP3   OH269468   1.832   6.405  16.966 -0.0203  0.2944 -1.0035
16018TIP3    H169469   1.860   6.421  16.876 -0.7890  0.8104 -1.1486
16018TIP3    H269470   1.905   6.356  17.005  0.3116  0.0720 -1.9005
16019TIP3   OH269471   1.972   6.448   0.774 -0.4778 -0.3264 -0.2867
16019TIP3    H169472   1.940   6.490   0.853 -0.8174  1.0856 -1.1486
16019TIP3    H269473   2.023   6.374   0.805 -1.4178 -0.3658  1.2191
16020TIP3   OH269474   0.731   6.060   2.509 -0.4559 -0.2340 -0.2390
16020TIP3    H169475   0.738   5.996   2.438 -2.1412 -0.6311 -0.0701
16020TIP3    H269476   0.641   6.050   2.541 -0.4410  1.5925  0.3929
16021TIP3   OH269477   6.445   2.058   4.500  0.2052 -0.6961 -0.1366
16021TIP3    H169478   6.432   1.963   4.506 -1.7789 -0.6235 -2.3967
16021TIP3    H269479   6.366   2.095   4.539  0.5852  0.0215 -0.0409
16022TIP3   OH269480   3.167   5.685   4.251 -0.1231  0.3484 -0.1580
16022TIP3    H169481   3.174   5.753   4.318  2.3337 -1.1526  1.1887
16022TIP3    H269482   3.136   5.608   4.298  1.7364 -0.7516 -0.6737
16023TIP3   OH269483   0.768   3.252  12.252  0.3213 -1.0249  0.3510
16023TIP3    H169484   0.842   3.198  12.224 -0.8162 -2.0785 -0.6655
16023TIP3    H269485   0.726   3.200  12.321  0.1732 -0.7016  0.5042
16024TIP3   OH269486   6.398   6.283   3.728  0.2329  0.2080  0.0268
16024TIP3    H169487   6.383   6.225   3.653  0.8640 -2.5932  1.9796
16024TIP3    H269488   6.331   6.257   3.792  1.5701  0.4672  1.5702
16025TIP3   OH269489   1.287   1.129  13.991  0.1239  0.3348 -0.5540
16025TIP3    H169490   1.356   1.091  14.046 -1.3523 -1.8083 -0.1166
16025TIP3    H269491   1.287   1.075  13.912 -1.8535 -0.5039 -0.0177
16026TIP3   OH269492   3.269   0.555  11.856 -0.4791 -0.5318 -0.3631
16026TIP3    H169493   3.285   0.636  11.808 -1.4529  0.3019  0.6673
16026TIP3    H269494   3.219   0.500  11.795 -3.3443  1.2506  0.2786
16027TIP3   OH269495   5.910   0.050   3.042  0.2491 -0.1309 -0.1872
16027TIP3    H169496   5.828   0.069   3.086 -0.6539 -0.7903 -1.5447
16027TIP3    H269497   5.921   0.120   2.978  0.0616 -0.7589 -0.9189
16028TIP3   OH269498   6.363   4.413   3.512 -0.3893 -0.3604  0.6561
16028TIP3    H169499   6.427   4.448   3.450  0.0031 -0.7824  0.8182
16028TIP3    H269500   6.362   4.319   3.495  1.8452 -0.9124  3.1968
16029TIP3   OH269501   1.083   2.855  15.399  0.2285 -0.7834  0.2203
16029TIP3    H169502   1.088   2.948  15.379  0.9715 -0.8772 -0.0721
16029TIP3    H269503   1.172   2.832  15.426  0.5519 -1.8397 -1.6411
16030TIP3   OH269504   2.198   5.329   4.589 -0.7534  0.1271 -0.0201
16030TIP3    H169505   2.181   5.310   4.681 -0.8170 -1.0378 -0.2598
16030TIP3    H269506   2.169   5.419   4.577 -4.3915 -0.9423  0.1915
16031TIP3   OH269507   6.393   4.627   0.712 -0.2602  0.2987  0.0846
16031TIP3    H169508   6.414   4.682   0.637  0.9390  0.0147  0.2061
16031TIP3    H269509   6.448   4.661   0.783  0.4343 -1.0049  0.1774
16032TIP3   OH269510   0.729   2.480  10.320 -0.3058 -0.4415 -0.1412
16032TIP3    H169511   0.744   2.504  10.411 -1.9846  0.1816 -0.0161
16032TIP3    H269512   0.650   2.528  10.295 -0.1751 -1.0372 -1.7567
16033TIP3   OH269513   4.911   2.659   5.450  0.3593  0.6475  0.2208
16033TIP3    H169514   4.940   2.617   5.369 -0.4932 -0.1704  0.3246
16033TIP3    H269515   4.893   2.749   5.425  0.8969  0.6097 -0.3161
16034TIP3   OH269516   3.324   3.694  15.031  0.5793  0.0358 -0.0291
16034TIP3    H169517   3.322   3.626  15.098  0.1825 -0.7684 -0.8457
16034TIP3    H269518   3.298   3.649  14.951 -0.9973  1.4205 -0.3353
16035TIP3   OH269519   5.757   2.164  13.315 -0.0929 -0.1215  0.3927
16035TIP3    H169520   5.776   2.141  13.224 -0.2721 -0.5285  0.4556
16035TIP3    H269521   5.834   2.213  13.344  0.2681 -0.5891  0.2334
16036TIP3   OH269522   1.602   1.508   2.694 -0.7381 -0.2392  0.0300
16036TIP3    H169523   1.569   1.581   2.746 -2.1658 -0.4488 -0.5633
16036TIP3    H269524   1.590   1.535   2.603  0.9748 -0.2210 -0.2184
16037TIP3   OH269525   5.775   0.333   3.724  0.2831  0.0352 -0.1356
16037TIP3    H169526   5.869   0.315   3.734  0.3564  0.7234  0.4568
16037TIP3    H269527   5.734   0.284   3.794  0.0635 -1.3282 -1.1932
16038TIP3   OH269528   0.578   3.921   4.832 -1.0545  0.0025 -0.2656
16038TIP3    H169529   0.617   3.864   4.765  0.7568  0.6805  0.1680
16038TIP3    H269530   0.606   3.882   4.915 -0.8820  0.7908  0.0526
16039TIP3   OH269531   5.671   5.674  12.404  0.2988  0.5470 -0.3825
16039TIP3    H169532   5.730   5.642  12.335  0.1796 -0.9451  0.1972
16039TIP3    H269533   5.718   5.656  12.485  0.1169  1.6298 -0.0353
16040TIP3   OH269534   4.650   3.469   2.510  0.3383  0.0157  0.2942
16040TIP3    H169535   4.571   3.416   2.508 -0.4138  1.1355 -0.0544
16040TIP3    H269536   4.681   3.470   2.419  2.3796 -2.7735  0.8664
16041TIP3   OH269537   4.747   5.591  12.538 -0.2741  0.2738 -0.7359
16041TIP3    H169538   4.735   5.564  12.447 -1.4749 -0.3437 -0.4018
16041TIP3    H269539   4.658   5.595  12.574  0.3359 -1.7792  1.0588
16042TIP3   OH269540   3.067   4.348   0.398  0.0971  0.1001  0.9865
16042TIP3    H169541   3.018   4.364   0.317  2.2074  0.7544 -0.1825
16042TIP3    H269542   3.051   4.426   0.451  1.4574  1.2239 -0.2185
16043TIP3   OH269543   1.492   6.358  16.374  0.3472  0.1072 -0.3116
16043TIP3    H169544   1.402   6.376  16.403  1.4736  2.8613  1.6028
16043TIP3    H269545   1.505   6.416  16.300  0.9896  0.6497  0.2273
16044TIP3   OH269546   2.875   1.352  15.136  0.3660  0.3290 -0.4011
16044TIP3    H169547   2.950   1.386  15.087  0.1058 -0.2152 -1.1830
16044TIP3    H269548   2.847   1.276  15.086 -1.0143  0.8163 -0.3732
16045TIP3   OH269549   0.559   1.020  14.666 -0.0766  0.5283  0.1417
16045TIP3    H169550   0.539   1.028  14.759  1.0580 -1.3434  0.5681
16045TIP3    H269551   0.628   1.085  14.651 -1.6511  2.2347  0.1381
16046TIP3   OH269552   5.509   2.270   4.512  0.0159 -0.6202  0.1350
16046TIP3    H169553   5.538   2.243   4.599 -1.0558 -0.9370  0.3920
16046TIP3    H269554   5.476   2.190   4.471 -0.4298 -0.2698 -0.1886
16047TIP3   OH269555   1.868   0.194  11.835  0.2394 -0.3397  0.2316
16047TIP3    H169556   1.816   0.118  11.861 -0.5846  0.1093 -0.0905
16047TIP3    H269557   1.805   0.265  11.830  1.2363  0.6828  1.8458
16048TIP3   OH269558   4.799   6.021   3.581  0.8735 -0.5516  0.1401
16048TIP3    H169559   4.722   6.057   3.536  0.5980  1.9332  2.4937
16048TIP3    H269560   4.790   5.927   3.570 -0.4161 -0.1377 -2.9958
16049TIP3   OH269561   6.713   2.146  12.392 -0.0106 -0.3788  0.4448
16049TIP3    H169562   6.803   2.114  12.391 -0.3476 -1.3269  0.0110
16049TIP3    H269563   6.721   2.239  12.411  1.1040 -0.3275 -0.2227
16050TIP3   OH269564   1.094   1.998   1.052 -0.0341  0.1050  0.0825
16050TIP3    H169565   1.105   1.959   1.139 -0.8178  0.1699  0.2095
16050TIP3    H269566   1.143   1.941   0.994 -0.9903 -0.9490  0.3031
16051TIP3   OH269567   3.594   5.329   1.659  0.5121  0.7757 -0.3728
16051TIP3    H169568   3.579   5.389   1.586 -0.6280 -1.3619 -1.9614
16051TIP3    H269569   3.538   5.362   1.730 -1.6416  0.5297 -1.8850
16052TIP3   OH269570   3.509   3.176   2.886 -0.1186  0.3295 -0.4692
16052TIP3    H169571   3.511   3.187   2.791  0.5342 -0.2239 -0.5245
16052TIP3    H269572   3.514   3.081   2.899 -1.7465  0.2941  0.0833
16053TIP3   OH269573   2.970   6.544  11.837 -0.2210 -0.3358  0.5132
16053TIP3    H169574   2.890   6.595  11.821 -0.9120 -1.8897 -1.1823
16053TIP3    H269575   3.036   6.610  11.858 -1.7607  1.0423  1.2204
16054TIP3   OH269576   4.929   0.552  12.163 -0.2138  0.1758  0.9985
16054TIP3    H169577   4.992   0.624  12.157 -0.8237  0.6305 -0.0957
16054TIP3    H269578   4.907   0.531  12.072 -0.6629 -0.8527  1.3319
16055TIP3   OH269579   3.978   6.537   3.578  0.1502  0.1734  0.7448
16055TIP3    H169580   3.900   6.483   3.591 -0.0861  0.3829  0.2356
16055TIP3    H269581   4.049   6.475   3.561 -0.4349  0.0667 -1.4668
16056TIP3   OH269582   0.358   0.732   1.830 -0.2222  0.0950  0.0651
16056TIP3    H169583   0.384   0.667   1.765 -1.7228 -0.5797  0.1080
16056TIP3    H269584   0.290   0.783   1.787  0.8796  1.5893  0.0674
16057TIP3   OH269585   4.763   1.425  12.034 -0.4467  0.4105 -0.8093
16057TIP3    H169586   4.796   1.401  12.121 -0.7860  0.4420 -0.6734
16057TIP3    H269587   4.668   1.412  12.040 -0.4475  0.2075 -1.2415
16058TIP3   OH269588   6.115   3.376   1.401  0.1843  0.1128 -0.2062
16058TIP3    H169589   6.161   3.329   1.332  0.9739  2.2076 -1.1197
16058TIP3    H269590   6.023   3.378   1.373  0.4239  0.5370 -0.9519
16059TIP3   OH269591   3.754   4.371  15.057  0.5039 -0.0318  0.6539
16059TIP3    H169592   3.800   4.430  14.998  2.2168 -2.6508 -0.6833
16059TIP3    H269593   3.676   4.344  15.008 -0.0975  0.7855  1.1327
16060TIP3   OH269594   4.320   0.843   1.415  0.1423  0.3336 -0.5015
16060TIP3    H169595   4.416   0.838   1.420  0.1688 -0.2421 -1.4784
16060TIP3    H269596   4.290   0.763   1.460  0.1947 -0.8342 -2.4906
16061TIP3   OH269597   4.093   2.048   2.236  0.7194  0.0653  0.3885
16061TIP3    H169598   4.058   2.066   2.324  0.9541  1.2970  0.2424
16061TIP3    H269599   4.017   2.051   2.179  0.0801 -3.7330  0.9117
16062TIP3   OH269600   4.323   6.018  12.165  0.5139 -0.0964  0.2661
16062TIP3    H169601   4.333   5.925  12.145 -0.6409 -0.3458  0.8007
16062TIP3    H269602   4.369   6.063  12.094  0.6123 -1.0631 -0.2907
16063TIP3   OH269603   1.468   6.146  16.048  0.0213 -0.4745 -0.3713
16063TIP3    H169604   1.543   6.177  15.998 -1.1081  1.0606 -1.1558
16063TIP3    H269605   1.405   6.218  16.044 -0.9300 -1.1610  1.4865
16064TIP3   OH269606   2.534   1.523   4.358  0.1657  0.1828  0.5241
16064TIP3    H169607   2.451   1.492   4.319  1.0537 -0.1374 -1.1811
16064TIP3    H269608   2.531   1.493   4.448 -1.3779 -0.2394  0.3500
16065TIP3   OH269609   0.271   4.222  15.626  0.0320 -0.1454 -0.1149
16065TIP3    H169610   0.260   4.127  15.620 -1.7854  0.0684 -0.4750
16065TIP3    H269611   0.214   4.257  15.557 -1.5611  1.3191  1.8972
16066TIP3   OH269612   1.359   1.568   0.854  0.5225  0.4801 -0.0337
16066TIP3    H169613   1.313   1.546   0.935  1.1255 -2.0814 -0.3378
16066TIP3    H269614   1.327   1.656   0.831 -2.5186 -0.3042  0.9449
16067TIP3   OH269615   2.610   2.424   4.509 -0.3000  0.1316  0.1668
16067TIP3    H169616   2.626   2.331   4.528 -0.0900 -0.0247 -0.7537
16067TIP3    H269617   2.696   2.459   4.487 -0.8227 -0.1525 -2.4385
16068TIP3   OH269618   5.299   0.340   2.506 -0.1395  0.6678  0.1182
16068TIP3    H169619   5.390   0.361   2.487 -0.5023  1.1118 -1.2255
16068TIP3    H269620   5.256   0.425   2.515 -0.5818  0.4706 -0.0894
16069TIP3   OH269621   2.181   0.223  16.268 -0.0046  0.1594 -0.2069
16069TIP3    H169622   2.135   0.185  16.194  0.7442 -0.9882 -0.0850
16069TIP3    H269623   2.215   0.148  16.317 -1.6984  0.8236  2.0978
16070TIP3   OH269624   3.098   3.965   1.938  1.2918  0.1737 -0.1044
16070TIP3    H169625   3.116   3.965   2.032  0.2395  1.3739  0.1124
16070TIP3    H269626   3.042   4.042   1.924  3.7652  1.6872 -2.1672
16071TIP3   OH269627   3.848   3.075   5.683 -0.1327  0.8150 -0.5469
16071TIP3    H169628   3.921   3.089   5.624  0.9257  0.7668  0.7225
16071TIP3    H269629   3.888   3.042   5.764 -1.8300 -2.1687 -0.8601
16072TIP3   OH269630   2.321   5.873  15.866 -0.5505 -0.1912 -0.6925
16072TIP3    H169631   2.390   5.859  15.931 -0.0368  1.3454 -0.9082
16072TIP3    H269632   2.247   5.908  15.916 -0.4602  0.1457 -0.7951
16073TIP3   OH269633   2.390   3.346  13.674 -0.0973 -0.4359 -0.4781
16073TIP3    H169634   2.388   3.252  13.690 -3.4226 -0.4866 -0.8455
16073TIP3    H269635   2.368   3.385  13.759  0.3976 -0.0058 -0.5441
16074TIP3   OH269636   0.377   3.047  15.761 -0.4973 -0.2693  0.8027
16074TIP3    H169637   0.364   3.096  15.680  0.3963 -1.1276  0.1321
16074TIP3    H269638   0.318   3.089  15.824  0.2313  1.6566  0.2474
16075TIP3   OH269639   1.507   0.868  14.458 -0.0729 -0.2000 -0.0145
16075TIP3    H169640   1.415   0.851  14.437 -0.3848  1.5195 -0.1921
16075TIP3    H269641   1.505   0.952  14.503  1.4949  0.2680 -0.7891
16076TIP3   OH269642   5.676   0.716  17.175 -0.0022 -0.3182 -0.3896
16076TIP3    H169643   5.737   0.650  17.209  0.0053 -0.4787 -0.7035
16076TIP3    H269644   5.726   0.797  17.175  0.1128 -0.3885 -0.3523
16077TIP3   OH269645   4.568   2.448  10.511  0.0784  0.1502  0.4188
16077TIP3    H169646   4.490   2.477  10.560 -0.4143 -1.4808  0.6352
16077TIP3    H269647   4.627   2.415  10.578 -0.3258 -1.4796 -0.0120
16078TIP3   OH269648   3.539   2.009   6.047  0.1706 -0.4284 -0.4385
16078TIP3    H169649   3.612   1.992   5.988  0.1836 -0.3347 -0.4500
16078TIP3    H269650   3.465   1.961   6.009  0.6526 -1.9825  0.5403
16079TIP3   OH269651   1.975   2.658   3.641  0.3723 -0.2950  0.1781
16079TIP3    H169652   2.067   2.681   3.654  0.6001 -1.0965  0.0293
16079TIP3    H269653   1.951   2.610   3.720  0.0846 -0.0968  0.2115
16080TIP3   OH269654   0.236   0.508   6.590 -0.0494 -0.3930 -0.6027
16080TIP3    H169655   0.218   0.592   6.632 -0.7153 -0.9202  0.1935
16080TIP3    H269656   0.296   0.529   6.519  0.1204  0.6971 -0.1497
16081TIP3   OH269657   2.125   6.074  13.772  0.1997  0.0105  0.5558
16081TIP3    H169658   2.181   6.118  13.707  0.0515 -1.0801 -0.3277
16081TIP3    H269659   2.186   6.033  13.832  0.4346 -3.2669 -1.8144
16082TIP3   OH269660   1.658   6.391  12.502  0.1462  0.1040  0.0753
16082TIP3    H169661   1.725   6.433  12.447  1.0121 -0.6356  0.5555
16082TIP3    H269662   1.704   6.368  12.582 -0.5912 -0.7907  0.2464
16083TIP3   OH269663   3.877   4.613  16.612 -0.2866 -0.2728  0.3937
16083TIP3    H169664   3.942   4.546  16.634  0.2654  0.3128  0.5546
16083TIP3    H269665   3.883   4.623  16.517  1.1576  1.0822  0.5995
16084TIP3   OH269666   2.263   5.498   2.942 -0.4739 -0.1202  0.3734
16084TIP3    H169667   2.239   5.443   3.016 -0.9065 -1.5255 -0.8056
16084TIP3    H269668   2.236   5.449   2.865  3.7895 -0.6509 -0.9250
16085TIP3   OH269669   6.141   4.419  13.778 -0.0310  0.6763 -0.0032
16085TIP3    H169670   6.187   4.416  13.694 -0.2148  1.0419 -0.1202
16085TIP3    H269671   6.190   4.360  13.835  0.4417  0.8841 -0.1963
16086TIP3   OH269672   2.185   0.460  11.796 -0.4071 -0.5317 -0.1081
16086TIP3    H169673   2.135   0.540  11.813 -0.2584 -0.5094  0.2446
16086TIP3    H269674   2.254   0.488  11.736 -1.3879 -0.7699 -1.3649
16087TIP3   OH269675   4.737   1.905  11.145  0.8903  0.3344 -0.2534
16087TIP3    H169676   4.771   1.876  11.060  0.7330 -0.5534 -0.0169
16087TIP3    H269677   4.687   1.984  11.125 -0.4274 -0.7161 -1.2094
16088TIP3   OH269678   5.304   2.187   3.937 -0.5159  0.4073 -0.5570
16088TIP3    H169679   5.343   2.110   3.896 -0.2002  0.6891 -0.7884
16088TIP3    H269680   5.339   2.261   3.887  1.3013  0.8727  1.3182
16089TIP3   OH269681   6.658   4.289  13.479  0.1985 -0.3170 -0.0151
16089TIP3    H169682   6.620   4.243  13.404  1.0331 -1.2481  0.1230
16089TIP3    H269683   6.747   4.254  13.487  0.8564  1.3253  0.1026
16090TIP3   OH269684   4.406   2.450   0.607 -0.3030  0.2255 -0.6425
16090TIP3    H169685   4.426   2.441   0.514 -0.2180 -1.7879 -0.4570
16090TIP3    H269686   4.438   2.537   0.631  0.0994  0.5702 -2.3810
16091TIP3   OH269687   0.486   3.131   6.307 -0.4828 -0.2119 -0.1820
16091TIP3    H169688   0.571   3.118   6.347 -0.3557 -2.0385 -0.9908
16091TIP3    H269689   0.447   3.044   6.303 -1.7088  0.3558 -1.3028
16092TIP3   OH269690   2.019   2.314   4.484  0.4569  0.5820  0.7337
16092TIP3    H169691   2.095   2.373   4.481  0.0251  1.0761 -0.8062
16092TIP3    H269692   2.056   2.227   4.472  0.8717  0.7229  0.9389
16093TIP3   OH269693   0.566   0.396  11.458 -0.3035  0.4286 -0.1877
16093TIP3    H169694   0.573   0.371  11.366  0.0589 -0.5152  0.0927
16093TIP3    H269695   0.643   0.356  11.500 -1.8667 -1.4252  1.0208
16094TIP3   OH269696   6.265   1.322   0.357  0.6942  0.5182  0.0425
16094TIP3    H169697   6.260   1.408   0.398 -0.2037  1.1385 -1.3559
16094TIP3    H269698   6.249   1.260   0.429 -0.0041  1.5554  0.7934
16095TIP3   OH269699   4.174   1.510   6.142 -0.5516  0.8392  0.4062
16095TIP3    H169700   4.108   1.491   6.209 -1.1000  1.3903  0.0306
16095TIP3    H269701   4.256   1.521   6.191  0.0479 -3.3720  0.5904
16096TIP3   OH269702   1.919   1.950  14.867  0.0936  0.5959  0.1146
16096TIP3    H169703   1.853   1.975  14.803 -2.2109  0.8611  2.5063
16096TIP3    H269704   1.924   2.024  14.927  2.5700  0.5596  0.0034
16097TIP3   OH269705   3.835   3.765  14.143 -0.1084  0.0146 -0.2518
16097TIP3    H169706   3.876   3.834  14.195  0.4532  0.5086 -1.3316
16097TIP3    H269707   3.760   3.809  14.101 -0.5982 -0.3958  0.1911
16098TIP3   OH269708   2.300   3.527  13.856 -0.3516  0.0683 -0.3660
16098TIP3    H169709   2.276   3.459  13.919  1.3291 -0.8437 -0.6865
16098TIP3    H269710   2.221   3.581  13.849 -1.3820 -1.2428  0.6605
16099TIP3   OH269711   2.284   5.043   3.716 -0.4223 -0.3173 -0.1308
16099TIP3    H169712   2.199   5.067   3.752 -1.2215 -0.1215 -2.0977
16099TIP3    H269713   2.309   4.964   3.764 -2.3000 -1.1048 -0.4042
16100TIP3   OH269714   0.928   3.499  16.471 -0.4386 -0.5453 -0.0853
16100TIP3    H169715   0.864   3.514  16.402 -1.0778  1.4584  0.9124
16100TIP3    H269716   0.877   3.501  16.552  0.7973  0.5578  0.6795
16101TIP3   OH269717   3.503   4.698   1.173 -0.5493  0.8677  0.0401
16101TIP3    H169718   3.441   4.727   1.241  1.0613 -4.0435  3.9174
16101TIP3    H269719   3.451   4.644   1.115 -1.2128  2.2415 -0.6783
16102TIP3   OH269720   0.015   2.137   4.336  0.2279  0.1297  0.3328
16102TIP3    H169721   0.042   2.069   4.275  0.5388  0.6351 -0.0942
16102TIP3    H269722  -0.062   2.177   4.294 -0.3139 -0.3422  0.8594
16103TIP3   OH269723   1.274   0.159  16.570  0.0294 -0.3200 -0.2815
16103TIP3    H169724   1.293   0.073  16.607  0.0281 -0.4181 -0.5067
16103TIP3    H269725   1.283   0.220  16.643  0.2294 -0.4867 -0.1715
16104TIP3   OH269726   6.543   0.091  12.279  0.1863 -0.5934 -0.3030
16104TIP3    H169727   6.524   0.011  12.230  1.2216 -0.5137 -0.8550
16104TIP3    H269728   6.565   0.060  12.367 -1.6489 -0.7380  0.1259
16105TIP3   OH269729   2.427   0.291   1.645 -0.1307  0.5379 -0.2510
16105TIP3    H169730   2.464   0.378   1.642  1.9739 -0.3054  0.6671
16105TIP3    H269731   2.499   0.232   1.622 -0.3612 -1.2654  3.2745
16106TIP3   OH269732   3.815   0.507   4.688  0.1189 -0.1552  0.4027
16106TIP3    H169733   3.854   0.574   4.632  0.8081  0.1241  1.2056
16106TIP3    H269734   3.723   0.505   4.662  0.1217  0.9884  0.2493
16107TIP3   OH269735   5.080   2.440  15.008 -0.2126  0.1138 -0.0910
16107TIP3    H169736   5.001   2.430  14.955 -0.1975  0.9043 -0.2673
16107TIP3    H269737   5.108   2.350  15.025 -1.8160 -0.1980  0.9841
16108TIP3   OH269738   4.300   6.438   2.132 -0.1080 -0.3026  0.4465
16108TIP3    H169739   4.393   6.434   2.111 -0.3105 -0.3390 -0.4438
16108TIP3    H269740   4.283   6.531   2.147 -0.4126  0.0008 -1.6461
16109TIP3   OH269741   3.323   3.590  12.679  0.4435 -0.4291  0.2130
16109TIP3    H169742   3.361   3.678  12.675  0.1722 -0.2591  1.1164
16109TIP3    H269743   3.366   3.542  12.608  0.4129  0.5005 -0.4482
16110TIP3   OH269744   3.568   0.568  13.617  0.2688 -0.3223 -0.2079
16110TIP3    H169745   3.588   0.555  13.710  0.4986 -1.9302 -0.4713
16110TIP3    H269746   3.472   0.575  13.614  0.1127 -2.0170 -0.0263
16111TIP3   OH269747   4.328   5.289   3.586  0.5689 -0.3074 -0.0262
16111TIP3    H169748   4.330   5.381   3.612  0.9149 -0.2915 -0.1041
16111TIP3    H269749   4.350   5.241   3.666  0.4880 -0.3179 -0.0101
16112TIP3   OH269750   4.975   0.055   1.905  0.2630 -0.0226 -0.1007
16112TIP3    H169751   5.044   0.032   1.967 -0.5873 -0.9262  0.5241
16112TIP3    H269752   5.007   0.021   1.821  0.5302 -0.5310  0.2057
16113TIP3   OH269753   2.338   1.455   5.309  0.0525 -0.8785 -0.3812
16113TIP3    H169754   2.250   1.482   5.338 -0.2742 -0.9397 -1.3026
16113TIP3    H269755   2.339   1.360   5.322  0.6420 -0.6493  1.3660
16114TIP3   OH269756   3.769   5.036  14.474 -1.0741 -0.0534  0.1414
16114TIP3    H169757   3.694   4.977  14.470  0.0222 -1.4280 -0.4556
16114TIP3    H269758   3.791   5.053  14.382 -0.7087  0.4245  0.3153
16115TIP3   OH269759   2.317   6.086  15.195 -0.6059  0.4284 -0.4479
16115TIP3    H169760   2.307   6.021  15.126 -1.0747 -0.0313  0.0426
16115TIP3    H269761   2.259   6.055  15.265  1.6385 -0.4056  1.0948
16116TIP3   OH269762   2.661   1.294   4.200  0.0763  0.0278  0.3073
16116TIP3    H169763   2.739   1.245   4.172  0.7248  0.4378  1.3598
16116TIP3    H269764   2.692   1.384   4.211 -0.6808  0.3046  0.1961
16117TIP3   OH269765   0.841   4.302   4.619  0.2498  0.2938 -0.2821
16117TIP3    H169766   0.777   4.257   4.674 -0.4406  0.2102 -1.1478
16117TIP3    H269767   0.926   4.276   4.655 -0.1905  1.0866  1.4181
16118TIP3   OH269768   1.790   2.736   0.342  0.2199  0.0624 -0.3435
16118TIP3    H169769   1.864   2.726   0.403  0.1552  0.7579 -0.1433
16118TIP3    H269770   1.820   2.693   0.262  0.3032 -0.8669  0.1757
16119TIP3   OH269771   5.541   2.556  15.068  0.3079 -0.2346 -0.1825
16119TIP3    H169772   5.594   2.523  14.995 -0.0237 -0.7078 -0.2080
16119TIP3    H269773   5.605   2.598  15.126  0.5800  0.0977 -0.7153
16120TIP3   OH269774   5.403   2.273   1.342  0.0244  0.2208  0.7087
16120TIP3    H169775   5.430   2.200   1.398  0.9916  0.1705  0.1941
16120TIP3    H269776   5.430   2.352   1.390 -1.2787  0.2583  1.3975
16121TIP3   OH269777   2.109   6.282   2.261  0.1913  0.0581 -0.4907
16121TIP3    H169778   2.025   6.261   2.221  0.6020 -1.7768 -0.4565
16121TIP3    H269779   2.098   6.370   2.298 -1.8474 -0.3797 -0.0243
16122TIP3   OH269780   6.156   5.677  14.107  0.3717  0.1817 -0.7036
16122TIP3    H169781   6.062   5.661  14.112  0.4361 -0.6221 -1.7772
16122TIP3    H269782   6.196   5.592  14.123  0.9436  0.6420  0.3670
16123TIP3   OH269783   6.414   2.902  14.625 -0.3856  0.0569  0.0675
16123TIP3    H169784   6.402   2.988  14.586 -2.4892 -0.9548 -1.6074
16123TIP3    H269785   6.509   2.886  14.619 -0.4994  0.4341 -3.6352
16124TIP3   OH269786   6.501   1.591   6.092  0.4379 -0.1505  0.6148
16124TIP3    H169787   6.432   1.608   6.156  0.5927  0.9155  0.5177
16124TIP3    H269788   6.501   1.669   6.037  2.0761  0.0983  0.9470
16125TIP3   OH269789   4.635   4.703  16.657 -0.4545 -0.0551 -0.6257
16125TIP3    H169790   4.665   4.617  16.629 -0.4307 -0.0859 -0.5053
16125TIP3    H269791   4.713   4.745  16.694 -0.7071 -0.3985  0.3242
16126TIP3   OH269792   6.633   1.576  12.174  0.2971 -0.0241 -0.3384
16126TIP3    H169793   6.658   1.516  12.104  0.4359  0.0803 -0.3801
16126TIP3    H269794   6.583   1.645  12.130  1.5472  0.7773 -0.5697
16127TIP3   OH269795   3.249   3.312  15.460  0.2187 -0.4019 -0.1714
16127TIP3    H169796   3.322   3.274  15.508  1.8114 -0.9880 -2.9786
16127TIP3    H269797   3.287   3.384  15.410 -1.8025  1.5560  1.0053
16128TIP3   OH269798   4.246   5.899   3.414 -0.3833 -0.8033  0.3176
16128TIP3    H169799   4.179   5.888   3.346 -0.1955 -0.4060  0.0712
16128TIP3    H269800   4.196   5.912   3.495 -0.6113  1.6031 -0.1872
16129TIP3   OH269801   0.297   6.638   5.633  0.0438 -0.6167  0.1212
16129TIP3    H169802   0.363   6.661   5.698 -0.6620 -1.6835  1.2434
16129TIP3    H269803   0.292   6.714   5.575 -0.3408  0.9420  2.1531
16130TIP3   OH269804   4.288   3.024   1.936  0.0795  0.1063  0.6078
16130TIP3    H169805   4.197   3.025   1.963 -0.2271 -0.9132 -0.3402
16130TIP3    H269806   4.338   3.016   2.017 -0.7236 -0.4652  1.0478
16131TIP3   OH269807   6.449   3.457   5.650  0.1821  0.5522  0.2695
16131TIP3    H169808   6.444   3.424   5.739  0.6753 -0.6722 -0.1421
16131TIP3    H269809   6.518   3.406   5.609 -1.1975 -0.1137 -1.3105
16132TIP3   OH269810   2.442   6.741   2.017  0.2622  0.0766  0.0892
16132TIP3    H169811   2.418   6.740   1.925 -0.4412 -1.0030  0.2813
16132TIP3    H269812   2.504   6.669   2.027 -1.0415 -0.9541  0.8237
16133TIP3   OH269813   3.461   4.089   4.503  0.4006  0.0908  0.3502
16133TIP3    H169814   3.463   4.134   4.587 -1.3758 -2.4782  1.8256
16133TIP3    H269815   3.400   4.141   4.450  0.3670  0.8813  1.1510
16134TIP3   OH269816   6.197   0.060   1.120  0.2859 -0.1478 -0.1030
16134TIP3    H169817   6.270  -0.001   1.113 -0.3488 -0.7719 -1.5806
16134TIP3    H269818   6.234   0.145   1.094  1.2066  0.1645  2.1106
16135TIP3   OH269819   5.463   3.722   0.925 -0.6446 -0.4838 -0.0015
16135TIP3    H169820   5.473   3.816   0.915 -1.3617 -0.3594  0.4099
16135TIP3    H269821   5.522   3.699   0.997 -0.1575 -0.4243 -0.3722
16136TIP3   OH269822   0.944   3.713   3.329  0.0624 -0.9077 -0.6966
16136TIP3    H169823   0.918   3.800   3.360 -0.0473 -1.3620  0.5123
16136TIP3    H269824   1.027   3.727   3.284  0.6108 -0.3440  0.4801
16137TIP3   OH269825   0.125   6.406   3.510  0.2148  0.3410  0.4609
16137TIP3    H169826   0.171   6.415   3.426  0.9189  2.6447  1.0603
16137TIP3    H269827   0.123   6.312   3.527  2.5418  0.0473 -0.7710
16138TIP3   OH269828   0.397   5.769   2.032 -0.3821  0.3497  0.0648
16138TIP3    H169829   0.469   5.750   2.092  1.6554 -0.0016 -2.4444
16138TIP3    H269830   0.418   5.855   1.996 -1.3437  0.3359 -0.5338
16139TIP3   OH269831   3.437   3.007  15.307  0.0253 -0.3203 -0.4110
16139TIP3    H169832   3.443   2.914  15.329 -1.4506 -0.4967 -0.6639
16139TIP3    H269833   3.502   3.020  15.238 -0.0939 -1.2800 -0.7121
16140TIP3   OH269834   4.894   1.380  14.641 -0.5217  0.3471 -0.5468
16140TIP3    H169835   4.967   1.408  14.696 -1.2839  1.0210  0.1366
16140TIP3    H269836   4.901   1.435  14.563 -0.4171  0.5577 -0.3906
16141TIP3   OH269837   5.274   2.994   2.217 -0.4537 -0.0268 -0.3220
16141TIP3    H169838   5.237   2.905   2.219 -1.0212  0.1198 -2.5823
16141TIP3    H269839   5.352   2.989   2.272  0.0084 -2.1798 -1.1153
16142TIP3   OH269840   0.907   6.770  15.010 -0.1801  0.3496  0.3267
16142TIP3    H169841   0.886   6.829  14.938 -0.6904  0.4569  0.5612
16142TIP3    H269842   1.001   6.780  15.023  0.1520 -0.6407 -1.1758
16143TIP3   OH269843   4.401   0.015   2.925 -0.5498  0.0116 -0.7132
16143TIP3    H169844   4.332   0.053   2.979 -0.4271 -1.4864  0.5278
16143TIP3    H269845   4.451  -0.040   2.985  0.7893 -0.1327 -1.9352
16144TIP3   OH269846   4.726   2.979   1.359 -0.1124  0.1535  0.6601
16144TIP3    H169847   4.633   2.955   1.360  0.1359 -0.7967  2.0456
16144TIP3    H269848   4.773   2.896   1.353  0.6635  0.5681  0.9325
16145TIP3   OH269849   5.985   3.896  16.537 -0.0141  0.1642 -0.6068
16145TIP3    H169850   5.989   3.829  16.469 -3.3574  0.8471 -1.5513
16145TIP3    H269851   6.025   3.973  16.497  0.7867 -0.2856 -0.6950
16146TIP3   OH269852   5.807   1.623   3.902 -0.6080 -0.8095 -0.1213
16146TIP3    H169853   5.890   1.671   3.905 -1.3883  0.8841 -3.5756
16146TIP3    H269854   5.832   1.532   3.889  0.7013 -0.3526 -0.8715
16147TIP3   OH269855   3.889   4.598  10.927  0.2486 -0.6947  0.2596
16147TIP3    H169856   3.876   4.597  10.832  0.1353  0.7941  0.2445
16147TIP3    H269857   3.914   4.689  10.946  2.8086 -1.5760  1.3203
16148TIP3   OH269858   2.061   1.542   0.770  0.3446 -0.2806  0.2743
16148TIP3    H169859   2.035   1.590   0.848  0.7563 -2.7014  1.9804
16148TIP3    H269860   2.139   1.587   0.738 -0.2555  1.1630  0.8295
16149TIP3   OH269861   4.032   5.635  15.949  0.0804  0.5275 -0.0399
16149TIP3    H169862   3.981   5.685  16.013 -1.6275 -1.0873 -0.0867
16149TIP3    H269863   4.122   5.642  15.980 -0.6068  0.4695  2.0842
16150TIP3   OH269864   2.609   2.560  12.707 -0.4912 -0.8279  0.4382
16150TIP3    H169865   2.631   2.538  12.798  2.0321  1.9221  0.5646
16150TIP3    H269866   2.667   2.506  12.654 -0.5685 -0.9843  0.5110
16151TIP3   OH269867   4.983   1.506  16.607  0.0628 -0.0512  0.3987
16151TIP3    H169868   4.889   1.520  16.612  0.1143  0.1621  0.9312
16151TIP3    H269869   5.010   1.493  16.699  0.1318 -2.9952  0.0106
16152TIP3   OH269870   3.189   5.898  15.009 -0.3872 -0.1866  0.1780
16152TIP3    H169871   3.276   5.939  15.004 -1.0366  1.2286  0.1111
16152TIP3    H269872   3.156   5.904  14.919 -1.3993  1.2103  0.6287
16153TIP3   OH269873   2.763   0.988   3.635  0.6466  0.8578  0.3851
16153TIP3    H169874   2.811   0.945   3.564  0.4005  0.1012  0.6613
16153TIP3    H269875   2.757   0.920   3.703 -0.6976  0.9761  0.3970
16154TIP3   OH269876   0.036   4.924   3.511  0.2139 -0.1816 -0.4859
16154TIP3    H169877   0.082   4.840   3.515  0.2782 -0.2265 -1.9744
16154TIP3    H269878   0.008   4.940   3.601  3.2274 -0.1011  0.4887
16155TIP3   OH269879   0.328   6.364   4.330 -0.2217  0.1130  0.1363
16155TIP3    H169880   0.292   6.275   4.332 -2.3257  0.9148 -0.6098
16155TIP3    H269881   0.254   6.419   4.304  0.1863  2.5263  3.8393
16156TIP3   OH269882   6.435   2.320  12.395 -0.2963 -0.5656  0.3758
16156TIP3    H169883   6.492   2.334  12.320  0.2172 -1.3842  0.6062
16156TIP3    H269884   6.382   2.244  12.371  1.6399 -2.4646  1.8291
16157TIP3   OH269885   1.806   4.896   3.545 -0.4339  0.1576  0.2302
16157TIP3    H169886   1.878   4.873   3.603 -0.6550  0.2813  0.5579
16157TIP3    H269887   1.847   4.916   3.461  0.0398  1.5542  0.7825
16158TIP3   OH269888   6.434   6.037   5.895 -0.0861  0.4216 -0.0389
16158TIP3    H169889   6.353   6.060   5.940  0.1127 -0.7632  0.9497
16158TIP3    H269890   6.504   6.063   5.956  0.2430  0.4218 -0.4104
16159TIP3   OH269891   6.767   5.549  14.265 -0.3883 -0.3331 -0.5608
16159TIP3    H169892   6.787   5.480  14.202 -1.5190 -1.2890  0.1105
16159TIP3    H269893   6.723   5.504  14.337 -1.6362  1.1696 -0.3550
16160TIP3   OH269894   2.586   2.858   0.154 -0.4562  0.0203 -0.7986
16160TIP3    H169895   2.562   2.949   0.170  1.8068  0.5818 -0.3321
16160TIP3    H269896   2.584   2.816   0.240  1.0591  0.3156 -0.5960
16161TIP3   OH269897   1.994   0.416  10.887 -0.5366  0.6566 -0.3850
16161TIP3    H169898   1.985   0.353  10.815  2.0751  1.7381 -1.7552
16161TIP3    H269899   1.957   0.371  10.963 -0.4578 -1.7876 -1.7234
16162TIP3   OH269900   2.270   5.646   3.891 -0.6735 -0.0937  0.2528
16162TIP3    H169901   2.204   5.626   3.824 -1.6475 -0.0435  1.1815
16162TIP3    H269902   2.321   5.718   3.854 -0.8255 -0.4429 -0.6724
16163TIP3   OH269903   0.476   5.471  17.206 -0.0024 -0.9702  0.2744
16163TIP3    H169904   0.461   5.383  17.241 -1.1071 -0.3840  1.3172
16163TIP3    H269905   0.571   5.475  17.191  0.3135 -1.7315  1.8983
16164TIP3   OH269906   3.058   6.456   2.463  0.0547 -0.1039  0.1929
16164TIP3    H169907   3.089   6.512   2.534 -1.1662  0.8347  0.0071
16164TIP3    H269908   3.086   6.368   2.487  2.5630  0.6679  0.1694
16165TIP3   OH269909   4.536   2.700  11.421 -0.2171 -0.2370  0.4953
16165TIP3    H169910   4.498   2.749  11.348  0.0912  0.2721  0.6729
16165TIP3    H269911   4.630   2.715  11.414  0.0237 -1.9535 -0.2749
16166TIP3   OH269912   1.178   2.695   0.779 -0.2014 -0.5827  0.5322
16166TIP3    H169913   1.257   2.650   0.750 -0.2570 -0.6200  0.4388
16166TIP3    H269914   1.165   2.666   0.869 -2.1391 -3.4020 -0.5826
16167TIP3   OH269915   6.292   0.528  12.739  0.0150 -0.0548  0.2471
16167TIP3    H169916   6.257   0.617  12.732  2.7432  0.9858 -1.1868
16167TIP3    H269917   6.303   0.500  12.648  2.2823 -0.5316  0.6411
16168TIP3   OH269918   1.529   2.694   2.129 -0.4757  0.5892 -0.5273
16168TIP3    H169919   1.551   2.777   2.086  2.1059 -0.4120 -1.2298
16168TIP3    H269920   1.478   2.646   2.064 -1.2022  1.2486 -0.4549
16169TIP3   OH269921   5.375   5.981   5.609 -0.3697  0.9747  0.2177
16169TIP3    H169922   5.308   5.925   5.570 -1.4266  1.3147  1.5276
16169TIP3    H269923   5.455   5.959   5.560 -1.2393 -0.0344 -0.7934
16170TIP3   OH269924   4.918   6.185  15.002  0.0096  0.4175  0.2075
16170TIP3    H169925   4.936   6.107  15.054  2.8228  0.4342 -0.6314
16170TIP3    H269926   4.892   6.251  15.065 -3.8130 -1.5226  0.8053
16171TIP3   OH269927   5.414   0.950   1.870 -0.1014  0.8503 -0.5569
16171TIP3    H169928   5.386   0.990   1.788  1.8895  0.9890 -1.2090
16171TIP3    H269929   5.387   0.859   1.863 -1.1797  1.1756 -0.7474
16172TIP3   OH269930   5.491   0.164   0.778 -0.0065 -0.1845  0.2793
16172TIP3    H169931   5.555   0.103   0.740 -0.2863 -0.5500  0.3856
16172TIP3    H269932   5.407   0.119   0.768 -0.2232  0.2099  0.3115
16173TIP3   OH269933   0.120   0.649   0.853 -0.1346  0.2406 -0.8826
16173TIP3    H169934   0.113   0.557   0.829  1.2524 -0.0324 -0.2504
16173TIP3    H269935   0.052   0.662   0.919  0.8710 -0.7874  0.3760
16174TIP3   OH269936   5.501   5.953  14.229  0.0457 -0.4117 -0.0807
16174TIP3    H169937   5.575   5.901  14.197  0.3286 -0.6544  0.9487
16174TIP3    H269938   5.534   6.043  14.231 -0.0585 -0.3559 -0.7089
16175TIP3   OH269939   2.776   2.392  12.519  0.6124 -0.0742  0.2668
16175TIP3    H169940   2.838   2.331  12.480 -1.2076  0.1672 -3.1526
16175TIP3    H269941   2.708   2.337  12.557 -1.3263 -0.2862 -3.3151
16176TIP3   OH269942   2.633   5.226   4.701  0.2773 -0.2444  0.0393
16176TIP3    H169943   2.609   5.196   4.789 -2.2150  0.1244 -0.4763
16176TIP3    H269944   2.573   5.179   4.642 -1.1643  2.8442 -1.0825
16177TIP3   OH269945   6.412   4.341   0.278  0.5726 -0.1621 -0.0477
16177TIP3    H169946   6.377   4.259   0.243  0.9357 -0.7072  0.8509
16177TIP3    H269947   6.345   4.406   0.257 -0.4404 -0.9777  0.5966
16178TIP3   OH269948   3.629   2.912   3.137 -0.0313 -0.2174 -0.0328
16178TIP3    H169949   3.576   2.888   3.214 -1.2165  1.1864 -0.3757
16178TIP3    H269950   3.651   3.004   3.151  1.6605 -0.5694 -0.3029
16179TIP3   OH269951   1.953   0.036   0.177 -1.1508  0.2833  0.5188
16179TIP3    H169952   1.877  -0.015   0.147 -1.0956  0.4851  0.0308
16179TIP3    H269953   2.011   0.039   0.101  0.2894 -1.6223  1.5109
16180TIP3   OH269954   5.564   1.737   3.254  0.4814 -0.2818 -0.6165
16180TIP3    H169955   5.508   1.699   3.322 -0.1774  1.8696  0.0755
16180TIP3    H269956   5.530   1.702   3.172 -0.0131 -1.2738  0.0032
16181TIP3   OH269957   0.509   2.194  13.262 -0.4375 -0.0866  0.4200
16181TIP3    H169958   0.531   2.212  13.170 -0.5637 -1.6320  0.0763
16181TIP3    H269959   0.428   2.143  13.257 -0.9450  0.5931  1.4462
16182TIP3   OH269960   4.141   5.407  11.243 -0.2539  0.1170 -0.5346
16182TIP3    H169961   4.128   5.433  11.152 -1.0871 -0.0470 -0.4648
16182TIP3    H269962   4.114   5.483  11.294 -1.2107 -0.3160 -0.3812
16183TIP3   OH269963   4.067   2.480  15.473 -0.0371  0.0818 -0.1681
16183TIP3    H169964   3.986   2.445  15.437 -0.1071  1.1256 -1.0658
16183TIP3    H269965   4.056   2.474  15.568 -1.4809  0.9000 -0.2761
16184TIP3   OH269966   1.254   0.379  16.741  0.3864 -0.0620  0.6820
16184TIP3    H169967   1.255   0.433  16.662 -0.8140 -0.5456  0.3201
16184TIP3    H269968   1.256   0.442  16.813 -1.7967  0.5273  0.2712
16185TIP3   OH269969   2.871   3.973  15.908  0.5500 -0.4624  0.3204
16185TIP3    H169970   2.861   3.883  15.877 -0.9563 -0.2955  0.2725
16185TIP3    H269971   2.815   4.025  15.850 -0.7767  0.1021  2.0565
16186TIP3   OH269972   4.520   5.478  14.538 -0.5487 -0.2316 -0.5203
16186TIP3    H169973   4.563   5.554  14.576 -1.3905 -0.2932  0.6048
16186TIP3    H269974   4.480   5.511  14.457  1.0344 -0.0340 -1.2363
16187TIP3   OH269975   1.845   3.127  15.041 -0.4450 -0.2938 -0.1350
16187TIP3    H169976   1.852   3.091  14.952 -2.4777  1.6753 -1.1480
16187TIP3    H269977   1.813   3.054  15.094  1.2210 -1.6113 -0.9066
16188TIP3   OH269978   0.105   3.906  16.404  0.4074  0.4806 -0.4772
16188TIP3    H169979   0.014   3.878  16.394  0.8596 -1.6758  1.1639
16188TIP3    H269980   0.140   3.851  16.474  2.5851  2.2632 -0.0967
16189TIP3   OH269981   4.394   0.217  16.467 -0.3379  0.2756  0.2591
16189TIP3    H169982   4.343   0.296  16.483  1.8079  1.4115  1.6953
16189TIP3    H269983   4.403   0.177  16.554 -0.2169 -0.8095 -0.2502
16190TIP3   OH269984   2.654   0.943   4.677 -0.3425  0.2177 -0.1647
16190TIP3    H169985   2.664   1.025   4.727 -2.4224 -0.3204  1.1931
16190TIP3    H269986   2.601   0.967   4.602 -2.0043 -0.1148  0.8854
16191TIP3   OH269987   1.574   0.930  12.013 -0.0721  0.5713  0.0720
16191TIP3    H169988   1.481   0.910  12.008 -0.2262  1.3573 -0.2818
16191TIP3    H269989   1.581   0.998  12.081  0.3163  0.0723  0.5339
16192TIP3   OH269990   3.476   5.359   3.784  0.3879 -0.3249  0.3771
16192TIP3    H169991   3.454   5.280   3.833  0.7761 -0.4375  0.3778
16192TIP3    H269992   3.431   5.348   3.700  1.1134 -0.9572  0.0515
16193TIP3   OH269993   2.757   4.772   6.504 -0.5751  0.2803  0.5170
16193TIP3    H169994   2.687   4.728   6.455 -0.4632  0.3562  0.2841
16193TIP3    H269995   2.815   4.702   6.533 -1.7249  0.0538  2.2870
16194TIP3   OH269996   1.253   1.797  11.331 -0.1274  0.1163 -0.2013
16194TIP3    H169997   1.298   1.833  11.254  0.8866 -2.1345 -0.7018
16194TIP3    H269998   1.166   1.775  11.300  0.1145 -0.3162 -0.5759
16195TIP3   OH269999   0.749   2.127   2.726  0.3539 -0.5674  0.5368
16195TIP3    H170000   0.690   2.189   2.683  1.0341 -1.1089 -1.2496
16195TIP3    H270001   0.715   2.041   2.702  0.7884 -0.8756  1.0198
16196TIP3   OH270002   4.546   5.008   3.935 -0.7113  0.8125  0.3961
16196TIP3    H170003   4.525   4.934   3.878  0.2965  0.1902  0.8352
16196TIP3    H270004   4.529   4.975   4.023  1.0323  0.6717  0.6803
16197TIP3   OH270005   3.373   4.665   4.166  0.2456 -0.2845  0.3174
16197TIP3    H170006   3.292   4.654   4.115  0.7949 -1.0578 -0.4107
16197TIP3    H270007   3.418   4.738   4.123 -0.7304  1.1426  1.6317
16198TIP3   OH270008   5.147   6.724   3.099 -0.1066  0.1218  0.7299
16198TIP3    H170009   5.166   6.752   3.009  1.6280 -1.3704  0.6105
16198TIP3    H270010   5.089   6.649   3.089  0.9933 -0.7456  0.8106
16199TIP3   OH270011   3.421   4.154   6.173 -0.1683 -0.1016  0.4474
16199TIP3    H170012   3.340   4.186   6.213 -0.7294  0.0043 -0.7709
16199TIP3    H270013   3.490   4.187   6.231 -0.8111  2.1233 -0.0003
16200TIP3   OH270014   0.332   0.949  12.794  0.8807  0.2805 -0.2055
16200TIP3    H170015   0.363   0.860  12.777  0.7753  0.4061 -1.1059
16200TIP3    H270016   0.244   0.938  12.829 -0.8609  0.1127 -4.2807
16201TIP3   OH270017   3.393   0.499  12.965  0.2483  0.0079 -0.1825
16201TIP3    H170018   3.345   0.581  12.962  3.3641  1.9896  1.2166
16201TIP3    H270019   3.354   0.450  13.037  0.8580  1.9412  1.4960
16202TIP3   OH270020   5.373   2.261   4.206  0.1793  0.3302  0.3154
16202TIP3    H170021   5.343   2.222   4.124  0.8520  0.6079 -0.0658
16202TIP3    H270022   5.351   2.197   4.273  2.6875 -1.4521 -0.4837
16203TIP3   OH270023   2.691   0.139   2.577  0.1945  0.0712  0.0128
16203TIP3    H170024   2.721   0.204   2.513  0.7793  0.1873  0.4022
16203TIP3    H270025   2.718   0.055   2.539 -0.9832  0.0138 -0.7197
16204TIP3   OH270026   1.352   2.002  11.484  0.3946 -0.0575 -0.0308
16204TIP3    H170027   1.338   1.932  11.421  0.0003  0.8012 -0.9238
16204TIP3    H270028   1.437   1.983  11.524 -0.0970 -1.4947  0.3477
16205TIP3   OH270029   1.623   0.662  15.628 -0.4086 -0.1987  0.9019
16205TIP3    H170030   1.715   0.658  15.601 -0.9871 -1.2159 -1.0067
16205TIP3    H270031   1.585   0.730  15.573 -0.6764  0.6489  2.1173
16206TIP3   OH270032   2.883   6.552  13.310  0.2343  0.0125 -0.2985
16206TIP3    H170033   2.861   6.580  13.221  0.5122 -0.6725 -0.5849
16206TIP3    H270034   2.846   6.463  13.316  1.4992 -0.5151 -0.2338
16207TIP3   OH270035   5.535   2.472  12.069  0.4912  0.2352 -0.3265
16207TIP3    H170036   5.482   2.438  11.997 -0.6963 -0.4428  0.8383
16207TIP3    H270037   5.520   2.566  12.067 -0.1171  0.1392 -0.5238
16208TIP3   OH270038   1.472   2.819  10.785  0.0386  0.2043 -0.3338
16208TIP3    H170039   1.419   2.823  10.864 -2.2706 -0.8619 -1.7669
16208TIP3    H270040   1.472   2.908  10.750 -1.8375 -0.0236 -0.9503
16209TIP3   OH270041   1.568   4.590   4.473  0.1310 -0.4526  0.4646
16209TIP3    H170042   1.656   4.617   4.501  0.6748  0.2599 -1.8727
16209TIP3    H270043   1.563   4.498   4.499  1.6984 -0.5826  0.3771
16210TIP3   OH270044   4.234   2.009  13.500  0.0502 -0.5762 -0.4170
16210TIP3    H170045   4.157   2.023  13.556  0.0429 -0.0701 -0.5493
16210TIP3    H270046   4.271   1.926  13.530 -0.9861 -1.2067 -0.8579
16211TIP3   OH270047   1.062   0.304  15.880  0.0624 -1.2315 -0.4227
16211TIP3    H170048   1.140   0.342  15.921  0.4486  1.2279 -3.2576
16211TIP3    H270049   0.991   0.326  15.940  0.7374  1.4787 -0.5555
16212TIP3   OH270050   6.394   0.514   3.855 -0.3852 -0.0533  0.6109
16212TIP3    H170051   6.374   0.588   3.797  0.3155  0.6487  1.2526
16212TIP3    H270052   6.455   0.460   3.806 -1.0838 -0.3326  0.0448
16213TIP3   OH270053   5.607   5.298  17.169 -0.1459  0.2626  0.3019
16213TIP3    H170054   5.605   5.392  17.151  0.8825  0.0925 -0.7615
16213TIP3    H270055   5.551   5.259  17.102 -0.6337  0.1338  0.7887
16214TIP3   OH270056   1.103   6.583   1.356 -0.1451 -0.0846  0.3898
16214TIP3    H170057   1.026   6.529   1.335 -1.3534  1.4568  0.7501
16214TIP3    H270058   1.122   6.562   1.447  0.5422 -1.2784 -0.0204
16215TIP3   OH270059   2.336   5.791   1.742 -0.1395 -0.5754  0.3832
16215TIP3    H170060   2.253   5.829   1.771  0.0263 -0.7683  1.1235
16215TIP3    H270061   2.317   5.754   1.656 -0.8567 -0.7520  0.6157
16216TIP3   OH270062   1.763   3.559   5.683 -0.1421  0.1194  0.5304
16216TIP3    H170063   1.778   3.648   5.650 -0.8991  1.1525  2.9029
16216TIP3    H270064   1.820   3.551   5.759 -0.9115 -1.0415  0.9960
16217TIP3   OH270065   0.923   2.897   1.988  0.6027  0.1089 -0.1376
16217TIP3    H170066   0.870   2.927   1.915 -0.6352  0.0302  0.6991
16217TIP3    H270067   0.873   2.924   2.066  2.1917  0.7499  0.6829
16218TIP3   OH270068   5.838   2.649  12.687 -0.1830 -0.1483  0.0043
16218TIP3    H170069   5.813   2.578  12.746  0.5862  1.1336  1.9464
16218TIP3    H270070   5.909   2.694  12.733  0.9184  0.4831 -2.2246
16219TIP3   OH270071   6.186   3.079  11.496  0.1932 -0.1058 -0.9261
16219TIP3    H170072   6.110   3.075  11.439 -1.2860  0.8464  0.9320
16219TIP3    H270073   6.241   3.148  11.459 -0.0132 -0.5446 -2.0614
16220TIP3   OH270074   2.034   0.594  15.943  0.3982 -0.3606 -0.1786
16220TIP3    H170075   2.077   0.651  16.007 -1.0233  0.3518  0.1655
16220TIP3    H270076   2.025   0.510  15.987 -1.4593  0.3966  0.9510
16221TIP3   OH270077   6.339   1.933   2.028 -0.3230 -0.9077  0.2225
16221TIP3    H170078   6.420   1.882   2.029  0.0107 -0.3899  0.0297
16221TIP3    H270079   6.347   1.993   2.102  0.7144  1.0190 -1.3713
16222TIP3   OH270080   4.042   0.589   5.950  0.4596 -0.2983  0.2011
16222TIP3    H170081   4.110   0.563   6.011  1.8117 -0.4751 -1.3328
16222TIP3    H270082   4.021   0.509   5.902 -0.4836 -0.1345  0.3376
16223TIP3   OH270083   0.179   2.168   4.900  0.1448 -0.7765  0.0367
16223TIP3    H170084   0.201   2.158   4.808 -0.3268  0.6461 -0.2309
16223TIP3    H270085   0.238   2.107   4.945  0.9817 -0.8321 -1.1209
16224TIP3   OH270086   3.809   3.372   4.132 -0.4887 -0.2291  0.6649
16224TIP3    H170087   3.809   3.401   4.040  0.7883  0.4972  0.8849
16224TIP3    H270088   3.732   3.316   4.139 -0.4355 -0.5247 -0.9277
16225TIP3   OH270089   3.262   2.052   5.699  0.4600 -0.7863  0.9242
16225TIP3    H170090   3.180   2.019   5.737 -1.2947  2.2133 -0.1193
16225TIP3    H270091   3.304   1.974   5.661 -3.5076 -1.9449 -1.3857
16226TIP3   OH270092   5.860   0.319  15.857  0.1005  0.0828 -0.0097
16226TIP3    H170093   5.931   0.366  15.813  0.4407  0.3544  0.8112
16226TIP3    H270094   5.882   0.226  15.846  1.6372  0.1885  1.8913
16227TIP3   OH270095   6.381   1.871   1.534  0.0064  0.4994 -0.4220
16227TIP3    H170096   6.454   1.820   1.499 -0.7714 -0.1057 -1.1451
16227TIP3    H270097   6.373   1.841   1.625  0.5293  0.4374 -0.3906
16228TIP3   OH270098   3.676   3.720   2.119 -0.4166  0.3825 -0.2953
16228TIP3    H170099   3.633   3.804   2.099  1.1754  1.2354 -0.2582
16228TIP3    H270100   3.770   3.738   2.105  0.0006 -1.1926  0.4387
16229TIP3   OH270101   1.195   3.661   5.884  0.0889  0.0428  0.5373
16229TIP3    H170102   1.227   3.743   5.923  1.8444 -0.5256  0.3378
16229TIP3    H270103   1.202   3.597   5.955 -0.8934 -0.0271  0.5717
16230TIP3   OH270104   5.312   2.377   0.002  0.2005 -0.2333  0.2310
16230TIP3    H170105   5.373   2.309  -0.026  1.4714  0.7012  0.6753
16230TIP3    H270106   5.333   2.452  -0.054 -0.9314 -0.0935 -0.0020
16231TIP3   OH270107   4.242   6.084   1.798  0.3718 -0.1341 -0.0781
16231TIP3    H170108   4.153   6.116   1.816  0.4615  0.0384  0.0531
16231TIP3    H270109   4.284   6.081   1.884  0.9819  1.2227 -0.3154
16232TIP3   OH270110   5.086   6.166   4.695 -0.0614  0.1092  0.3017
16232TIP3    H170111   5.019   6.212   4.644 -1.0380 -1.3866  0.1911
16232TIP3    H270112   5.075   6.199   4.784 -1.6737 -0.9137  0.4938
16233TIP3   OH270113   4.050   0.168  13.380 -0.2695  0.2474  0.5624
16233TIP3    H170114   4.124   0.186  13.437  0.1487  0.6192 -0.0898
16233TIP3    H270115   4.020   0.255  13.352 -0.7189  0.0830  0.5235
16234TIP3   OH270116   4.341   5.601  16.537 -0.7380  0.2370 -0.2610
16234TIP3    H170117   4.266   5.651  16.571 -0.4135 -0.6288  1.8098
16234TIP3    H270118   4.395   5.584  16.614  0.2506 -1.4460 -1.2967
16235TIP3   OH270119   3.868   2.547  14.544  0.0590 -0.2362  0.1604
16235TIP3    H170120   3.865   2.474  14.605 -0.0584  1.5128  2.3164
16235TIP3    H270121   3.776   2.572  14.531  0.1237 -0.1870 -0.2166
16236TIP3   OH270122   6.063   5.815  12.643 -0.7602  0.9867  0.3479
16236TIP3    H170123   6.063   5.878  12.715  0.2526  0.3491  0.9121
16236TIP3    H270124   6.139   5.838  12.589 -0.2722  0.1457  0.6586
16237TIP3   OH270125   3.603   3.035  13.130 -0.1247  0.2881  0.2951
16237TIP3    H170126   3.597   3.047  13.035  0.4102 -5.0818 -0.5554
16237TIP3    H270127   3.513   3.018  13.158 -0.0640  0.3088  0.5036
16238TIP3   OH270128   3.193   5.779   5.316 -0.7029  0.1584  0.0122
16238TIP3    H170129   3.146   5.806   5.237  0.9178 -0.6638 -1.2562
16238TIP3    H270130   3.259   5.717   5.284 -0.7199 -0.9998  2.1447
16239TIP3   OH270131   3.056   5.090  14.107  0.3432  0.1736  0.0630
16239TIP3    H170132   3.078   5.052  14.192  1.2185  0.0280 -0.2180
16239TIP3    H270133   3.087   5.180  14.112  0.4161  0.1594 -0.1006
16240TIP3   OH270134   4.701   1.984  14.780  0.8649  0.2844  0.1313
16240TIP3    H170135   4.696   1.953  14.871  1.4971  0.4233  0.2202
16240TIP3    H270136   4.779   1.941  14.745  0.6334  0.2519 -0.3407
16241TIP3   OH270137   2.119   4.703   5.668 -0.0576 -0.8085 -0.7088
16241TIP3    H170138   2.192   4.681   5.726 -0.9779  0.7551  1.1005
16241TIP3    H270139   2.139   4.791   5.635 -1.1154 -0.3517 -0.1756
16242TIP3   OH270140   2.198   6.174   0.082 -0.3314  0.7677  0.2081
16242TIP3    H170141   2.224   6.082   0.077  0.2293  0.9654 -0.6910
16242TIP3    H270142   2.256   6.211   0.149  0.9898  0.9552 -1.0050
16243TIP3   OH270143   4.144   4.772   3.668 -0.0127 -0.7690 -0.5257
16243TIP3    H170144   4.196   4.798   3.745  0.5583 -2.1835 -0.4227
16243TIP3    H270145   4.053   4.783   3.696  0.2081  0.5878 -0.3071
16244TIP3   OH270146   3.056   5.984   2.337 -0.4304  0.1191  0.1349
16244TIP3    H170147   3.128   6.037   2.369  0.3347 -1.1931  0.6436
16244TIP3    H270148   2.990   6.047   2.308  0.8736  1.3295 -0.2353
16245TIP3   OH270149   5.643   4.572  11.970  0.1116  0.1606 -0.2848
16245TIP3    H170150   5.653   4.642  12.034 -0.1398 -0.3403  0.3120
16245TIP3    H270151   5.652   4.491  12.021  0.8911 -0.2398 -1.0405
16246TIP3   OH270152   3.442   5.683   5.520  0.6669 -0.0752 -0.0314
16246TIP3    H170153   3.435   5.774   5.548  2.7056  0.2838 -0.6063
16246TIP3    H270154   3.531   5.675   5.487 -0.6631 -1.3295 -3.4722
16247TIP3   OH270155   5.315   1.937   1.190 -0.2610  0.3417 -0.0512
16247TIP3    H170156   5.321   1.986   1.272 -2.1079  1.6554 -0.6770
16247TIP3    H270157   5.334   2.001   1.122 -0.1573 -0.4057 -0.7384
16248TIP3   OH270158   1.178   3.334  16.050 -0.1927  0.4264 -0.3893
16248TIP3    H170159   1.200   3.266  16.114  0.1427  0.7713 -0.1376
16248TIP3    H270160   1.193   3.416  16.096  0.3281  0.6768 -0.9949
16249TIP3   OH270161   2.570   3.389   2.509  0.4474 -0.2396  0.8679
16249TIP3    H170162   2.497   3.368   2.451  1.2183 -0.9398  0.1394
16249TIP3    H270163   2.529   3.435   2.583 -0.4532  1.1812 -0.4986
16250TIP3   OH270164   0.271   3.577   5.757 -0.2380 -0.3143 -0.0077
16250TIP3    H170165   0.288   3.484   5.740  2.5119 -0.2676  2.1112
16250TIP3    H270166   0.178   3.580   5.779  0.0989 -2.9377  2.0427
16251TIP3   OH270167   0.932   4.661   4.738 -0.5929 -0.0549  0.0082
16251TIP3    H170168   0.872   4.615   4.797 -0.2312 -0.1413  0.3113
16251TIP3    H270169   0.913   4.753   4.751  0.0591 -0.0314  0.8868
16252TIP3   OH270170   0.557   5.514   1.364  0.2834  0.2460  0.2919
16252TIP3    H170171   0.523   5.586   1.311 -0.4105  1.0720  1.8514
16252TIP3    H270172   0.565   5.550   1.452  2.6757 -0.7313  0.5109
16253TIP3   OH270173   3.640   0.015   4.739 -0.2069 -0.1103 -0.1695
16253TIP3    H170174   3.708   0.075   4.770 -0.8725  0.1239  0.8828
16253TIP3    H270175   3.638   0.027   4.644  0.2270  0.9353 -0.0527
16254TIP3   OH270176   4.432   3.969   3.568 -0.1521 -0.1691  0.2743
16254TIP3    H170177   4.344   3.971   3.604 -0.4663  2.0593 -0.5365
16254TIP3    H270178   4.424   3.920   3.487 -0.6413  0.0191  0.2096
16255TIP3   OH270179   5.061   1.435  16.879  0.4522  0.0817  0.4901
16255TIP3    H170180   4.991   1.390  16.925  0.7246 -1.1450 -0.2460
16255TIP3    H270181   5.130   1.368  16.869  0.6849  0.5136 -1.0320
16256TIP3   OH270182   2.232   5.760   0.148  0.9198 -0.1006  0.2790
16256TIP3    H170183   2.191   5.694   0.092  0.7133  0.1948  0.0818
16256TIP3    H270184   2.228   5.724   0.236  0.1750 -0.0368  0.2685
16257TIP3   OH270185   0.693   3.572  15.643 -0.2422  0.7374 -0.0174
16257TIP3    H170186   0.746   3.601  15.716 -0.4458  1.2856 -0.0856
16257TIP3    H270187   0.756   3.544  15.577 -0.0430 -3.5018  1.8173
16258TIP3   OH270188   0.186   3.243   3.625 -0.0565  0.7534  0.0878
16258TIP3    H170189   0.174   3.149   3.613  0.5062  0.7597 -0.5773
16258TIP3    H270190   0.221   3.274   3.541  0.7973  1.3653  0.6553
16259TIP3   OH270191   1.096   0.680  14.890  0.0396 -0.1506 -0.5712
16259TIP3    H170192   1.017   0.669  14.838 -1.5584  1.4595  1.3818
16259TIP3    H270193   1.083   0.622  14.965  0.1553  0.9840  0.3405
16260TIP3   OH270194   1.428   5.953   5.339  0.4634  0.7281 -0.7572
16260TIP3    H170195   1.509   5.957   5.389  0.0727 -0.0817 -0.0618
16260TIP3    H270196   1.365   6.002   5.391  0.8935  2.8192 -2.0925
16261TIP3   OH270197   2.567   6.353   5.559  0.3832 -0.4067 -0.1328
16261TIP3    H170198   2.631   6.283   5.571 -0.0926 -0.6148  1.2597
16261TIP3    H270199   2.498   6.314   5.506  1.7482  0.0494 -2.3416
16262TIP3   OH270200   3.532   5.952   6.348 -0.2675 -0.5270  0.2659
16262TIP3    H170201   3.507   6.006   6.424  1.8364 -0.6181  1.0485
16262TIP3    H270202   3.614   5.910   6.375 -1.6969 -3.9100 -0.4312
16263TIP3   OH270203   5.285   3.398  15.494 -0.2365 -0.3733 -0.4068
16263TIP3    H170204   5.317   3.473  15.445 -1.8079 -0.4230 -1.5300
16263TIP3    H270205   5.216   3.433  15.550  0.6699 -0.5564  0.8648
16264TIP3   OH270206   2.252   1.768  14.568  0.2453  0.2373  0.0638
16264TIP3    H170207   2.241   1.690  14.514  0.4625  0.0279  0.3170
16264TIP3    H270208   2.256   1.841  14.506  2.0337 -0.1558 -0.3041
16265TIP3   OH270209   3.732   3.502   6.715  0.1424  0.2381  0.0932
16265TIP3    H170210   3.822   3.490   6.745  1.2720  2.0343 -2.4131
16265TIP3    H270211   3.731   3.464   6.627 -1.1053  1.7039 -0.5443
16266TIP3   OH270212   0.254   1.624   0.890  0.1001  0.0462 -0.0152
16266TIP3    H170213   0.242   1.716   0.865  1.2303 -0.6705 -3.5681
16266TIP3    H270214   0.213   1.575   0.819 -1.1304 -2.2511  2.1953
16267TIP3   OH270215   3.529   5.343  15.642 -0.1553 -0.2660 -0.5497
16267TIP3    H170216   3.565   5.430  15.659 -1.5975  0.9157 -3.1810
16267TIP3    H270217   3.556   5.323  15.552 -0.8615 -2.0054 -0.3828
16268TIP3   OH270218   4.742   2.983   2.515  0.6235  0.1916 -0.4706
16268TIP3    H170219   4.681   3.032   2.460  1.7130  1.2500 -0.7568
16268TIP3    H270220   4.741   3.028   2.599 -1.3771 -1.6893  0.5650
16269TIP3   OH270221   0.462   2.390   1.802  0.0811  0.1221 -0.0854
16269TIP3    H170222   0.371   2.420   1.802 -0.5929 -1.8036 -2.3992
16269TIP3    H270223   0.472   2.341   1.884 -1.1617 -0.2708 -0.1695
16270TIP3   OH270224   6.556   4.331  14.632  0.1117 -0.4740  0.5808
16270TIP3    H170225   6.594   4.412  14.665 -1.2757  0.6262 -0.4545
16270TIP3    H270226   6.477   4.318  14.684 -1.1595  0.3497 -1.0915
16271TIP3   OH270227   0.460   2.858   2.933 -0.1051  0.8477  0.1832
16271TIP3    H170228   0.442   2.800   2.860  0.3180 -0.8927  1.4338
16271TIP3    H270229   0.470   2.945   2.893  0.0402 -0.0531 -1.7897
16272TIP3   OH270230   2.014   4.059   5.970  0.1317 -0.3672  0.3195
16272TIP3    H170231   2.042   4.122   6.037 -0.6466  0.1823  0.1417
16272TIP3    H270232   1.920   4.078   5.958 -0.1555 -1.7030  0.4127
16273TIP3   OH270233   5.477   1.493  11.861  0.5541  0.3557 -0.2166
16273TIP3    H170234   5.401   1.538  11.825 -0.4340 -2.2771 -1.5476
16273TIP3    H270235   5.515   1.556  11.923 -3.6150  1.1382  1.7041
16274TIP3   OH270236   5.064   6.285  16.469  0.1453  0.1795 -0.2371
16274TIP3    H170237   4.985   6.238  16.444  0.9856 -0.5912 -1.5132
16274TIP3    H270238   5.102   6.234  16.540  0.0121  0.0201 -0.2815
16275TIP3   OH270239   5.223   3.666   4.718  0.1382  0.2596 -0.4346
16275TIP3    H170240   5.167   3.635   4.790  1.1055  1.1235  0.7090
16275TIP3    H270241   5.233   3.590   4.661 -0.2280 -0.5786  0.6072
16276TIP3   OH270242   3.967   6.317  16.377 -0.7444  0.0136 -0.2900
16276TIP3    H170243   3.896   6.265  16.412 -0.8011  1.3470  1.6861
16276TIP3    H270244   3.924   6.392  16.336 -0.4717  1.6070  2.2455
16277TIP3   OH270245   5.502   5.601  12.096  0.5011 -0.2842 -0.8631
16277TIP3    H170246   5.489   5.574  12.005  1.4653  0.2343 -1.1626
16277TIP3    H270247   5.498   5.697  12.093  0.8230 -0.2573 -0.4035
16278TIP3   OH270248   5.954   2.776   3.393 -0.6912 -0.6205 -0.1878
16278TIP3    H170249   5.864   2.798   3.417 -0.5156  0.0765 -0.1681
16278TIP3    H270250   5.999   2.765   3.477 -0.3668  0.6422 -0.1830
16279TIP3   OH270251   3.433   3.154   1.156 -0.4566  0.2729 -0.2404
16279TIP3    H170252   3.447   3.212   1.231 -1.1380 -1.1383  1.0239
16279TIP3    H270253   3.338   3.145   1.150 -0.3372 -1.5632  0.2925
16280TIP3   OH270254   6.420   1.430  11.223  0.0457  0.4545  0.1794
16280TIP3    H170255   6.380   1.359  11.172 -0.4373 -0.3648  1.6600
16280TIP3    H270256   6.438   1.390  11.308 -0.5588  2.2157  1.1517
16281TIP3   OH270257   3.669   3.371   0.718 -0.3546 -0.1902  0.4316
16281TIP3    H170258   3.615   3.299   0.688  0.1569 -0.5509  0.3715
16281TIP3    H270259   3.635   3.448   0.672 -1.3505 -0.2657  1.0304
16282TIP3   OH270260   4.908   5.252  10.842 -0.9581 -0.3065  0.0770
16282TIP3    H170261   4.847   5.323  10.863 -1.5584 -0.8911  0.2870
16282TIP3    H270262   4.989   5.298  10.817 -1.1357  0.4493  0.8415
16283TIP3   OH270263   0.080   4.695  14.871  0.3224 -0.3022 -0.2737
16283TIP3    H170264   0.146   4.700  14.939 -0.3484 -1.4964  0.4839
16283TIP3    H270265   0.044   4.784  14.865 -0.1754 -0.3606  1.5030
16284TIP3   OH270266   1.592   1.407   0.261  0.0630 -0.3946 -0.3043
16284TIP3    H170267   1.561   1.333   0.314 -0.1046  0.1722  0.4091
16284TIP3    H270268   1.687   1.400   0.262  0.1025  0.1065  0.8244
16285TIP3   OH270269   4.773   4.523   0.456  0.0682 -0.0850 -0.0899
16285TIP3    H170270   4.806   4.571   0.380  2.8879 -2.1909 -0.2912
16285TIP3    H270271   4.774   4.586   0.528 -1.0937  1.4822 -1.4364
16286TIP3   OH270272   1.156   6.510  12.045  0.1115  0.4143  0.4413
16286TIP3    H170273   1.215   6.480  11.976  0.6053 -0.9826  1.4651
16286TIP3    H270274   1.103   6.433  12.067 -0.0546  0.8601  1.6103
16287TIP3   OH270275   2.074   1.683   1.253 -0.5579  0.0035  0.6818
16287TIP3    H170276   2.122   1.764   1.234  1.4192 -1.3386 -0.2119
16287TIP3    H270277   2.139   1.614   1.243 -1.7648 -1.5767  3.2406
16288TIP3   OH270278   5.734   4.001  16.651 -0.2930  0.5607  0.1005
16288TIP3    H170279   5.805   3.965  16.598 -0.1794 -0.0843  0.6889
16288TIP3    H270280   5.679   4.048  16.588 -0.4865 -0.7206 -0.6878
16289TIP3   OH270281   5.504   5.282  14.802 -0.0054  0.3378  0.3739
16289TIP3    H170282   5.492   5.204  14.748 -0.7459  2.0303 -1.9938
16289TIP3    H270283   5.443   5.346  14.766  2.3449  2.8263  0.6772
16290TIP3   OH270284   2.611   0.145  15.780  0.0254  0.1094  0.2135
16290TIP3    H170285   2.529   0.189  15.801  0.5116 -0.4292  3.4533
16290TIP3    H270286   2.659   0.208  15.726 -2.0619  0.8264 -0.8539
16291TIP3   OH270287   1.754   4.965  15.641  0.2458  0.1110  0.1217
16291TIP3    H170288   1.687   4.915  15.687  0.3155 -1.1642 -1.1128
16291TIP3    H270289   1.829   4.906  15.636  0.1349  0.0960 -1.8679
16292TIP3   OH270290   2.197   3.729  13.465  0.8300  0.0264 -0.5004
16292TIP3    H170291   2.167   3.687  13.546 -0.5528  1.7563 -0.1102
16292TIP3    H270292   2.226   3.816  13.492 -0.2541  0.8561 -1.9636
16293TIP3   OH270293   5.118   2.218  11.715  0.1373 -0.3212 -0.2734
16293TIP3    H170294   5.108   2.279  11.789 -0.0073 -0.4003 -0.2259
16293TIP3    H270295   5.096   2.132  11.752  1.0701 -0.5152 -0.1526
16294TIP3   OH270296   2.797   1.609   5.517  0.4956  0.4180 -0.8358
16294TIP3    H170297   2.717   1.565   5.489 -1.4547  1.9680  1.9478
16294TIP3    H270298   2.772   1.702   5.523  2.2928  0.8467  0.6387
16295TIP3   OH270299   3.142   0.722   1.467 -0.1152  0.5552 -0.2785
16295TIP3    H170300   3.096   0.796   1.429 -0.0946  0.1909 -1.0074
16295TIP3    H270301   3.216   0.707   1.408 -1.7297 -1.8847 -1.7329
16296TIP3   OH270302   3.161   3.821  16.907 -0.1881 -0.5104 -0.3552
16296TIP3    H170303   3.138   3.876  16.832  0.3913 -0.0753 -0.2166
16296TIP3    H270304   3.088   3.832  16.968  1.0469  2.0708  0.7386
16297TIP3   OH270305   2.612   2.770   3.822  0.0825  0.2253  0.0193
16297TIP3    H170306   2.534   2.823   3.838 -0.4058 -0.3805 -0.3092
16297TIP3    H270307   2.677   2.802   3.885 -1.5292 -1.5283  2.6964
16298TIP3   OH270308   0.644   1.582   3.527 -0.3997 -0.1694  0.1668
16298TIP3    H170309   0.671   1.499   3.487 -0.8287 -0.4216  0.3970
16298TIP3    H270310   0.679   1.579   3.615  1.1716  0.7071 -0.4182
16299TIP3   OH270311   4.520   0.878  13.882  0.2725  0.4486 -0.3817
16299TIP3    H170312   4.485   0.826  13.810  1.0327 -0.0018 -0.4320
16299TIP3    H270313   4.609   0.900  13.855  0.8305 -0.3698  0.7426
16300TIP3   OH270314   4.418   5.801  16.840  0.3791 -0.1480 -0.1374
16300TIP3    H170315   4.394   5.804  16.932  1.3617 -3.5386  0.3018
16300TIP3    H270316   4.370   5.727  16.804  1.8754 -0.3973 -1.7482
16301TIP3   OH270317   4.108   6.275   1.451 -0.0539 -0.1453  0.0273
16301TIP3    H170318   4.018   6.300   1.430 -0.4473 -0.9307  0.7320
16301TIP3    H270319   4.146   6.355   1.488 -0.1812  0.4445 -1.0910
16302TIP3   OH270320   0.292   0.920  17.041 -0.2035  0.0181  0.0867
16302TIP3    H170321   0.199   0.944  17.038 -0.4101 -0.9139 -1.5929
16302TIP3    H270322   0.293   0.834  17.083  0.1325  0.9784  2.1202
16303TIP3   OH270323   1.456   3.740  16.042  0.1453 -0.2836 -0.1588
16303TIP3    H170324   1.416   3.774  16.121 -0.3653 -0.4872 -0.3289
16303TIP3    H270325   1.491   3.816  15.997 -1.5196  0.1020 -0.8431
16304TIP3   OH270326   0.820   4.366   3.499 -0.1144 -0.2374  0.1600
16304TIP3    H170327   0.826   4.351   3.405 -0.1513  0.4234  0.0469
16304TIP3    H270328   0.730   4.341   3.521 -0.4786  0.7009 -0.1990
16305TIP3   OH270329   0.025   1.411   2.545  0.1817 -0.3480  0.0094
16305TIP3    H170330   0.056   1.322   2.529 -0.6327 -0.4395 -1.1300
16305TIP3    H270331  -0.063   1.401   2.579 -0.1378  0.0305 -0.6880
16306TIP3   OH270332   3.766   2.970  12.802 -0.5229 -0.5468  0.3430
16306TIP3    H170333   3.804   3.007  12.722 -0.7804 -0.1019  0.4229
16306TIP3    H270334   3.702   3.036  12.830 -1.3780 -1.2968  0.1848
16307TIP3   OH270335   4.047   0.720   4.308 -0.0146  0.9009  0.0112
16307TIP3    H170336   4.126   0.773   4.296  0.0178  1.0685  0.9309
16307TIP3    H270337   4.040   0.708   4.403 -0.6384  0.1927 -0.1160
16308TIP3   OH270338   4.762   3.604  11.010  0.2630 -0.6223  0.4197
16308TIP3    H170339   4.830   3.540  10.986  1.1437 -0.6567  2.8217
16308TIP3    H270340   4.775   3.677  10.948 -0.3197 -2.4430 -1.9117
16309TIP3   OH270341   2.333   2.605  15.465 -0.0024 -0.0800  0.2288
16309TIP3    H170342   2.263   2.543  15.484  0.1262  0.0752  1.2063
16309TIP3    H270343   2.373   2.624  15.550  2.3134 -1.4412 -0.5120
16310TIP3   OH270344   5.097   2.792   5.190 -0.0803  0.7586  0.1352
16310TIP3    H170345   5.049   2.862   5.144  0.1070 -0.4383 -1.9656
16310TIP3    H270346   5.042   2.714   5.178  1.2765 -0.1361 -0.3194
16311TIP3   OH270347   0.075   0.245  14.144 -0.3283 -0.0250 -0.0193
16311TIP3    H170348   0.082   0.217  14.053  0.6291 -1.7808  0.5616
16311TIP3    H270349   0.039   0.168  14.189 -0.8499  0.8508  1.0702
16312TIP3   OH270350   3.790   6.311  11.231  0.0257  0.4799  0.0959
16312TIP3    H170351   3.821   6.259  11.157  1.3638  1.2557  0.0991
16312TIP3    H270352   3.856   6.379  11.242 -2.2951  2.9670 -0.7211
16313TIP3   OH270353   5.726   5.783   2.080 -0.6511  0.2621  0.4185
16313TIP3    H170354   5.798   5.815   2.134 -0.9937  0.6145  0.6659
16313TIP3    H270355   5.685   5.861   2.045 -0.8148  0.0540  0.1419
16314TIP3   OH270356   2.079   4.960   4.003  0.0000  0.5786 -0.1139
16314TIP3    H170357   1.998   4.943   4.051  0.4455 -0.9817  0.0917
16314TIP3    H270358   2.050   4.974   3.913 -0.4888 -0.2658 -0.0964
16315TIP3   OH270359   1.323   5.567  15.589 -0.1650  0.4487  0.2764
16315TIP3    H170360   1.380   5.614  15.650  0.2829 -0.5331  0.6241
16315TIP3    H270361   1.382   5.531  15.523 -0.6952  1.8894 -1.0037
16316TIP3   OH270362   6.260   0.380  16.931 -0.1547  0.0075  0.7513
16316TIP3    H170363   6.321   0.369  16.858  0.6741 -0.8121  1.5527
16316TIP3    H270364   6.223   0.293  16.945  0.3195 -0.0192  1.8580
16317TIP3   OH270365   6.099   6.372   1.308 -0.0000  0.3072 -0.5057
16317TIP3    H170366   6.188   6.396   1.284 -0.1661  2.2546  0.7363
16317TIP3    H270367   6.050   6.377   1.227  0.3936  2.2812 -0.6332
16318TIP3   OH270368   5.982   0.315  11.624  0.0974 -0.0954 -0.5255
16318TIP3    H170369   5.889   0.336  11.635 -0.2996 -1.1708 -1.7468
16318TIP3    H270370   5.996   0.316  11.529  1.0415 -1.2051 -0.4058
16319TIP3   OH270371   0.124   3.473  14.093  0.1254  0.2318  0.2009
16319TIP3    H170372   0.189   3.423  14.043  0.1003  0.0460  0.3503
16319TIP3    H270373   0.137   3.563  14.066 -2.0075 -0.2253 -2.5501
16320TIP3   OH270374   2.646   4.248   0.143  0.1246 -0.0699 -0.2248
16320TIP3    H170375   2.642   4.300   0.063  1.4993 -0.4422 -0.5536
16320TIP3    H270376   2.690   4.305   0.207 -3.2551  1.1972  1.0722
16321TIP3   OH270377   6.441   5.770   6.559  0.4979  0.1114  0.5277
16321TIP3    H170378   6.486   5.784   6.476  0.3623 -0.2593  0.3887
16321TIP3    H270379   6.353   5.740   6.533  1.1667 -2.2253  0.8043
16322TIP3   OH270380   2.347   4.064   2.604  0.1761 -0.3383 -0.1879
16322TIP3    H170381   2.308   4.142   2.645 -1.2477  0.2701 -2.6298
16322TIP3    H270382   2.435   4.093   2.578 -0.1551  0.3043 -0.6169
16323TIP3   OH270383   5.232   4.926   0.717 -0.4406 -0.6171  0.5225
16323TIP3    H170384   5.257   4.856   0.657 -0.6459 -0.9251  0.7956
16323TIP3    H270385   5.264   5.006   0.676  1.9661 -1.0915  1.3715
16324TIP3   OH270386   1.006   4.077  11.449  0.1857 -0.5082 -0.2212
16324TIP3    H170387   1.046   4.020  11.384  1.1783  0.0585 -0.1107
16324TIP3    H270388   0.990   4.159  11.403 -1.8513 -1.0630 -0.5682
16325TIP3   OH270389   3.867   2.871   1.189 -0.2659 -0.0019 -0.5272
16325TIP3    H170390   3.962   2.875   1.202 -0.3642  0.9299 -0.0155
16325TIP3    H270391   3.845   2.779   1.201  0.4556 -0.0778  0.2677
16326TIP3   OH270392   0.280   3.576  14.620 -0.4675  0.0034  0.5173
16326TIP3    H170393   0.207   3.514  14.609  0.2050 -0.6674 -0.2443
16326TIP3    H270394   0.316   3.555  14.706  0.1073 -1.0737  0.0366
16327TIP3   OH270395   1.858   6.762  13.262  0.2908  0.3638 -0.7489
16327TIP3    H170396   1.821   6.761  13.174 -0.0683  1.0853 -0.6166
16327TIP3    H270397   1.839   6.850  13.294 -0.1215 -0.0936  0.2774
16328TIP3   OH270398   1.616   6.304  16.689  0.4896  0.2099 -0.4486
16328TIP3    H170399   1.707   6.329  16.703  0.7027 -0.2518 -0.9987
16328TIP3    H270400   1.598   6.330  16.598 -0.0575  0.7072 -0.2001
16329TIP3   OH270401   4.993   5.376   3.103 -0.2986 -0.3607  0.0271
16329TIP3    H170402   4.946   5.385   3.020 -0.3237  0.7352  0.1530
16329TIP3    H270403   4.965   5.292   3.138 -0.3820 -0.7770 -1.0203
16330TIP3   OH270404   1.085   4.359  16.660  0.3284  0.1459  0.1401
16330TIP3    H170405   1.056   4.440  16.703  0.3658  0.4220 -0.3548
16330TIP3    H270406   1.008   4.303  16.660  0.1772  0.3521  0.0797
16331TIP3   OH270407   3.217   2.038   0.363  0.1245  0.7751  0.3419
16331TIP3    H170408   3.182   2.092   0.293 -0.0218  1.0260  0.6078
16331TIP3    H270409   3.178   1.952   0.349  0.6115  0.6444 -0.2769
16332TIP3   OH270410   3.044   6.339  16.508 -0.3805  0.1200  0.1406
16332TIP3    H170411   3.111   6.370  16.447 -0.2349  1.0594  0.7567
16332TIP3    H270412   3.068   6.248  16.526  0.3948  0.2712 -0.1003
16333TIP3   OH270413   0.981   2.816  11.753  0.3075  0.0080 -0.0114
16333TIP3    H170414   0.991   2.837  11.845  1.1509 -1.0859  0.1546
16333TIP3    H270415   0.941   2.729  11.752  1.8247 -0.6955 -0.6566
16334TIP3   OH270416   1.779   5.799  11.361  0.1760  0.6055 -0.6534
16334TIP3    H170417   1.687   5.773  11.365 -0.0265  0.5487 -4.1179
16334TIP3    H270418   1.827   5.717  11.369 -0.1360  0.4096 -0.7668
16335TIP3   OH270419   0.432   0.193  15.935 -0.8981  0.2126  0.0909
16335TIP3    H170420   0.359   0.132  15.943  0.2776 -1.3436 -0.7915
16335TIP3    H270421   0.464   0.181  15.846  1.0473  0.1622  0.7597
16336TIP3   OH270422   2.119   3.453  13.531 -0.3210  0.0001  0.0639
16336TIP3    H170423   2.209   3.421  13.533 -0.8562 -1.4885  0.9856
16336TIP3    H270424   2.096   3.454  13.438  0.6381  0.3930 -0.1754
16337TIP3   OH270425   4.222   6.774   0.161  0.3975 -0.5006 -0.0941
16337TIP3    H170426   4.211   6.730   0.077  0.0726 -3.6135  1.4994
16337TIP3    H270427   4.133   6.800   0.186  0.6495  1.6341 -1.2717
16338TIP3   OH270428   6.094   0.047  11.224  0.1727  0.1453  0.2336
16338TIP3    H170429   6.159   0.057  11.155  1.1986  0.3011  1.2011
16338TIP3    H270430   6.057  -0.039  11.210  3.2982 -1.5701  1.9086
16339TIP3   OH270431   2.119   2.829   0.214  0.0829 -0.0220  0.2324
16339TIP3    H170432   2.168   2.779   0.279  2.4765  0.0462 -1.4446
16339TIP3    H270433   2.101   2.912   0.256 -1.1471 -1.1219  1.9179
16340TIP3   OH270434   3.240   6.440   3.656 -0.0240 -1.0777 -0.1255
16340TIP3    H170435   3.209   6.385   3.729 -4.2258  0.1515 -0.8274
16340TIP3    H270436   3.178   6.422   3.585  1.2774  1.1158 -1.8809
16341TIP3   OH270437   5.321   2.241  15.303 -0.0647 -0.6434  0.4117
16341TIP3    H170438   5.349   2.168  15.358  0.6583  0.8358  2.0675
16341TIP3    H270439   5.240   2.272  15.343  0.4876  0.4757  0.6827
16342TIP3   OH270440   3.532   2.274   0.396  0.1051 -0.1589  0.2112
16342TIP3    H170441   3.626   2.284   0.380 -0.1287  1.3764 -0.2326
16342TIP3    H270442   3.522   2.284   0.490  0.3273  0.1042  0.2057
16343TIP3   OH270443   6.253   3.645  12.463 -0.2611  0.2550 -0.4640
16343TIP3    H170444   6.314   3.708  12.501  1.3033 -0.7391 -1.2652
16343TIP3    H270445   6.197   3.619  12.536  1.2050  0.1235  0.6446
16344TIP3   OH270446   5.677   0.112  11.471 -0.0473  0.2789 -0.2452
16344TIP3    H170447   5.703   0.139  11.382  0.5094  1.3295  0.2167
16344TIP3    H270448   5.759   0.083  11.511 -0.2471  0.0816  0.0143
16345TIP3   OH270449   6.326   3.524   1.152  0.3996  0.1076 -0.4158
16345TIP3    H170450   6.359   3.596   1.099 -0.3497  1.6910  1.2160
16345TIP3    H270451   6.344   3.550   1.242 -0.6005 -1.3737  0.2344
16346TIP3   OH270452   0.001   3.271  12.212  0.3889  0.0510  0.1994
16346TIP3    H170453  -0.034   3.242  12.128 -0.3921  1.5885 -0.0184
16346TIP3    H270454  -0.077   3.286  12.267  0.8762 -0.6025  1.0931
16347TIP3   OH270455   3.657   2.014   2.530 -0.5277  0.4874  0.2146
16347TIP3    H170456   3.632   1.940   2.584 -1.2728  1.2817  0.9625
16347TIP3    H270457   3.606   2.088   2.564  0.8665  1.5470  0.0627
16348TIP3   OH270458   1.376   3.574   5.688  0.2313  0.5832 -0.2850
16348TIP3    H170459   1.294   3.611   5.722  0.9046  1.1517  0.7362
16348TIP3    H270460   1.430   3.560   5.766  1.2625  0.5943 -0.9954
16349TIP3   OH270461   6.566   5.871  12.170  0.4160  0.2427 -0.5054
16349TIP3    H170462   6.572   5.961  12.135 -1.9306  0.7707  0.3717
16349TIP3    H270463   6.532   5.820  12.097 -2.6210  0.9769  0.3276
16350TIP3   OH270464   1.518   1.513   1.549  0.1933 -0.0687  0.3663
16350TIP3    H170465   1.607   1.489   1.525  1.1230 -0.0253  3.5229
16350TIP3    H270466   1.522   1.608   1.560  0.2401 -0.2803  2.2943
16351TIP3   OH270467   1.027   3.653  12.542 -0.0555 -0.0381 -0.0935
16351TIP3    H170468   1.004   3.584  12.604  1.8349 -1.1031 -0.5545
16351TIP3    H270469   0.942   3.681  12.506 -0.9963 -0.7809  1.4863
16352TIP3   OH270470   6.407   4.538  13.947  0.4320 -0.6931 -0.5924
16352TIP3    H170471   6.466   4.557  14.020  1.1135 -1.0177 -1.0583
16352TIP3    H270472   6.413   4.615  13.891 -3.4175  1.5430  1.8272
16353TIP3   OH270473   1.523   0.356  17.039 -0.2410 -0.2972 -0.1931
16353TIP3    H170474   1.501   0.429  16.980 -2.2922 -0.6257  0.1194
16353TIP3    H270475   1.597   0.312  16.996 -0.5812  0.5042 -1.6465
16354TIP3   OH270476   5.896   5.710   5.065 -0.0728  0.2266  0.5219
16354TIP3    H170477   5.980   5.738   5.100  1.1563 -1.9382 -0.5688
16354TIP3    H270478   5.835   5.717   5.139  1.0820  1.6654  1.3545
16355TIP3   OH270479   4.612   3.277   0.151 -0.3438  0.0422 -0.2442
16355TIP3    H170480   4.562   3.335   0.209  0.5388  1.2706 -0.6907
16355TIP3    H270481   4.566   3.282   0.067  0.5219  1.1891 -0.6608
16356TIP3   OH270482   1.188   3.697   0.038  0.0772 -0.3321  0.1575
16356TIP3    H170483   1.155   3.618  -0.003  2.8668 -0.4137 -2.0283
16356TIP3    H270484   1.267   3.719  -0.011  1.0237  2.1096  2.6431
16357TIP3   OH270485   5.585   1.595   5.613  0.0677  0.2106 -0.1327
16357TIP3    H170486   5.620   1.681   5.639  1.4144 -0.4337  0.1805
16357TIP3    H270487   5.492   1.612   5.596  0.5061  1.9059 -0.9100
16358TIP3   OH270488   4.383   0.395  12.782 -0.2119 -0.1910  0.1758
16358TIP3    H170489   4.314   0.341  12.742 -0.0605 -0.3850  0.1774
16358TIP3    H270490   4.425   0.337  12.846  0.3898 -0.2762 -0.2953
16359TIP3   OH270491   5.174   3.708  16.387 -0.1741 -0.8348  0.0187
16359TIP3    H170492   5.155   3.667  16.472 -2.4071  1.4910  0.7287
16359TIP3    H270493   5.127   3.654  16.323  0.9628 -2.2049  0.3110
16360TIP3   OH270494   3.619   1.993   2.222 -0.5183 -0.3973 -0.7136
16360TIP3    H170495   3.638   1.985   2.315 -0.3921 -0.5710 -0.7528
16360TIP3    H270496   3.703   1.972   2.179 -0.3404  0.5753 -0.8408
16361TIP3   OH270497   2.410   3.174  16.029  0.4871 -0.0122  0.1977
16361TIP3    H170498   2.436   3.253  16.077  1.0708 -0.1299  0.0839
16361TIP3    H270499   2.365   3.208  15.951 -0.3916  0.1788  0.7888
16362TIP3   OH270500   0.636   5.879  16.242  0.0354 -0.2280  0.3712
16362TIP3    H170501   0.696   5.896  16.314  1.5376 -2.1581 -0.3781
16362TIP3    H270502   0.692   5.875  16.165 -1.4328  0.8505 -0.8007
16363TIP3   OH270503   6.223   4.604  14.246  0.3460 -0.2786 -0.9149
16363TIP3    H170504   6.229   4.512  14.270 -0.6047 -0.0266  0.3280
16363TIP3    H270505   6.167   4.605  14.169  1.6548 -0.8777 -1.9056
16364TIP3   OH270506   5.650   1.172  17.095  0.0918 -0.2925  0.0028
16364TIP3    H170507   5.587   1.109  17.059  0.1767 -0.3508 -0.0452
16364TIP3    H270508   5.703   1.119  17.156  0.4220 -0.3546 -0.3372
16365TIP3   OH270509   3.654   3.107  16.715 -0.5750  0.2226  0.1016
16365TIP3    H170510   3.575   3.160  16.711 -0.2733  0.6521 -0.2180
16365TIP3    H270511   3.677   3.105  16.808 -2.3350 -1.9582  0.5334
16366TIP3   OH270512   6.179   5.263   1.004 -0.0349  0.0183  0.3227
16366TIP3    H170513   6.177   5.359   1.004 -0.8850  0.0004 -0.0151
16366TIP3    H270514   6.240   5.241   0.934  3.7425  0.3622  3.3165
16367TIP3   OH270515   3.936   0.515   4.209  0.0123  0.3791  0.6401
16367TIP3    H170516   3.983   0.594   4.235 -0.1703  0.7913 -0.2951
16367TIP3    H270517   3.877   0.496   4.282 -0.6467  1.6482  0.4353
16368TIP3   OH270518   0.040   2.585  13.869 -0.4940 -0.1941 -0.0684
16368TIP3    H170519   0.000   2.647  13.931 -1.1809  0.3622 -1.0496
16368TIP3    H270520   0.005   2.611  13.784  0.3189 -1.0564 -0.6713
16369TIP3   OH270521   1.487   2.144  11.226  0.3389 -0.4626 -0.1478
16369TIP3    H170522   1.417   2.126  11.163 -1.2334  0.5505  1.2798
16369TIP3    H270523   1.447   2.202  11.291  1.5215 -2.5439  2.5325
16370TIP3   OH270524   1.858   5.763  15.975 -0.1294  0.4464 -0.1559
16370TIP3    H170525   1.807   5.843  15.985  0.7038  0.7559  1.9568
16370TIP3    H270526   1.940   5.781  16.022  1.9552 -0.0239 -3.4300
16371TIP3   OH270527   3.794   3.275   5.161  0.2538  0.0328 -0.1014
16371TIP3    H170528   3.733   3.213   5.200 -2.1624  3.5064  1.7828
16371TIP3    H270529   3.833   3.321   5.235 -0.0978  2.7237 -1.5349
16372TIP3   OH270530   5.979   3.848   1.205 -0.3018  0.3023  0.3658
16372TIP3    H170531   5.993   3.755   1.184  0.7835 -0.0612  2.5770
16372TIP3    H270532   6.066   3.883   1.220 -0.8092  1.3491  0.9175
16373TIP3   OH270533   5.763   3.084   0.174  0.6512 -0.2371  0.3612
16373TIP3    H170534   5.731   3.149   0.112 -1.3503 -2.1625 -0.7250
16373TIP3    H270535   5.714   3.100   0.254  1.4613  0.7183  0.6646
16374TIP3   OH270536   3.235   2.855   1.214  0.2977 -0.1818  0.3306
16374TIP3    H170537   3.286   2.882   1.138 -0.4300 -0.8767 -0.4221
16374TIP3    H270538   3.294   2.864   1.288  1.1323  0.1360 -0.3701
16375TIP3   OH270539   0.944   1.892   5.617 -0.6166 -0.0570  0.3097
16375TIP3    H170540   0.952   1.816   5.676  0.3746  0.9113  1.4575
16375TIP3    H270541   1.028   1.938   5.626 -1.3513  1.3815 -0.0871
16376TIP3   OH270542   2.839   4.140   5.061  0.2806 -0.3831  0.4538
16376TIP3    H170543   2.802   4.216   5.106 -1.4580 -0.9052 -0.0566
16376TIP3    H270544   2.842   4.166   4.969  0.0040 -0.7918  0.3248
16377TIP3   OH270545   3.688   1.318  13.103 -0.3613 -0.5647  0.2323
16377TIP3    H170546   3.696   1.230  13.068 -0.5551 -0.7632  0.6881
16377TIP3    H270547   3.762   1.366  13.065  0.2735 -1.1657  0.6995
16378TIP3   OH270548   6.430   5.925   4.775 -0.2250 -0.5888 -0.5961
16378TIP3    H170549   6.377   5.993   4.732 -1.2300 -0.5940  0.6229
16378TIP3    H270550   6.517   5.934   4.735 -0.7599  0.3849 -1.5607
16379TIP3   OH270551   6.558   4.960  15.708  0.3301 -0.0412  0.3375
16379TIP3    H170552   6.595   4.946  15.795 -1.2213  0.5417  1.1288
16379TIP3    H270553   6.516   4.877  15.685  1.3008 -0.4007 -0.1438
16380TIP3   OH270554   6.193   3.107  11.968  0.0835  0.1490 -0.5913
16380TIP3    H170555   6.240   3.029  11.940  0.6131 -0.1152  0.9847
16380TIP3    H270556   6.261   3.166  12.000 -0.2772  1.3915 -2.0224
16381TIP3   OH270557   3.138   3.706   0.430  0.0333 -0.1874 -0.4671
16381TIP3    H170558   3.199   3.729   0.360  2.1658 -2.9049  0.4104
16381TIP3    H270559   3.185   3.729   0.511 -1.3804  0.6067  0.1366
16382TIP3   OH270560   0.298   3.774   4.630  0.0356  0.4105 -0.2801
16382TIP3    H170561   0.279   3.866   4.613  0.3316  0.4358 -0.4943
16382TIP3    H270562   0.313   3.769   4.724 -1.9457  0.2146  0.0496
16383TIP3   OH270563   0.175   5.207  14.615  0.4758 -0.4724 -0.2923
16383TIP3    H170564   0.199   5.162  14.697  1.5388 -0.2400 -0.4662
16383TIP3    H270565   0.134   5.288  14.644 -0.3667 -1.0033  0.0197
16384TIP3   OH270566   6.745   0.470  10.687  0.0169  0.0388 -0.1105
16384TIP3    H170567   6.761   0.376  10.696  0.2507  0.2433  1.7530
16384TIP3    H270568   6.684   0.477  10.613  0.3191 -1.5334 -0.5265
16385TIP3   OH270569   1.588   4.851  12.378  0.8145 -0.1337 -0.1661
16385TIP3    H170570   1.557   4.797  12.306 -1.5371 -0.2886  0.9198
16385TIP3    H270571   1.510   4.896  12.411  2.0383  0.8702  1.5076
16386TIP3   OH270572   0.550   0.770   2.854 -0.4610 -0.0138 -0.4685
16386TIP3    H170573   0.556   0.738   2.944 -0.8682 -0.6411 -0.6665
16386TIP3    H270574   0.529   0.863   2.863  1.0313  0.2810  0.1136
16387TIP3   OH270575   1.662   1.704  16.879  0.2678 -0.0574 -0.0773
16387TIP3    H170576   1.624   1.783  16.918  0.3735  0.6259 -1.3283
16387TIP3    H270577   1.587   1.656  16.845  0.1170 -0.9645  1.5142
16388TIP3   OH270578   4.716   2.841  14.884  0.1754  0.0770  0.4044
16388TIP3    H170579   4.724   2.816  14.793 -1.0915  0.7540  0.0898
16388TIP3    H270580   4.806   2.850  14.915  0.6155 -1.0371 -0.5172
16389TIP3   OH270581   5.798   0.534  14.495 -0.0960 -0.0269  0.1591
16389TIP3    H170582   5.758   0.567  14.415 -1.7361 -0.4467  0.7925
16389TIP3    H270583   5.810   0.440  14.479  2.5615  0.4352 -0.8091
16390TIP3   OH270584   2.768   5.138   1.377 -0.1181 -0.0118  0.5073
16390TIP3    H170585   2.817   5.190   1.313  1.1929  0.0676  1.5477
16390TIP3    H270586   2.676   5.149   1.352  0.3828 -0.1340 -1.4594
16391TIP3   OH270587   4.743   4.494  16.916  0.3883 -0.2259  0.4423
16391TIP3    H170588   4.736   4.416  16.861 -0.2558 -0.6377  1.0959
16391TIP3    H270589   4.692   4.473  16.994  0.5398  0.6998  0.8025
16392TIP3   OH270590   1.041   6.127  14.717 -0.1229 -0.3766  0.0455
16392TIP3    H170591   1.081   6.214  14.719 -1.9379  0.4522  1.3574
16392TIP3    H270592   1.101   6.074  14.665  2.0885  1.1135  1.0344
16393TIP3   OH270593   6.043   2.257   5.136  0.1306  0.3989  0.5414
16393TIP3    H170594   6.008   2.189   5.193 -0.6774  1.5214  1.4140
16393TIP3    H270595   6.110   2.213   5.085  0.4415 -0.7738  1.9204
16394TIP3   OH270596   2.959   1.134  11.556  0.8923  0.2369 -0.2620
16394TIP3    H170597   3.012   1.187  11.496  1.1987 -1.1681 -1.2613
16394TIP3    H270598   2.872   1.133  11.517  1.0937 -0.6877 -0.7010
16395TIP3   OH270599   4.843   3.624  15.131  0.3683  0.1090 -0.4496
16395TIP3    H170600   4.936   3.602  15.134  0.1385 -0.7676  0.4001
16395TIP3    H270601   4.826   3.643  15.039  1.3280  0.0517 -0.6484
16396TIP3   OH270602   1.670   4.213  11.840 -0.3214  0.0069 -0.0381
16396TIP3    H170603   1.695   4.138  11.786 -2.8885 -0.8259 -0.1540
16396TIP3    H270604   1.722   4.204  11.920  0.8419 -0.7900 -0.8807
16397TIP3   OH270605   0.747   1.066   0.311 -0.4267 -0.5775  0.2751
16397TIP3    H170606   0.771   1.110   0.393  1.1306 -1.0930  0.1276
16397TIP3    H270607   0.792   1.117   0.243 -2.8864  0.7318 -0.4435
16398TIP3   OH270608   6.208   2.942  13.029  0.1317 -0.0303 -0.4199
16398TIP3    H170609   6.265   3.017  13.044  2.0459 -1.5058 -0.1337
16398TIP3    H270610   6.249   2.895  12.956  1.3508 -3.0846  2.1318
16399TIP3   OH270611   4.773   4.107   2.702  0.0435 -0.2698  0.0920
16399TIP3    H170612   4.784   4.079   2.793  0.3926  0.8781  0.4068
16399TIP3    H270613   4.802   4.031   2.651 -2.2816 -1.7612  0.9177
16400TIP3   OH270614   6.174   3.486   4.203 -0.1289  0.5283 -0.0844
16400TIP3    H170615   6.101   3.440   4.246  0.4035 -1.1187 -0.9095
16400TIP3    H270616   6.252   3.452   4.247  0.4172 -1.0949 -2.2732
16401TIP3   OH270617   3.843   5.123   4.431  0.0126  0.5828  0.1006
16401TIP3    H170618   3.855   5.035   4.465  1.0300  0.1671 -1.3265
16401TIP3    H270619   3.930   5.152   4.406 -0.6440  1.0251 -1.7801
16402TIP3   OH270620   4.702   6.420   5.969 -0.4612  0.2378  0.1988
16402TIP3    H170621   4.628   6.460   5.923 -1.3664 -0.9105  0.6235
16402TIP3    H270622   4.729   6.485   6.033 -1.0690  0.6964 -0.0117
16403TIP3   OH270623   6.210   4.889   4.120  0.1939 -0.0483 -0.4685
16403TIP3    H170624   6.120   4.920   4.108 -0.0869 -0.3246  0.7825
16403TIP3    H270625   6.238   4.861   4.033 -0.8172  0.3424 -0.9287
16404TIP3   OH270626   5.490   1.993   0.510  0.4524  0.1787 -0.4810
16404TIP3    H170627   5.441   2.075   0.509  1.7482  0.9602 -0.5870
16404TIP3    H270628   5.459   1.946   0.432  0.9481  1.3190 -1.3855
16405TIP3   OH270629   5.302   4.328  13.805 -0.3202  0.9954 -0.3829
16405TIP3    H170630   5.362   4.311  13.876 -1.4266  0.0808  0.3525
16405TIP3    H270631   5.312   4.422  13.786  1.3565  0.8268 -0.3212
16406TIP3   OH270632   2.120   2.901  11.759  0.0380  0.4560  0.9186
16406TIP3    H170633   2.147   2.979  11.709  0.5475 -0.3893 -0.1504
16406TIP3    H270634   2.170   2.907  11.840  0.6960  0.8359  0.4963
16407TIP3   OH270635   6.079   5.061  16.135 -0.0832 -0.1102  0.0630
16407TIP3    H170636   6.009   5.030  16.078 -0.4192 -0.6586  0.7702
16407TIP3    H270637   6.105   4.984  16.186  0.1701  0.3900  0.7025
16408TIP3   OH270638   4.761   3.447  11.587 -0.0437 -0.1941 -0.0855
16408TIP3    H170639   4.723   3.518  11.639 -0.1399  0.2821 -0.8032
16408TIP3    H270640   4.759   3.372  11.646 -0.3606  0.2830  0.5296
16409TIP3   OH270641   5.907   6.276   5.765  0.2437 -0.1561  0.1127
16409TIP3    H170642   5.865   6.215   5.826  0.6564 -0.9146 -0.3498
16409TIP3    H270643   6.000   6.271   5.787  0.2944  0.1886 -0.0279
16410TIP3   OH270644   0.712   5.797  11.255 -0.1477  0.2775  0.0480
16410TIP3    H170645   0.797   5.820  11.293 -0.5553 -0.4047  1.4004
16410TIP3    H270646   0.658   5.875  11.270  0.2255  0.6943 -0.7716
16411TIP3   OH270647   5.040   6.557  17.238 -0.1246  0.1340 -0.0788
16411TIP3    H170648   5.084   6.474  17.258 -1.2323  0.0719  2.2954
16411TIP3    H270649   5.110   6.616  17.212  1.0233 -0.8066  0.8094
16412TIP3   OH270650   2.202   4.680  15.239 -0.0234  0.2441  0.0577
16412TIP3    H170651   2.290   4.696  15.205  0.4999 -0.9809  0.7823
16412TIP3    H270652   2.144   4.732  15.183  1.0416  0.1377 -1.1661
16413TIP3   OH270653   6.669   3.869  14.631  0.2711  0.2344  0.3157
16413TIP3    H170654   6.622   3.895  14.710  1.1795 -0.4089  1.0689
16413TIP3    H270655   6.681   3.950  14.582 -0.4804  0.6031  0.7285
16414TIP3   OH270656   2.200   0.723   3.819  0.3704 -0.5384  0.4876
16414TIP3    H170657   2.191   0.814   3.846  1.0304 -0.5361  0.6995
16414TIP3    H270658   2.167   0.721   3.729 -1.2359 -0.4225  1.0576
16415TIP3   OH270659   2.878   1.686  12.155 -0.0134 -0.3096 -0.2172
16415TIP3    H170660   2.902   1.766  12.108  1.6682  0.6452  2.1475
16415TIP3    H270661   2.833   1.716  12.234  0.7223 -1.6496  0.7538
16416TIP3   OH270662   5.805   5.391  12.462 -0.0546 -0.2435  0.3294
16416TIP3    H170663   5.881   5.448  12.475 -1.4271  1.8498 -0.6113
16416TIP3    H270664   5.791   5.391  12.368 -2.3059  0.8634  0.6275
16417TIP3   OH270665   2.815   3.325  10.781 -0.5668  0.2010 -0.1835
16417TIP3    H170666   2.804   3.383  10.857  0.2530  1.5946 -1.1132
16417TIP3    H270667   2.856   3.380  10.715  1.5539 -1.8308 -0.6041
16418TIP3   OH270668   1.562   4.195  16.232 -0.7788  0.3716  0.1533
16418TIP3    H170669   1.486   4.146  16.263 -1.7092  1.3250 -0.5994
16418TIP3    H270670   1.532   4.285  16.228  1.2388  1.1923  2.5627
16419TIP3   OH270671   1.021   4.610  16.870 -0.5260 -0.0172 -0.1200
16419TIP3    H170672   1.089   4.642  16.928  0.7384 -2.6953 -0.0507
16419TIP3    H270673   1.025   4.667  16.793 -0.0083  1.4712  0.9842
16420TIP3   OH270674   5.175   2.684   1.235  0.5339 -0.0390 -0.8616
16420TIP3    H170675   5.233   2.760   1.243  1.3368 -0.6155 -1.1504
16420TIP3    H270676   5.101   2.705   1.291  0.2472  1.4259 -1.7447
16421TIP3   OH270677   3.927   2.404  17.171 -0.8013  0.5057  0.5020
16421TIP3    H170678   3.898   2.315  17.194 -0.3416  0.3912  0.6502
16421TIP3    H270679   3.849   2.458  17.181 -1.9925 -0.4677 -2.9751
16422TIP3   OH270680   4.052   2.282  13.618 -0.4687  0.0798  0.1850
16422TIP3    H170681   4.015   2.204  13.659 -1.2352 -1.6000 -3.5197
16422TIP3    H270682   4.147   2.269  13.623 -0.5877 -0.9723 -0.1088
16423TIP3   OH270683   5.969   1.086  15.180 -0.6389 -0.6910 -0.0050
16423TIP3    H170684   5.941   1.009  15.230  0.4442 -0.5224  0.8878
16423TIP3    H270685   5.887   1.129  15.155 -1.2128  0.0924  3.0330
16424TIP3   OH270686   2.705   0.100   1.929 -0.1376 -0.0476 -0.6476
16424TIP3    H170687   2.696   0.015   1.972 -0.1882 -0.4174 -1.3817
16424TIP3    H270688   2.651   0.159   1.981 -0.6338 -0.6078 -0.5260
16425TIP3   OH270689   2.721   3.670  14.983 -0.9359  0.0493  0.7300
16425TIP3    H170690   2.728   3.578  15.009 -2.6918 -0.0622  0.8927
16425TIP3    H270691   2.652   3.671  14.917 -1.4066  1.3406  1.2206
16426TIP3   OH270692   6.511   0.801  12.428  0.0790  0.0339  0.2848
16426TIP3    H170693   6.477   0.761  12.347  0.4083  0.5549 -0.1177
16426TIP3    H270694   6.512   0.895  12.408  1.4664  0.0513  0.4035
16427TIP3   OH270695   4.762   2.008   0.967 -0.6872 -0.2538  0.2635
16427TIP3    H170696   4.798   2.002   0.879  0.3865  1.9146  0.5221
16427TIP3    H270697   4.827   2.057   1.017 -2.4040  0.7370  1.6134
16428TIP3   OH270698   4.791   6.592  16.579  0.6894  0.1924  0.8877
16428TIP3    H170699   4.755   6.517  16.625  1.2122 -0.4336  0.2745
16428TIP3    H270700   4.884   6.572  16.568  1.0341  1.3427  1.5527
16429TIP3   OH270701   2.395   2.544  14.145 -0.3966  0.1344 -0.2203
16429TIP3    H170702   2.427   2.460  14.112  0.5398  0.6500 -0.6504
16429TIP3    H270703   2.454   2.608  14.106 -0.6388  0.9294  0.7181
16430TIP3   OH270704   5.271   1.061  11.031  0.5456  0.0510  0.3480
16430TIP3    H170705   5.269   1.149  10.994  1.6379  0.0829  0.3436
16430TIP3    H270706   5.252   1.003  10.957  0.3655  0.2497  0.2397
16431TIP3   OH270707   2.326   2.933  16.222  0.2976 -0.4901  0.4523
16431TIP3    H170708   2.382   3.006  16.196  0.7265 -1.0830 -0.3038
16431TIP3    H270709   2.254   2.974  16.270 -0.0108  0.5288 -0.8443
16432TIP3   OH270710   4.587   4.266  12.828  0.1489 -0.1490  0.2165
16432TIP3    H170711   4.647   4.312  12.887  0.5605  0.6310 -0.7718
16432TIP3    H270712   4.637   4.257  12.746 -1.6022  1.9911 -1.1754
16433TIP3   OH270713   5.127   5.243   1.568 -0.3130  0.3929  0.1344
16433TIP3    H170714   5.051   5.233   1.510  1.1028 -0.2519 -1.6398
16433TIP3    H270715   5.096   5.213   1.653 -1.3577 -2.2589 -1.1185
16434TIP3   OH270716   4.757   2.272  10.045  0.4045 -0.0132 -0.0483
16434TIP3    H170717   4.760   2.182  10.078  4.0391  0.2031  0.3675
16434TIP3    H270718   4.710   2.321  10.113 -0.7822 -1.3700  0.1460
16435TIP3   OH270719   1.618   5.598  14.763 -0.3477 -0.5166 -0.1359
16435TIP3    H170720   1.675   5.522  14.751  0.3347 -0.3436  1.8750
16435TIP3    H270721   1.532   5.560  14.780 -0.5001 -0.7950 -1.4528
16436TIP3   OH270722   5.607   1.340   5.558  0.0561  0.2344  0.0555
16436TIP3    H170723   5.597   1.435   5.552  2.4317  0.5253  0.3165
16436TIP3    H270724   5.700   1.327   5.578 -0.4856 -2.1013  1.1441
16437TIP3   OH270725   3.299   5.738  13.557 -0.4937  0.2993  0.3625
16437TIP3    H170726   3.386   5.715  13.525 -0.4598 -0.8752  1.3041
16437TIP3    H270727   3.252   5.766  13.478  0.4585  0.1078 -0.2819
16438TIP3   OH270728   6.564   4.662   2.413 -0.0032 -0.0677  0.3456
16438TIP3    H170729   6.526   4.750   2.423 -0.5166 -0.3671  1.0247
16438TIP3    H270730   6.587   4.657   2.320 -2.6961 -0.3149 -0.3298
16439TIP3   OH270731   5.277   2.417  12.606  0.2448 -0.4119  0.1311
16439TIP3    H170732   5.283   2.323  12.590 -0.5186 -0.3508 -0.5614
16439TIP3    H270733   5.341   2.455  12.545 -1.1598 -0.3265 -1.3216
16440TIP3   OH270734   3.328   0.729   2.041 -0.0402  0.3450 -0.0587
16440TIP3    H170735   3.375   0.732   1.958 -1.2392 -0.5340 -0.7865
16440TIP3    H270736   3.262   0.661   2.028 -0.8482  0.8676  1.2921
16441TIP3   OH270737   0.870   1.365  15.380  0.1963 -0.3218  0.4758
16441TIP3    H170738   0.851   1.294  15.442 -0.6004 -0.1338  0.4631
16441TIP3    H270739   0.939   1.331  15.324  0.4231 -0.7645  1.0180
16442TIP3   OH270740   0.084   1.042  13.306 -0.3437 -0.2280 -0.2496
16442TIP3    H170741   0.045   1.087  13.380  0.5482 -0.4479  0.3628
16442TIP3    H270742   0.111   0.956  13.340  1.6389  0.3125 -0.3599
16443TIP3   OH270743   3.083   0.197  12.679 -0.1691  0.5791 -0.4207
16443TIP3    H170744   3.034   0.279  12.680 -0.2528  0.5695  3.3462
16443TIP3    H270745   3.108   0.183  12.770  1.4663 -2.6391 -1.2921
16444TIP3   OH270746   5.158   3.821   1.905  0.2013  0.7126 -0.2408
16444TIP3    H170747   5.160   3.877   1.827  1.2321 -0.9330 -1.4014
16444TIP3    H270748   5.232   3.762   1.895  0.5843  0.7232  2.1892
16445TIP3   OH270749   2.867   3.190   0.454  0.0300 -0.0380  0.3814
16445TIP3    H170750   2.816   3.264   0.488  0.9713  0.0953  1.5332
16445TIP3    H270751   2.816   3.113   0.478  0.7870  0.0377  2.3511
16446TIP3   OH270752   4.406   1.527  10.682  0.3466 -0.1529  0.3629
16446TIP3    H170753   4.447   1.605  10.646 -2.2653  1.7076  1.2528
16446TIP3    H270754   4.427   1.529  10.775  1.5514 -1.3663  0.1321
16447TIP3   OH270755   5.670   4.704   3.222 -0.3550 -0.2476  0.6045
16447TIP3    H170756   5.630   4.617   3.211 -0.5408 -0.3113  1.6501
16447TIP3    H270757   5.743   4.689   3.282 -0.8444  0.4398  1.3837
16448TIP3   OH270758   3.561   4.588   2.657  0.0153 -0.3748  0.8383
16448TIP3    H170759   3.625   4.620   2.594 -0.4662 -0.2740  0.4017
16448TIP3    H270760   3.476   4.613   2.621 -0.1868  1.5897  2.5518
16449TIP3   OH270761   3.052   3.019   0.590  0.6947 -0.0878 -0.0909
16449TIP3    H170762   3.043   3.001   0.496  0.8371  0.8943 -0.2967
16449TIP3    H270763   3.004   3.100   0.604  2.6740  1.0799  0.2105
16450TIP3   OH270764   2.175   0.801  16.574  0.4450  0.2897 -0.1857
16450TIP3    H170765   2.140   0.756  16.651 -1.3377  1.9104 -0.0090
16450TIP3    H270766   2.247   0.745  16.545  0.7310 -0.6995  2.2519
16451TIP3   OH270767   5.345   4.709  15.612 -0.1899 -0.0733 -0.1708
16451TIP3    H170768   5.390   4.644  15.667  0.7447  2.1898  1.8099
16451TIP3    H270769   5.252   4.697  15.632  0.1279  0.5730  1.7417
16452TIP3   OH270770   1.530   4.872   5.017  0.2432 -0.4968 -0.2807
16452TIP3    H170771   1.528   4.786   5.059  2.3447 -1.5752 -2.2860
16452TIP3    H270772   1.602   4.918   5.060 -1.6987  0.7947  1.6941
16453TIP3   OH270773   5.549   5.589  14.730 -0.0941 -0.1365  0.1952
16453TIP3    H170774   5.456   5.571  14.745 -0.2821  0.4324 -0.2740
16453TIP3    H270775   5.567   5.552  14.644  0.3447 -1.0520  0.6667
16454TIP3   OH270776   2.094   0.588  12.183 -0.5613 -0.4616 -0.6137
16454TIP3    H170777   2.119   0.669  12.140 -1.7717  0.3107  0.1056
16454TIP3    H270778   2.035   0.615  12.253 -0.8817 -1.9527 -0.2816
16455TIP3   OH270779   1.273   6.102   1.700  0.1748 -0.1464  0.0782
16455TIP3    H170780   1.324   6.175   1.664  1.6112 -1.3630 -0.4474
16455TIP3    H270781   1.288   6.106   1.794 -0.7451  0.9683  0.1761
16456TIP3   OH270782   4.160   4.474  11.972 -0.5781 -0.2704  0.1889
16456TIP3    H170783   4.237   4.467  12.028  0.9163  0.6228 -1.6983
16456TIP3    H270784   4.146   4.568  11.962  1.1142 -0.3219 -3.4571
16457TIP3   OH270785   3.008   6.526   0.419  0.0810 -0.4488  0.0517
16457TIP3    H170786   2.945   6.467   0.461  1.5213 -1.4979  0.7921
16457TIP3    H270787   2.965   6.611   0.419 -1.0022 -0.9804  1.3220
16458TIP3   OH270788   3.240   5.001   2.808 -0.9648 -0.0644  0.2111
16458TIP3    H170789   3.150   4.972   2.817 -0.8775 -0.1987  0.6487
16458TIP3    H270790   3.281   4.979   2.891 -0.4993 -0.0996 -0.0268
16459TIP3   OH270791   6.129   5.735   2.795  0.0488 -0.3116  0.3089
16459TIP3    H170792   6.214   5.737   2.752  0.2040 -1.7629  0.5053
16459TIP3    H270793   6.115   5.642   2.816 -2.3964 -0.3780 -1.3623
16460TIP3   OH270794   0.168   2.311   5.174  0.3433 -0.1991 -0.0760
16460TIP3    H170795   0.163   2.295   5.080  0.4596 -0.1236 -0.0952
16460TIP3    H270796   0.207   2.398   5.181 -0.2095  0.0393  0.0281
16461TIP3   OH270797   2.705   3.263   4.129  0.3337  0.4466 -0.1083
16461TIP3    H170798   2.777   3.243   4.069 -1.3980 -0.2616 -2.0127
16461TIP3    H270799   2.672   3.178   4.156 -1.2516  0.7255 -1.0856
16462TIP3   OH270800   2.482   3.455  11.994  0.0728 -0.1744 -0.9190
16462TIP3    H170801   2.393   3.490  11.990 -0.5048 -1.6196 -1.1942
16462TIP3    H270802   2.498   3.443  12.088 -0.6940 -1.5082 -0.9358
16463TIP3   OH270803   0.405   1.782  11.454 -0.7537 -0.0890  0.1354
16463TIP3    H170804   0.309   1.786  11.452 -0.7267  0.4955 -2.4505
16463TIP3    H270805   0.432   1.874  11.461 -0.3570 -0.4034  3.4333
16464TIP3   OH270806   0.949   1.642   3.811 -0.3485  0.0885  0.3443
16464TIP3    H170807   1.015   1.575   3.791 -0.6374 -0.1085  0.0557
16464TIP3    H270808   0.866   1.598   3.798 -0.5408  0.0729  1.5796
16465TIP3   OH270809   6.212   0.609  13.906  0.3613  0.5710 -0.1214
16465TIP3    H170810   6.201   0.652  13.990  0.9501  3.4924 -1.4937
16465TIP3    H270811   6.123   0.587  13.878  0.2851 -2.3424  2.1498
16466TIP3   OH270812   3.904   2.811  11.988  0.2948 -0.5976  0.0796
16466TIP3    H170813   3.898   2.731  12.040 -0.6451 -0.2560  0.5031
16466TIP3    H270814   3.823   2.858  12.007  0.4008  0.0033 -0.9186
16467TIP3   OH270815   5.639   0.286   5.648  0.5934  0.2418  0.2360
16467TIP3    H170816   5.595   0.223   5.591 -0.5996  0.0462  1.3593
16467TIP3    H270817   5.584   0.364   5.645 -0.3703 -0.3152  2.3693
16468TIP3   OH270818   3.431   0.368   2.415  0.0428  0.2365  0.4814
16468TIP3    H170819   3.463   0.279   2.401  1.7352  0.7095  1.1892
16468TIP3    H270820   3.492   0.423   2.366 -2.8180  0.8403 -2.5984
16469TIP3   OH270821   4.943   2.148  10.988  0.1109 -0.1559 -0.2328
16469TIP3    H170822   4.995   2.215  10.944 -0.6787 -0.0629 -1.0299
16469TIP3    H270823   4.914   2.089  10.918 -0.0054 -0.7863  0.3360
16470TIP3   OH270824   2.624   4.056  10.512  0.6868 -0.2096 -0.5798
16470TIP3    H170825   2.570   4.109  10.570  1.8931  1.7966 -1.2528
16470TIP3    H270826   2.667   3.993  10.569  0.2710  0.3988  0.4109
16471TIP3   OH270827   1.766   0.240  10.950 -0.1170  0.0564  0.3086
16471TIP3    H170828   1.719   0.263  10.870 -0.9953  1.6636  1.2695
16471TIP3    H270829   1.797   0.151  10.934 -1.5467 -0.1886 -1.2291
16472TIP3   OH270830   3.105   0.403   0.712 -0.6688 -0.1250  0.4170
16472TIP3    H170831   3.199   0.425   0.711 -0.5707 -0.4206  1.7430
16472TIP3    H270832   3.085   0.392   0.805 -1.9431 -0.4206  0.1063
16473TIP3   OH270833   1.572   2.220   1.875  0.6426  0.7808 -0.3452
16473TIP3    H170834   1.575   2.238   1.969 -0.9058  0.8694 -0.2913
16473TIP3    H270835   1.628   2.143   1.864 -0.6650 -0.4038  0.9592
16474TIP3   OH270836   2.367   0.760  12.205  0.6987  0.0321  0.5279
16474TIP3    H170837   2.355   0.718  12.290 -0.2349 -1.5336 -0.3454
16474TIP3    H270838   2.369   0.687  12.142 -1.0343  1.2808 -1.0438
16475TIP3   OH270839   2.460   6.359  16.881 -0.5767  0.6041 -0.2040
16475TIP3    H170840   2.457   6.419  16.806 -0.3056 -0.3301 -0.9657
16475TIP3    H270841   2.424   6.277  16.848 -1.3923  0.4744  0.9657
16476TIP3   OH270842   1.283   4.419   4.766  0.1857  0.2924  0.0914
16476TIP3    H170843   1.350   4.360   4.802  1.1489  0.7547 -0.8965
16476TIP3    H270844   1.317   4.507   4.785  0.6598  0.5452 -1.8052
16477TIP3   OH270845   0.799   2.529   4.256 -0.7850  0.1050 -0.3581
16477TIP3    H170846   0.824   2.445   4.296  1.4717  2.0136  2.4196
16477TIP3    H270847   0.748   2.574   4.323 -0.8116  1.5302 -1.3129
16478TIP3   OH270848   6.635   1.758  16.170  0.2876 -0.1618 -0.0347
16478TIP3    H170849   6.642   1.748  16.075 -2.3402 -1.9211 -0.1089
16478TIP3    H270850   6.605   1.848  16.183 -0.3765 -0.2520 -0.9361
16479TIP3   OH270851   3.833   1.407  12.703 -0.7492  0.4054 -0.1122
16479TIP3    H170852   3.876   1.331  12.666 -1.0734  0.0812  0.1780
16479TIP3    H270853   3.904   1.459  12.741 -0.5538  0.1353 -0.1063
16480TIP3   OH270854   6.192   3.650   1.430  0.1874  0.0804 -0.5927
16480TIP3    H170855   6.185   3.556   1.447  2.8010 -0.5658 -2.8461
16480TIP3    H270856   6.123   3.689   1.484 -0.5061 -3.0511  0.8847
16481TIP3   OH270857   5.808   4.604   0.074 -0.4923  0.3126 -0.3118
16481TIP3    H170858   5.888   4.612   0.126 -0.0182  0.8677 -1.1213
16481TIP3    H270859   5.828   4.534   0.011  0.0060  1.6587 -1.6752
16482TIP3   OH270860   1.588   4.874  14.294 -0.1163 -0.0346 -0.1631
16482TIP3    H170861   1.498   4.842  14.295 -0.6887  1.4401 -1.4639
16482TIP3    H270862   1.642   4.796  14.283 -1.2184 -0.9425  0.7745
16483TIP3   OH270863   5.295   2.538  11.604  0.2969  0.4175  0.1670
16483TIP3    H170864   5.271   2.459  11.555 -0.0606  0.9463 -0.5082
16483TIP3    H270865   5.388   2.525  11.625 -0.6819 -1.9672  3.4098
16484TIP3   OH270866   0.495   2.725  11.541 -0.1045 -0.3210 -0.0610
16484TIP3    H170867   0.482   2.767  11.456  1.1691 -0.0485 -0.1206
16484TIP3    H270868   0.531   2.793  11.597 -2.3255 -0.0952  1.1334
16485TIP3   OH270869   5.374   4.375  11.684  0.3229 -0.2825  0.0316
16485TIP3    H170870   5.288   4.414  11.665  0.9101  1.3973  0.6814
16485TIP3    H270871   5.376   4.368  11.780  1.1269  0.2596  0.0664
16486TIP3   OH270872   1.972   4.206  15.660  0.0868  0.0672  0.1065
16486TIP3    H170873   1.944   4.115  15.672  0.4450 -0.1534 -0.7022
16486TIP3    H270874   2.012   4.207  15.573  0.5507  0.8856  0.3289
16487TIP3   OH270875   5.016   6.443  12.614  0.6048 -0.2194 -1.0160
16487TIP3    H170876   5.059   6.373  12.663 -1.1201  0.1827  1.1543
16487TIP3    H270877   5.087   6.496  12.579  1.8836 -1.1858  0.1040
16488TIP3   OH270878   4.429   4.418  13.894  0.5050  0.2885  0.0701
16488TIP3    H170879   4.494   4.448  13.830 -1.3110  5.4586  0.4340
16488TIP3    H270880   4.364   4.370  13.841  1.0391  1.1205 -1.3741
16489TIP3   OH270881   4.775   6.175   5.907  0.2810 -0.0024  0.9411
16489TIP3    H170882   4.850   6.118   5.919  0.3782 -0.5246 -1.8764
16489TIP3    H270883   4.811   6.264   5.911  0.6529 -0.1874  1.9032
16490TIP3   OH270884   5.064   5.500   4.638  0.8560  0.0786  0.1375
16490TIP3    H170885   5.103   5.491   4.725 -0.5572  0.8155  0.8788
16490TIP3    H270886   5.006   5.424   4.631  2.9176 -1.4215 -1.2589
16491TIP3   OH270887   5.105   6.254  12.794  0.1852  0.0719 -0.0451
16491TIP3    H170888   5.137   6.295  12.874 -1.5882 -0.1586  0.8088
16491TIP3    H270889   5.046   6.184  12.825  1.8892 -2.0703 -1.4857
16492TIP3   OH270890   1.545   2.894  16.979 -0.3842  0.1635  0.8939
16492TIP3    H170891   1.516   2.812  16.939 -0.0163  0.8939 -0.9345
16492TIP3    H270892   1.637   2.878  17.001 -0.0601  0.3530 -0.2681
16493TIP3   OH270893   3.685   4.523  15.579  0.4061  0.5811 -0.4678
16493TIP3    H170894   3.613   4.565  15.532  1.6012  2.0116 -1.0916
16493TIP3    H270895   3.682   4.561  15.667 -0.7654 -0.7955  0.0943
16494TIP3   OH270896   5.913   3.712  14.586 -0.0176 -0.0299 -0.2037
16494TIP3    H170897   5.829   3.683  14.553 -0.2303  0.5908 -0.2127
16494TIP3    H270898   5.944   3.639  14.640 -0.0969 -0.6621 -1.0031
16495TIP3   OH270899   2.841   6.113   1.690  0.8169 -1.0915 -0.1462
16495TIP3    H170900   2.839   6.157   1.605  0.3328 -0.5620  0.1388
16495TIP3    H270901   2.752   6.123   1.725  1.6777  1.0100  1.5860
16496TIP3   OH270902   2.132   6.310   4.238  0.1073  0.0119  0.0199
16496TIP3    H170903   2.113   6.217   4.235 -0.9579  0.1585  1.5331
16496TIP3    H270904   2.185   6.327   4.160 -0.7155 -1.6158 -0.9036
16497TIP3   OH270905   6.413   5.076  13.001 -0.2648 -1.1751  0.7243
16497TIP3    H170906   6.336   5.100  12.949  0.0942  0.0087  0.7272
16497TIP3    H270907   6.385   5.085  13.092 -0.3377 -1.4550  0.7302
16498TIP3   OH270908   6.730   5.301  15.791  0.4658  0.1673  0.3627
16498TIP3    H170909   6.651   5.341  15.756  0.0937 -0.4787  0.4576
16498TIP3    H270910   6.768   5.252  15.718 -1.1544 -2.4884  1.2081
16499TIP3   OH270911   0.684   0.030   2.962  0.2750 -0.1620  0.2347
16499TIP3    H170912   0.605  -0.014   2.993  0.7731 -1.7328 -0.6895
16499TIP3    H270913   0.652   0.115   2.929 -1.1607 -1.0840 -0.8347
16500TIP3   OH270914   2.119   3.240   4.603  0.2524  0.1017 -0.2833
16500TIP3    H170915   2.115   3.301   4.529  2.1206  0.7556  0.1139
16500TIP3    H270916   2.185   3.278   4.661 -1.2829 -0.3437  1.7816
16501TIP3   OH270917   2.629   3.111  14.081 -0.4417  0.4621  0.1313
16501TIP3    H170918   2.639   3.051  14.155 -1.2767 -1.0963 -0.9656
16501TIP3    H270919   2.698   3.085  14.019  1.7979  3.3285  1.3315
16502TIP3   OH270920   3.450   2.238   3.097  0.1418  0.0058  0.2664
16502TIP3    H170921   3.469   2.204   3.185 -0.4677 -0.9668  0.0248
16502TIP3    H270922   3.404   2.167   3.053 -0.8282  1.0105 -0.3721
16503TIP3   OH270923   3.979   0.708  12.226 -0.1460  0.4433  0.5477
16503TIP3    H170924   3.898   0.721  12.177  0.0669  0.5800  0.2300
16503TIP3    H270925   4.007   0.619  12.204 -1.0593 -0.2060  1.9129
16504TIP3   OH270926   5.447   2.569  13.288 -0.0037  0.1783  0.4075
16504TIP3    H170927   5.480   2.597  13.203 -0.2177 -1.1129 -0.1110
16504TIP3    H270928   5.491   2.486  13.305  0.5194  0.7309  1.8600
16505TIP3   OH270929   3.811   3.628  12.683  0.1237 -0.0852 -0.6533
16505TIP3    H170930   3.781   3.542  12.656  1.3415 -0.3558 -1.1936
16505TIP3    H270931   3.771   3.688  12.620 -0.0544 -0.3408 -0.7824
16506TIP3   OH270932   3.895   2.036  16.869 -0.0912 -0.0953  0.0575
16506TIP3    H170933   3.876   1.964  16.929  1.2521 -0.1965  0.3806
16506TIP3    H270934   3.986   2.059  16.888 -0.4693  1.6261 -0.1022
16507TIP3   OH270935   3.927   1.021   4.252 -0.7207 -0.0515 -0.3777
16507TIP3    H170936   3.963   0.933   4.248  1.7676  0.9408 -0.6043
16507TIP3    H270937   3.939   1.048   4.343 -1.0081  0.2478 -0.4248
16508TIP3   OH270938   2.050   6.258   1.716 -0.9985 -0.0627 -0.6899
16508TIP3    H170939   2.110   6.185   1.723  0.4941  1.2355  0.2616
16508TIP3    H270940   2.067   6.295   1.629  1.0519  1.5212  0.3348
16509TIP3   OH270941   1.289   4.147  12.264 -0.2757  0.2227 -0.1025
16509TIP3    H170942   1.354   4.089  12.224  0.0382 -0.5614  1.5120
16509TIP3    H270943   1.221   4.088  12.297 -0.0702  0.7634  1.3367
16510TIP3   OH270944   0.596   1.199   5.631 -0.0051  0.0127  0.2553
16510TIP3    H170945   0.650   1.256   5.684 -0.6897  0.9295 -0.0073
16510TIP3    H270946   0.548   1.259   5.573 -0.2168 -0.8750 -0.4976
16511TIP3   OH270947   5.655   5.068  11.748 -0.0822  0.3259 -0.2326
16511TIP3    H170948   5.688   5.105  11.829 -1.8144  1.2472  0.0813
16511TIP3    H270949   5.701   4.984  11.738  2.4607  1.6695  0.0429
16512TIP3   OH270950   3.421   6.645  16.381 -0.2928  0.2280 -0.1691
16512TIP3    H170951   3.370   6.604  16.311  0.5776 -0.4809 -0.3849
16512TIP3    H270952   3.512   6.630  16.357  0.0207  0.9304  0.5581
16513TIP3   OH270953   2.876   1.329  13.514  0.5952  0.1771 -0.4968
16513TIP3    H170954   2.804   1.388  13.537  1.3902  1.1992 -0.6119
16513TIP3    H270955   2.834   1.257  13.467 -0.5600 -0.0598  0.8743
16514TIP3   OH270956   2.602   2.793  17.142 -0.4281  0.4777 -0.1998
16514TIP3    H170957   2.576   2.883  17.120 -1.0715  0.3734  0.1223
16514TIP3    H270958   2.616   2.795  17.236 -1.9522 -0.1308  0.0494
16515TIP3   OH270959   4.669   1.741  13.857  0.2589  0.0634 -0.4304
16515TIP3    H170960   4.651   1.690  13.936  0.3274 -0.7856 -0.9497
16515TIP3    H270961   4.585   1.781  13.833 -0.3674 -1.7409 -1.3585
16516TIP3   OH270962   2.987   0.299   1.642  0.0346  0.0837 -0.0492
16516TIP3    H170963   3.018   0.322   1.555  1.6931  1.3980  0.8692
16516TIP3    H270964   3.064   0.263   1.686 -1.3687 -2.8969  0.0908
16517TIP3   OH270965   0.054   5.828  14.213  0.2851 -0.0241  0.1568
16517TIP3    H170966   0.038   5.911  14.257  0.4028 -0.3808  0.8806
16517TIP3    H270967   0.011   5.763  14.268  0.5889 -0.4947 -0.1592
16518TIP3   OH270968   0.118   0.041   4.282 -0.0856 -0.4051 -0.0306
16518TIP3    H170969   0.108   0.001   4.369 -0.9272 -2.0156 -0.8307
16518TIP3    H270970   0.030   0.074   4.261  0.2173  0.3719 -0.0929
16519TIP3   OH270971   0.397   6.121  12.713  0.3217  0.3344  0.0997
16519TIP3    H170972   0.414   6.172  12.634 -2.9075  0.2437 -0.7473
16519TIP3    H270973   0.461   6.153  12.777  2.4680  0.9594 -2.2866
16520TIP3   OH270974   3.923   5.361   6.184 -0.3042  0.8750  0.1562
16520TIP3    H170975   3.999   5.419   6.176  0.9592 -0.8846 -0.9283
16520TIP3    H270976   3.950   5.296   6.249 -0.5830 -0.2208 -0.8239
16521TIP3   OH270977   5.065   3.033  17.085  0.5011  0.2571 -0.2199
16521TIP3    H170978   4.989   3.053  17.138 -0.2125  0.1640 -1.1960
16521TIP3    H270979   5.130   3.099  17.110 -0.1925  0.8587  0.0147
16522TIP3   OH270980   1.137   0.877  16.011 -0.4430 -0.0578  0.0505
16522TIP3    H170981   1.116   0.806  16.072 -0.9056  0.5193  0.5627
16522TIP3    H270982   1.188   0.834  15.942 -1.3518 -1.0419 -0.0346
16523TIP3   OH270983   4.553   5.327  11.551  0.2783  0.2141  0.1279
16523TIP3    H170984   4.467   5.344  11.514  0.1391 -2.0427 -0.6181
16523TIP3    H270985   4.578   5.410  11.592 -1.9906  1.0467 -0.1288
16524TIP3   OH270986   2.297   3.274   0.092  0.3139 -0.2247  0.0977
16524TIP3    H170987   2.213   3.230   0.106 -0.1976  1.0087  1.0168
16524TIP3    H270988   2.358   3.203   0.072 -0.7071 -1.2506  0.5162
16525TIP3   OH270989   0.005   5.945   0.352 -0.5923 -0.0423 -0.2953
16525TIP3    H170990   0.077   6.007   0.350  0.0264 -0.7199  0.4415
16525TIP3    H270991   0.047   5.859   0.349 -1.2461 -0.4894  2.1318
16526TIP3   OH270992   2.840   1.284  16.615  0.3137  0.4475  0.2356
16526TIP3    H170993   2.892   1.355  16.652 -1.2316  2.0032 -0.5120
16526TIP3    H270994   2.808   1.319  16.532 -0.9889 -0.8944  0.1484
16527TIP3   OH270995   3.004   4.458  12.971  0.0982 -0.0416 -0.1806
16527TIP3    H170996   3.054   4.500  13.041  1.6304 -0.7512 -0.8337
16527TIP3    H270997   3.005   4.520  12.899 -1.8584  0.8806  0.5428
16528TIP3   OH270998   2.482   3.479   5.004 -0.3810  0.1145 -0.2243
16528TIP3    H170999   2.524   3.487   5.090 -0.4383 -0.3905 -0.1474
16528TIP3    H271000   2.550   3.505   4.942 -0.8234  2.0091  0.0554
16529TIP3   OH271001   4.902   0.619  11.209  0.2486 -0.1502 -0.3615
16529TIP3    H171002   4.921   0.657  11.124  0.1721  0.9520  0.1053
16529TIP3    H271003   4.835   0.676  11.247 -0.4707 -1.2213  0.0080
16530TIP3   OH271004   1.624   0.548  10.467 -0.4570  0.0097 -0.4912
16530TIP3    H171005   1.712   0.583  10.484 -0.5753 -0.8684  2.2303
16530TIP3    H271006   1.624   0.462  10.509 -2.0970 -0.7110 -1.9127
16531TIP3   OH271007   5.817   4.179   5.112  0.2250 -0.4486 -0.5177
16531TIP3    H171008   5.759   4.115   5.154  0.4874 -1.1274 -1.1824
16531TIP3    H271009   5.772   4.203   5.031 -0.2485  0.8124  0.1076
16532TIP3   OH271010   2.652   0.138   4.414  0.4662 -0.0439 -0.4567
16532TIP3    H171011   2.608   0.059   4.445 -1.6924  0.4112 -2.2440
16532TIP3    H271012   2.710   0.108   4.344 -0.6591 -0.0386 -1.4186
16533TIP3   OH271013   6.705   5.009  11.522  0.3866  0.7446 -0.0922
16533TIP3    H171014   6.698   4.914  11.508  0.5780  0.4036  2.0174
16533TIP3    H271015   6.666   5.047  11.443  0.7542 -1.0743 -1.1917
16534TIP3   OH271016   1.647   3.500  11.448 -0.2388  0.0763 -0.1108
16534TIP3    H171017   1.583   3.551  11.497 -0.3786  1.4402 -1.6529
16534TIP3    H271018   1.604   3.480  11.365  0.2741 -1.5202 -0.0048
16535TIP3   OH271019   0.085   2.862  12.876 -0.0494  0.0337 -0.0668
16535TIP3    H171020   0.081   2.877  12.971 -1.5097  1.2289 -0.3044
16535TIP3    H271021   0.110   2.770  12.868  1.3630  0.2506  1.4625
16536TIP3   OH271022   5.618   1.879  14.489 -0.0541  0.2678 -0.1316
16536TIP3    H171023   5.546   1.889  14.426  0.2556  0.7097 -0.4219
16536TIP3    H271024   5.618   1.786  14.511 -0.6583  0.2517 -0.2009
16537TIP3   OH271025   6.136   3.734  16.376 -0.1501  0.0843 -0.1797
16537TIP3    H171026   6.096   3.648  16.393  0.8754 -0.2756  0.5018
16537TIP3    H271027   6.135   3.742  16.281  0.9599 -1.3053 -0.3377
16538TIP3   OH271028   6.593   4.444  11.830 -0.2112  0.0851  0.4767
16538TIP3    H171029   6.550   4.427  11.746  2.1197  1.6562 -1.1000
16538TIP3    H271030   6.554   4.526  11.861  0.5059  0.6860 -0.1897
16539TIP3   OH271031   6.151   5.154  14.161  0.4509 -0.3110 -0.4020
16539TIP3    H171032   6.070   5.108  14.140 -0.0872  0.5874 -0.3225
16539TIP3    H271033   6.220   5.093  14.136 -0.2615 -1.7631  1.1077
16540TIP3   OH271034   3.926   4.390   2.402 -0.3517  0.6851 -0.0608
16540TIP3    H171035   3.970   4.445   2.466 -0.7003  2.3927 -1.2611
16540TIP3    H271036   3.997   4.350   2.351 -0.0594 -1.1238  1.7234
16541TIP3   OH271037   6.372   5.454  11.304 -0.0671 -0.5655 -0.3399
16541TIP3    H171038   6.294   5.494  11.265  1.5106  1.3319 -1.6788
16541TIP3    H271039   6.398   5.387  11.241 -1.4252 -2.2229  0.8204
16542TIP3   OH271040   2.496   1.104   0.214  0.0347  0.5647  0.7900
16542TIP3    H171041   2.443   1.183   0.225  0.1998  0.6556  0.9339
16542TIP3    H271042   2.434   1.032   0.227 -0.0988  0.6703  0.7411
16543TIP3   OH271043   3.260   5.452  14.152 -0.0960  0.4571 -0.1689
16543TIP3    H171044   3.350   5.476  14.130  0.0150 -2.2261 -2.8569
16543TIP3    H271045   3.261   5.357  14.158 -2.5263  0.4627  0.9273
16544TIP3   OH271046   4.767   3.370   5.435  0.0711 -0.0853  0.1007
16544TIP3    H171047   4.810   3.436   5.488  1.2709 -2.0351  1.6377
16544TIP3    H271048   4.699   3.334   5.491 -0.7973  0.0663 -0.8380
16545TIP3   OH271049   4.372   0.502   1.295  0.7052 -0.4099  0.4626
16545TIP3    H171050   4.307   0.516   1.364  0.3535 -0.3452  0.1185
16545TIP3    H271051   4.434   0.439   1.333 -0.0670 -1.1752  0.4470
16546TIP3   OH271052   5.000   5.840  13.172  0.1840 -0.4184 -0.2396
16546TIP3    H171053   4.967   5.806  13.255  0.2992  0.7492  0.2949
16546TIP3    H271054   4.926   5.831  13.112  0.5074 -2.4631 -0.3681
16547TIP3   OH271055   2.194   1.068   1.911 -0.0521  0.5902  0.1019
16547TIP3    H171056   2.166   1.159   1.911 -0.6063  0.4183 -0.1841
16547TIP3    H271057   2.248   1.060   1.832 -1.4949  0.2145 -0.8644
16548TIP3   OH271058   3.882   1.745   1.005  0.4830  0.0871  0.3590
16548TIP3    H171059   3.842   1.723   0.921  1.4725 -0.6465  0.0694
16548TIP3    H271060   3.911   1.836   0.994 -0.4892  0.3971  0.3395
16549TIP3   OH271061   6.714   4.086  10.805  0.2031 -0.0764 -0.3496
16549TIP3    H171062   6.802   4.084  10.769  1.5205  0.7726  2.6772
16549TIP3    H271063   6.692   3.995  10.822  1.4280 -0.1488  0.9652
16550TIP3   OH271064   4.359   6.685   1.901 -1.0972 -0.0634  0.0595
16550TIP3    H171065   4.410   6.710   1.824 -0.2409  0.4708  0.7851
16550TIP3    H271066   4.287   6.633   1.866  0.6399 -1.9431 -0.8904
16551TIP3   OH271067   5.997   6.591   3.575  0.6086 -0.2329 -0.3082
16551TIP3    H171068   5.911   6.612   3.539 -0.8127 -2.6531  1.5057
16551TIP3    H271069   6.037   6.532   3.511  0.1656 -0.5548 -0.2877
16552TIP3   OH271070   2.622   4.491   2.017  0.0874  0.2259 -0.1169
16552TIP3    H171071   2.625   4.449   1.931 -0.9529  0.6427 -0.3697
16552TIP3    H271072   2.555   4.442   2.066  0.7441 -0.0735  0.4949
16553TIP3   OH271073   1.491   0.770   1.089 -0.6333  0.3382 -0.6606
16553TIP3    H171074   1.557   0.839   1.082  1.4581 -1.8211 -3.6605
16553TIP3    H271075   1.428   0.791   1.020 -0.7585  0.0361 -0.6371
16554TIP3   OH271076   0.765   6.505  14.597  0.6027 -0.5956  0.0178
16554TIP3    H171077   0.828   6.556  14.648  1.4720 -1.8382  0.1983
16554TIP3    H271078   0.723   6.569  14.539  1.0632  0.4682  0.8521
16555TIP3   OH271079   1.216   3.753  12.383  0.2294  0.2242 -0.3437
16555TIP3    H171080   1.200   3.710  12.299 -1.1225  0.1449 -0.0490
16555TIP3    H271081   1.146   3.722  12.440 -0.9208  2.9603 -0.1767
16556TIP3   OH271082   3.378   0.158   0.860 -0.2661  0.0938 -0.2152
16556TIP3    H171083   3.424   0.078   0.887  0.3987  0.5928  0.1525
16556TIP3    H271084   3.438   0.200   0.798 -0.2651  0.7134  0.2053
16557TIP3   OH271085   2.440   6.344  16.044  0.2877 -0.4335  0.2099
16557TIP3    H171086   2.346   6.322  16.038 -0.3427  2.1384  0.1295
16557TIP3    H271087   2.461   6.329  16.137 -1.0566  2.1086  0.9679
16558TIP3   OH271088   2.350   2.030  12.877  0.4503  0.1450  0.4523
16558TIP3    H171089   2.403   2.110  12.877 -0.7007  0.9337  1.3359
16558TIP3    H271090   2.304   2.033  12.961 -0.1097 -1.1117  0.1909
16559TIP3   OH271091   3.528   4.716  12.924  0.0770 -0.8182 -0.2085
16559TIP3    H171092   3.562   4.626  12.929  1.2689 -0.6685 -4.0894
16559TIP3    H271093   3.606   4.771  12.929 -0.3417 -0.1369 -1.0750
16560TIP3   OH271094   4.464   5.798   1.884  0.0933  0.2299  0.2397
16560TIP3    H171095   4.414   5.856   1.942 -1.0978 -1.8959  1.4329
16560TIP3    H271096   4.553   5.802   1.917 -0.2667  0.2790  1.2447
16561TIP3   OH271097   5.757   2.411  13.018 -0.2887  0.1999 -0.1877
16561TIP3    H171098   5.802   2.494  13.038 -1.1348  1.0833 -1.8575
16561TIP3    H271099   5.778   2.394  12.926  0.1795 -1.6526  0.2333
16562TIP3   OH271100   4.267   2.353  17.005 -0.0683  0.0877  0.3266
16562TIP3    H171101   4.269   2.394  17.091  1.2886  1.9311 -0.5417
16562TIP3    H271102   4.199   2.401  16.957 -2.3427 -2.3478  0.9984
16563TIP3   OH271103   0.496   6.655   0.727  0.2193 -0.5387 -0.0251
16563TIP3    H171104   0.466   6.743   0.704  2.3284 -0.1466 -1.4292
16563TIP3    H271105   0.445   6.596   0.672  0.1162 -0.0653 -0.4416
16564TIP3   OH271106   1.587   1.896  16.617  0.3058  0.1412  0.2523
16564TIP3    H171107   1.608   1.940  16.699  0.5080  0.8133 -0.1599
16564TIP3    H271108   1.556   1.965  16.559 -2.4117 -0.7223  0.6221
16565TIP3   OH271109   3.326   4.679   2.528 -0.2669  0.2418 -0.2548
16565TIP3    H171110   3.295   4.646   2.443  1.0203  0.6598 -0.9109
16565TIP3    H271111   3.263   4.746   2.553  0.1658  1.1798 -1.6290
16566TIP3   OH271112   4.965   4.409  12.267 -0.3823  0.0711  0.0004
16566TIP3    H171113   5.051   4.369  12.254 -0.3820  0.3390 -0.8657
16566TIP3    H271114   4.984   4.498  12.296 -0.3471  0.5080 -1.3279
16567TIP3   OH271115   0.232   5.590   3.561 -0.1923 -0.5800 -0.1189
16567TIP3    H171116   0.253   5.663   3.619  0.0365 -1.7386  1.3010
16567TIP3    H271117   0.311   5.578   3.507  0.2002 -0.4986  0.4318
16568TIP3   OH271118   2.844   5.531   5.017 -0.0136 -0.3031 -0.4527
16568TIP3    H171119   2.870   5.557   5.105 -1.7336 -1.5405  0.4488
16568TIP3    H271120   2.926   5.513   4.971  0.8847  0.2406  0.9172
16569TIP3   OH271121   5.536   5.485   3.751  0.1817  0.1260  0.0884
16569TIP3    H171122   5.479   5.423   3.798  0.2909 -0.7502 -0.9062
16569TIP3    H271123   5.500   5.571   3.773 -0.1439 -0.2913  1.2803
16570TIP3   OH271124   6.395   4.166  15.159 -0.1496  0.0696 -0.0784
16570TIP3    H171125   6.453   4.221  15.107  1.3135 -3.2369 -2.0684
16570TIP3    H271126   6.307   4.193  15.132  0.5507  0.2543 -2.2967
16571TIP3   OH271127   6.141   5.795  14.363 -0.4680 -0.5403  0.3801
16571TIP3    H171128   6.084   5.729  14.323 -0.4054 -0.2550 -0.1756
16571TIP3    H271129   6.209   5.810  14.297  0.4219 -1.1076  1.1590
16572TIP3   OH271130   5.835   4.794  13.830 -0.1098  0.0111  0.0235
16572TIP3    H171131   5.819   4.888  13.842  0.0820  0.4071 -2.5676
16572TIP3    H271132   5.758   4.763  13.782  0.9310 -0.6556 -1.2321
16573TIP3   OH271133   5.801   6.651   2.097 -0.3360  0.5391 -0.3512
16573TIP3    H171134   5.736   6.607   2.042 -0.6787  1.5307 -0.7378
16573TIP3    H271135   5.817   6.735   2.054  2.6815 -0.4836 -1.3917
16574TIP3   OH271136   0.575   6.215  16.462  0.0869 -0.0960 -0.2859
16574TIP3    H171137   0.484   6.221  16.432 -0.0368  0.0461  0.1045
16574TIP3    H271138   0.594   6.121  16.463 -0.4249 -0.1974  0.6985
16575TIP3   OH271139   0.821   1.497   3.328  0.0339 -0.2189  0.5772
16575TIP3    H171140   0.752   1.456   3.276 -0.8515  0.2602  1.3760
16575TIP3    H271141   0.887   1.522   3.263  0.1946 -2.0916 -0.0340
16576TIP3   OH271142   2.097   0.837  12.083 -0.3422 -0.0572 -0.3277
16576TIP3    H171143   2.107   0.913  12.140 -1.1401  0.1655 -0.4828
16576TIP3    H271144   2.160   0.853  12.012  0.1483  0.0044  0.1162
16577TIP3   OH271145   1.480   5.676   0.890  0.1582  0.3375 -0.3048
16577TIP3    H171146   1.497   5.769   0.876 -0.2005  0.3643 -0.5470
16577TIP3    H271147   1.523   5.632   0.817 -1.2084  0.4379 -1.1822
16578TIP3   OH271148   4.423   1.024  16.452 -0.1780  0.2641 -0.2403
16578TIP3    H171149   4.382   0.937  16.456 -1.7104  1.0009  0.8522
16578TIP3    H271150   4.461   1.036  16.539 -0.4656  0.8990 -0.1962
16579TIP3   OH271151   4.733   5.966   6.090  0.2428  0.4597  0.2808
16579TIP3    H171152   4.817   5.921   6.075  1.2546  1.4684  2.5892
16579TIP3    H271153   4.709   5.940   6.180 -2.2757 -0.3458 -0.5957
16580TIP3   OH271154   5.159   3.948  11.121  0.3469 -0.0028  0.2058
16580TIP3    H171155   5.135   3.943  11.029  0.5622 -0.7671  0.1950
16580TIP3    H271156   5.110   4.024  11.154  0.3165  0.3052 -0.5436
16581TIP3   OH271157   6.565   6.586  14.424 -0.4910 -0.3262 -0.5505
16581TIP3    H171158   6.567   6.674  14.461  1.0815  0.2371 -1.8814
16581TIP3    H271159   6.497   6.540  14.473 -1.8669  1.8488 -0.3642
16582TIP3   OH271160   4.865   0.076   4.030  0.3963 -0.3160 -0.2341
16582TIP3    H171161   4.877  -0.019   4.035  0.0892 -0.4569 -2.1037
16582TIP3    H271162   4.954   0.110   4.023  0.6107 -0.3395  1.8274
16583TIP3   OH271163   3.806   5.591  11.943  0.8838 -0.8362  0.3611
16583TIP3    H171164   3.714   5.574  11.923  0.3549  2.2614 -0.0947
16583TIP3    H271165   3.805   5.672  11.995  3.3364 -0.9075  0.5977
16584TIP3   OH271166   0.934   3.616   4.762  0.5848 -0.1629 -0.7140
16584TIP3    H171167   0.875   3.543   4.778 -0.7330  0.7959 -1.0396
16584TIP3    H271168   1.022   3.579   4.769 -0.0350 -1.3230  1.1699
16585TIP3   OH271169   3.061   3.236   3.640  0.4158  0.2908 -0.0181
16585TIP3    H171170   3.047   3.149   3.678  0.2075  0.3318 -0.0003
16585TIP3    H271171   3.100   3.286   3.712 -0.3161  0.4691  0.2533
16586TIP3   OH271172   5.298   1.782  15.189  0.3245 -0.1193 -0.2261
16586TIP3    H171173   5.380   1.789  15.139 -0.6490 -1.5601 -2.0962
16586TIP3    H271174   5.234   1.829  15.136 -0.1104  0.9288  1.1890
16587TIP3   OH271175   1.926   0.934  14.861 -0.5881  0.0745 -0.2103
16587TIP3    H171176   1.854   0.876  14.837  0.3803 -1.8410  1.3222
16587TIP3    H271177   1.998   0.908  14.803 -0.3600  0.2183  0.0065
16588TIP3   OH271178   5.059   1.591  13.568 -0.3614 -0.4386 -0.4908
16588TIP3    H171179   4.975   1.636  13.558 -1.3341 -1.3446  2.8944
16588TIP3    H271180   5.044   1.527  13.638  3.0304 -0.9016 -0.0969
16589TIP3   OH271181   2.130   0.519   5.379  0.1268  0.7877 -0.2208
16589TIP3    H171182   2.041   0.505   5.345  0.2596 -0.1857 -0.1840
16589TIP3    H271183   2.125   0.493   5.471  0.8312 -0.8224 -0.6239
16590TIP3   OH271184   3.583   5.565  13.163 -0.0189 -0.0300  0.1200
16590TIP3    H171185   3.531   5.543  13.086 -1.3349  1.0080  0.7008
16590TIP3    H271186   3.670   5.529  13.144 -0.3885  0.0102 -1.7388
16591TIP3   OH271187   4.635   5.942   6.354 -0.1187 -0.1196 -0.2683
16591TIP3    H171188   4.649   6.001   6.428  0.9428 -0.7460  0.0231
16591TIP3    H271189   4.547   5.964   6.323  0.1245  1.3750  0.0649
16592TIP3   OH271190   0.836   6.153   4.531  0.1232 -0.0202  0.1387
16592TIP3    H171191   0.851   6.062   4.504  0.8350 -0.2432  1.2285
16592TIP3    H271192   0.902   6.203   4.483  1.5743 -0.4511  1.6391
16593TIP3   OH271193   6.050   2.646   4.159 -0.7146  0.6260 -0.3700
16593TIP3    H171194   5.979   2.679   4.214  0.3231  1.5025  0.4701
16593TIP3    H271195   6.077   2.564   4.200 -1.2577  0.2724 -0.7119
16594TIP3   OH271196   6.727   2.617   2.637 -0.1254 -0.0239  0.0760
16594TIP3    H171197   6.732   2.628   2.542  0.2679 -1.5058 -0.0755
16594TIP3    H271198   6.808   2.656   2.670  0.6718 -1.2885 -0.3638
16595TIP3   OH271199   0.335   2.106   0.880  0.3832  0.6263  0.0173
16595TIP3    H171200   0.283   2.027   0.890  0.2022  0.7355 -0.0539
16595TIP3    H271201   0.271   2.177   0.884  0.6188  0.7998  0.7088
16596TIP3   OH271202   3.433   6.286   0.468  0.2174 -0.3366 -0.0257
16596TIP3    H171203   3.396   6.372   0.489  0.4343  0.3136 -2.1543
16596TIP3    H271204   3.357   6.235   0.438  0.4960 -0.0083 -1.3408
16597TIP3   OH271205   2.258   0.259  15.144 -0.8318 -0.3522 -0.1798
16597TIP3    H171206   2.338   0.227  15.103 -0.2430  0.4450  0.3411
16597TIP3    H271207   2.197   0.270  15.070 -0.5906 -1.3031 -0.5298
16598TIP3   OH271208   1.842   1.846  11.515  0.3616 -0.2981 -0.2470
16598TIP3    H171209   1.914   1.908  11.529  1.2089 -1.1715 -0.6988
16598TIP3    H271210   1.796   1.879  11.438  0.6136 -0.0485 -0.2918
16599TIP3   OH271211   5.687   2.040   2.160 -0.1637  0.5304  0.1205
16599TIP3    H171212   5.728   1.955   2.175 -0.7977  0.0164 -0.9748
16599TIP3    H271213   5.599   2.030   2.197 -0.6894  0.2663 -1.1955
16600TIP3   OH271214   5.130   0.917  11.209 -0.0782  0.0227  0.1661
16600TIP3    H171215   5.137   0.833  11.164 -0.0202  0.0804  0.0666
16600TIP3    H271216   5.167   0.980  11.148 -3.3764  0.6529 -1.2396
16601TIP3   OH271217   0.974   2.080   3.387 -0.0365  0.6429  0.1447
16601TIP3    H171218   0.928   2.161   3.365  1.3661  0.8747 -2.0755
16601TIP3    H271219   0.904   2.016   3.398 -0.9767  1.1840 -2.3348
16602TIP3   OH271220   5.020   6.265   3.680  0.3966  0.6027  0.0713
16602TIP3    H171221   5.112   6.248   3.656 -0.2171 -1.8196 -0.7982
16602TIP3    H271222   4.970   6.227   3.608 -1.3413 -0.5509  1.8271
16603TIP3   OH271223   3.547   3.548   0.539  0.1758 -0.5699  0.0849
16603TIP3    H171224   3.462   3.504   0.546  0.2182 -0.6949 -0.1774
16603TIP3    H271225   3.537   3.607   0.464 -0.4546  1.1411  1.4580
16604TIP3   OH271226   5.817   4.063  17.180 -0.1182  0.3435 -0.8078
16604TIP3    H171227   5.786   4.002  17.247 -1.2398  1.5119 -0.2364
16604TIP3    H271228   5.907   4.036  17.163 -0.1964 -0.6912  0.3275
16605TIP3   OH271229   5.447   5.838  11.211 -0.5699 -0.1810  0.6153
16605TIP3    H171230   5.430   5.873  11.123 -1.2063 -0.1681  0.7379
16605TIP3    H271231   5.513   5.770  11.198 -1.3376 -0.8122  0.0004
16606TIP3   OH271232   2.047   3.726   1.887  0.5041  0.2343 -0.5382
16606TIP3    H171233   2.060   3.732   1.982 -0.0764 -0.3481 -0.4186
16606TIP3    H271234   2.024   3.635   1.871  2.5156 -0.1260 -1.4902
16607TIP3   OH271235   5.550   1.533  10.679 -0.0816  0.0428 -0.2843
16607TIP3    H171236   5.470   1.494  10.644 -0.0437 -0.0165 -0.3061
16607TIP3    H271237   5.552   1.621  10.643 -1.7054  1.1186  2.1038
16608TIP3   OH271238   0.839   6.727  14.271  0.2273  0.8937 -0.1370
16608TIP3    H171239   0.860   6.649  14.219 -0.6130  0.7440 -0.2554
16608TIP3    H271240   0.855   6.801  14.212  1.5593  0.8490  0.1466
16609TIP3   OH271241   0.543   6.216  12.970 -0.4861 -0.5515 -1.1911
16609TIP3    H171242   0.595   6.215  13.050  0.6423  0.5190 -1.9039
16609TIP3    H271243   0.460   6.175  12.995 -0.0658 -0.4093  0.4667
16610TIP3   OH271244   2.869   4.261  14.220 -0.0520 -0.3682 -0.5209
16610TIP3    H171245   2.797   4.207  14.251  0.0283  0.0544  0.4288
16610TIP3    H271246   2.840   4.296  14.136 -1.4527  0.7731  0.4159
16611TIP3   OH271247   1.210   5.961  14.228  0.1250 -0.1437  0.3245
16611TIP3    H171248   1.305   5.960  14.215  0.2350 -0.4870  1.1548
16611TIP3    H271249   1.192   6.049  14.260 -0.2036  0.8617 -2.4889
16612TIP3   OH271250   1.733   2.781  13.343  0.4597 -0.1038  0.3567
16612TIP3    H171251   1.735   2.784  13.438  0.9243 -0.1185  0.3489
16612TIP3    H271252   1.668   2.847  13.318 -1.4461 -1.7776  0.7641
16613TIP3   OH271253   5.162   3.894  16.078 -0.0944  0.1450 -0.0371
16613TIP3    H171254   5.241   3.878  16.028 -0.7635  1.8306 -1.6844
16613TIP3    H271255   5.183   3.865  16.167  1.9233 -0.5849 -0.7424
16614TIP3   OH271256   4.423   0.781  13.596  0.2032 -0.5968 -0.1057
16614TIP3    H171257   4.375   0.742  13.668 -0.9257 -1.3496 -1.2366
16614TIP3    H271258   4.477   0.710  13.561 -0.0399 -0.5141 -0.6581
16615TIP3   OH271259   4.610   5.295  15.918  0.6545 -0.1552  0.1932
16615TIP3    H171260   4.664   5.301  15.840  2.1774 -2.6827  0.9852
16615TIP3    H271261   4.526   5.334  15.893  1.0417 -1.1463 -2.7635
16616TIP3   OH271262   0.255   1.695  16.318 -0.6314  0.3729 -0.4198
16616TIP3    H171263   0.257   1.636  16.394 -0.1191 -0.5712 -1.1585
16616TIP3    H271264   0.346   1.724  16.309 -0.8154  0.9941 -0.2803
16617TIP3   OH271265   4.817   4.069  13.014 -0.1607 -0.2944  0.2161
16617TIP3    H171266   4.866   4.111  13.084 -0.2624  0.1917  0.0004
16617TIP3    H271267   4.726   4.074  13.042 -0.3384  1.1136 -0.5667
16618TIP3   OH271268   4.309   0.989   0.868 -0.1041 -0.7612 -0.0754
16618TIP3    H171269   4.297   0.894   0.875 -0.6607 -0.5400  2.5929
16618TIP3    H271270   4.333   1.017   0.957 -1.2206  1.7632 -0.5100
16619TIP3   OH271271   0.093   0.134  11.249 -0.1148 -0.2284 -0.5432
16619TIP3    H171272   0.178   0.146  11.291  0.2877 -0.3455 -1.3112
16619TIP3    H271273   0.079   0.039  11.251 -0.4612 -0.1694  0.0258
16620TIP3   OH271274   2.925   1.830   1.659 -0.3194  0.6497  0.7031
16620TIP3    H171275   2.986   1.903   1.651 -0.7580  0.8834 -0.7631
16620TIP3    H271276   2.974   1.761   1.703  0.5990  1.2794  0.6703
16621TIP3   OH271277   4.066   3.431   0.600 -0.0132 -0.1204  0.1536
16621TIP3    H171278   4.061   3.456   0.508 -1.6021  1.4712  0.6387
16621TIP3    H271279   4.009   3.355   0.607  0.4134 -0.4790 -0.2467
16622TIP3   OH271280   1.524   3.783  10.665  0.2623  0.6467 -0.2123
16622TIP3    H171281   1.551   3.691  10.661 -0.6513  0.3609  0.0926
16622TIP3    H271282   1.606   3.833  10.658  0.9932 -0.2104  1.8665
16623TIP3   OH271283   0.067   6.350   5.690  0.1131  0.3847 -0.0100
16623TIP3    H171284   0.109   6.365   5.774  1.6858 -0.7085 -0.5676
16623TIP3    H271285   0.136   6.364   5.625 -0.3268 -1.4920 -0.9497
16624TIP3   OH271286   3.430   5.469  13.572  1.1000 -0.9643  0.0369
16624TIP3    H171287   3.417   5.431  13.485  1.5017 -0.7244 -0.1269
16624TIP3    H271288   3.342   5.495  13.600  1.3214  1.4852 -1.4475
16625TIP3   OH271289   1.218   0.286   1.717  0.0921  0.5210  0.3469
16625TIP3    H171290   1.235   0.226   1.790 -0.0364  0.1319  0.0588
16625TIP3    H271291   1.276   0.360   1.733 -0.4893  0.7859  1.2619
16626TIP3   OH271292   2.886   1.514  16.996 -0.5621  0.0838 -0.0491
16626TIP3    H171293   2.806   1.496  16.946 -0.4126  1.4664 -0.8134
16626TIP3    H271294   2.890   1.443  17.061 -1.7962 -0.6393 -0.7331
16627TIP3   OH271295   0.614   4.177   4.706  0.4098  0.4211 -0.1053
16627TIP3    H171296   0.552   4.242   4.671 -0.0330 -0.8251 -1.6331
16627TIP3    H271297   0.559   4.103   4.732  1.0596  0.1040  0.3841
16628TIP3   OH271298   3.010   5.917  13.096  0.0361  0.1964  0.3890
16628TIP3    H171299   2.929   5.868  13.085  0.5447 -1.0626  2.0767
16628TIP3    H271300   3.003   5.989  13.033 -1.4529 -1.0819 -0.9464
16629TIP3   OH271301   1.828   3.085  16.632 -0.6439  0.4118 -0.1544
16629TIP3    H171302   1.842   3.148  16.562 -0.1721 -1.4861 -1.8179
16629TIP3    H271303   1.750   3.036  16.604  0.6115 -1.5631 -0.2965
16630TIP3   OH271304   1.487   5.903   9.941  0.2104 -0.0327 -0.2730
16630TIP3    H171305   1.417   5.920  10.003 -0.9228 -1.9506 -0.9912
16630TIP3    H271306   1.520   5.817   9.965  0.1765 -0.5228 -1.9260
16631TIP3   OH271307   5.426   6.306  13.737 -0.7709  0.0978 -0.2369
16631TIP3    H171308   5.363   6.235  13.752 -1.1989 -0.3084 -3.5111
16631TIP3    H271309   5.392   6.352  13.660  1.7997  1.1883 -0.7640
16632TIP3   OH271310   0.071   4.321  15.453 -0.2851 -0.3647 -0.2139
16632TIP3    H171311   0.032   4.387  15.511  0.7028 -0.5681  0.6883
16632TIP3    H271312  -0.004   4.269  15.423 -0.7276 -0.7042  1.4455
16633TIP3   OH271313   5.614   4.357   0.635  0.3467 -0.1684 -0.4340
16633TIP3    H171314   5.686   4.352   0.697 -1.0287 -2.3678  1.0643
16633TIP3    H271315   5.656   4.369   0.549  2.3952 -0.0977  0.5605
16634TIP3   OH271316   3.656   6.257  13.854 -0.2062  0.2971 -0.3400
16634TIP3    H171317   3.744   6.244  13.890 -0.3429  0.3290  0.0124
16634TIP3    H271318   3.612   6.311  13.920 -0.3369  0.6881 -0.7460
16635TIP3   OH271319   5.253   6.076  14.262 -0.6933  0.2833 -0.2676
16635TIP3    H171320   5.276   6.134  14.334 -2.0725  0.1409  0.2966
16635TIP3    H271321   5.322   6.009  14.262 -0.0573  0.9278  0.1724
16636TIP3   OH271322   4.854   0.539   3.554  0.3813  0.6851  0.3208
16636TIP3    H171323   4.862   0.462   3.610 -0.3725  1.6278  1.7783
16636TIP3    H271324   4.793   0.513   3.485  0.9636 -0.3481  0.1917
16637TIP3   OH271325   2.345   2.025  12.064  0.4229  0.9471 -0.0890
16637TIP3    H171326   2.300   2.088  12.008  0.4984  1.7149  0.6987
16637TIP3    H271327   2.281   2.003  12.132  0.8818  1.2472  0.4420
16638TIP3   OH271328   4.432   4.045  11.778  0.3399  0.1239  0.0213
16638TIP3    H171329   4.407   4.028  11.869  0.0023 -0.3195 -0.1520
16638TIP3    H271330   4.495   4.117  11.783  1.9212 -1.2966  0.7799
16639TIP3   OH271331   3.434   4.972  15.623  0.8609 -0.1472  0.5412
16639TIP3    H171332   3.421   4.981  15.528 -0.5727  1.5814  0.8745
16639TIP3    H271333   3.397   4.886  15.644 -0.9685  0.4509 -0.1272
16640TIP3   OH271334   2.979   2.474  12.685  0.1762 -0.6166  0.1381
16640TIP3    H171335   2.959   2.562  12.717  0.8951  0.0804 -1.3032
16640TIP3    H271336   2.907   2.453  12.626  0.1593 -0.8731  0.2504
16641TIP3   OH271337   5.213   5.363  14.480  0.4587  0.0166  0.2015
16641TIP3    H171338   5.186   5.426  14.414  0.0196 -0.8434 -0.4467
16641TIP3    H271339   5.217   5.279  14.434  1.2301 -0.3999  1.0057
16642TIP3   OH271340   2.497   5.425  15.078 -0.0992 -0.1004 -0.3020
16642TIP3    H171341   2.550   5.496  15.113 -1.1394  0.6908 -0.3290
16642TIP3    H271342   2.510   5.430  14.983 -2.7058  2.1095 -0.5855
16643TIP3   OH271343   4.266   4.534  11.401 -0.3058 -0.0676 -0.5902
16643TIP3    H171344   4.263   4.518  11.495  2.4961 -0.7953 -0.6003
16643TIP3    H271345   4.208   4.468  11.363 -0.3182 -0.6816  0.4892
16644TIP3   OH271346   3.592   1.593  16.901  0.2597 -0.2624 -0.0517
16644TIP3    H171347   3.568   1.502  16.886  2.3570 -0.4657 -2.4663
16644TIP3    H271348   3.618   1.596  16.993 -2.7733 -1.3800  0.9028
16645TIP3   OH271349   6.253   0.127  12.319  0.1095  0.0754 -0.7480
16645TIP3    H171350   6.218   0.051  12.366  0.3363  0.2899 -0.2364
16645TIP3    H271351   6.341   0.101  12.292  0.0537  0.0269 -0.8897
16646TIP3   OH271352   0.573   1.769   6.748 -0.4432 -0.3116 -0.0867
16646TIP3    H171353   0.495   1.717   6.728 -0.2791 -1.0022  1.0715
16646TIP3    H271354   0.541   1.840   6.803 -0.7710  1.2062 -2.1377
16647TIP3   OH271355   1.534   0.637   0.672 -0.1135  0.3496 -0.2803
16647TIP3    H171356   1.489   0.601   0.595  0.2531 -0.6951 -0.0087
16647TIP3    H271357   1.466   0.642   0.739  0.1535 -1.1320  0.0987
16648TIP3   OH271358   4.705   1.791  14.287  0.8214  0.0192 -0.1143
16648TIP3    H171359   4.795   1.792  14.253  1.2756 -0.8789  1.0400
16648TIP3    H271360   4.697   1.707  14.332 -0.7630 -0.1047 -0.6100
16649TIP3   OH271361   0.542   3.472  12.627  0.2096 -0.0928 -0.5665
16649TIP3    H171362   0.498   3.432  12.552 -0.1083 -1.6656  0.4282
16649TIP3    H271363   0.476   3.470  12.696  0.1616  2.3038 -0.5366
16650TIP3   OH271364   6.734   6.460  11.105  0.9523  0.3053  0.0830
16650TIP3    H171365   6.670   6.390  11.094  0.1542  0.9633  0.5104
16650TIP3    H271366   6.708   6.527  11.042  0.4909  1.0965  1.0957
16651TIP3   OH271367   6.256   1.768  14.986  0.6367 -0.1804 -0.0738
16651TIP3    H171368   6.260   1.695  14.924  0.3657  0.6706 -1.1123
16651TIP3    H271369   6.264   1.846  14.931  2.9652  0.5433  1.1969
16652TIP3   OH271370   5.643   2.520  13.728  0.1434 -0.5112 -0.0857
16652TIP3    H171371   5.578   2.537  13.660  0.8348 -2.0605 -1.1576
16652TIP3    H271372   5.619   2.578  13.800 -1.6510 -0.1417 -0.9766
16653TIP3   OH271373   2.374   6.577  14.646 -0.3541  0.5227  0.4199
16653TIP3    H171374   2.437   6.514  14.679 -0.5007 -0.2519 -0.7525
16653TIP3    H271375   2.341   6.622  14.724  1.6908  1.0041  1.0405
16654TIP3   OH271376   4.638   4.829  11.688 -0.2502 -0.3050 -0.1802
16654TIP3    H171377   4.636   4.913  11.733  0.3629 -0.1935 -0.3506
16654TIP3    H271378   4.552   4.822  11.646 -0.0614  0.5509 -0.7276
16655TIP3   OH271379   6.618   4.524   5.731 -0.3536 -0.2517  0.1105
16655TIP3    H171380   6.644   4.527   5.639 -1.5123 -0.2133 -0.2190
16655TIP3    H271381   6.540   4.579   5.736 -0.6259 -0.7098  1.0088
16656TIP3   OH271382   4.730   6.378   0.174 -0.0536  0.0560 -0.0903
16656TIP3    H171383   4.641   6.412   0.184 -0.0071  0.0063  0.4836
16656TIP3    H271384   4.755   6.404   0.085 -1.6645 -2.3628 -1.3017
16657TIP3   OH271385   2.582   6.101   2.345 -0.1457 -0.2537  0.6159
16657TIP3    H171386   2.616   6.084   2.258 -1.2273  0.6164  0.0104
16657TIP3    H271387   2.490   6.121   2.331 -0.6080 -1.2778  2.0897
16658TIP3   OH271388   1.986   6.157  12.504  0.1519 -0.1697  0.0954
16658TIP3    H171389   1.952   6.084  12.452  2.3567 -0.8261 -0.5195
16658TIP3    H271390   2.025   6.215  12.439  0.8444  0.1814  0.8187
16659TIP3   OH271391   1.583   0.039  13.090  0.1687 -0.0544 -0.3043
16659TIP3    H171392   1.587   0.132  13.111 -0.2990  0.4089 -2.1266
16659TIP3    H271393   1.653   0.026  13.026 -0.3991 -0.7322 -0.8012
16660TIP3   OH271394   1.427   0.221  16.335  0.6903  0.3735  0.0840
16660TIP3    H171395   1.404   0.217  16.428 -0.2887  0.9420 -0.1292
16660TIP3    H271396   1.432   0.314  16.315  1.6832  0.2561 -0.2533
16661TIP3   OH271397   0.917   4.967   5.650  0.2103  0.5115  0.3530
16661TIP3    H171398   0.826   4.936   5.642  0.0659 -0.0409  3.4763
16661TIP3    H271399   0.939   4.953   5.742  3.0918  1.7438 -0.0955
16662TIP3   OH271400   3.852   5.468  14.799  0.3151  0.3638  0.0066
16662TIP3    H171401   3.835   5.554  14.838  2.3657  1.2218 -0.9088
16662TIP3    H271402   3.872   5.488  14.707  1.1219 -1.0835 -0.1347
16663TIP3   OH271403   4.881   6.391  15.197  0.0665 -0.0923 -0.3880
16663TIP3    H171404   4.868   6.486  15.194 -0.5529 -0.1223  1.2131
16663TIP3    H271405   4.949   6.377  15.263 -1.4388 -0.9178  1.0125
16664TIP3   OH271406   0.836   5.810   2.785  0.6523  0.6376  0.2767
16664TIP3    H171407   0.886   5.748   2.838  0.8585  0.8787  0.3634
16664TIP3    H271408   0.901   5.866   2.744  0.4131  1.6150  1.2193
16665TIP3   OH271409   3.714   1.053  13.026  0.3759  0.5621  0.0114
16665TIP3    H171410   3.805   1.083  13.030  0.6557 -0.0731 -1.5496
16665TIP3    H271411   3.712   0.975  13.081  1.4410 -1.0628 -2.1697
16666TIP3   OH271412   3.829   4.432  10.598 -0.5065  0.2927 -0.9327
16666TIP3    H171413   3.830   4.353  10.545 -1.0885 -2.0972  2.4857
16666TIP3    H271414   3.913   4.431  10.644 -1.4789  0.3196  0.9260
16667TIP3   OH271415   5.517   0.964   0.323  0.1216  0.0299 -0.0696
16667TIP3    H171416   5.426   0.991   0.332  0.3082  1.1556 -1.3785
16667TIP3    H271417   5.531   0.960   0.228  1.2619 -0.7361  0.1213
16668TIP3   OH271418   0.647   0.592  15.185 -0.2913 -0.4629  0.0127
16668TIP3    H171419   0.589   0.526  15.147 -0.2381  0.1465 -1.1371
16668TIP3    H271420   0.590   0.667  15.204 -0.0910 -0.2955 -0.0387
16669TIP3   OH271421   0.224   2.922  12.169 -0.0948  0.0423  0.1682
16669TIP3    H171422   0.312   2.948  12.195  0.5938 -0.3221 -1.6840
16669TIP3    H271423   0.218   2.945  12.076 -1.6788 -0.6217  0.0756
16670TIP3   OH271424   4.663   0.990  11.573  0.3467  0.4829  0.3869
16670TIP3    H171425   4.611   0.911  11.557  1.2153  0.2929 -1.6220
16670TIP3    H271426   4.600   1.062  11.565  0.1708  0.1900 -0.9770
16671TIP3   OH271427   4.068   3.714  12.718 -0.5104  0.0650 -0.0546
16671TIP3    H171428   4.078   3.696  12.812 -0.2240  1.7358  0.2710
16671TIP3    H271429   3.982   3.678  12.695 -0.4220 -0.6807  0.7684
16672TIP3   OH271430   0.639   5.930   4.121 -0.2315 -0.0607  0.5026
16672TIP3    H171431   0.677   5.983   4.191 -1.0325  0.9771  0.1672
16672TIP3    H271432   0.581   5.869   4.166  0.1282 -0.1599  0.8340
16673TIP3   OH271433   4.921   4.282  12.031  0.3745  0.0420  0.3604
16673TIP3    H171434   4.941   4.189  12.046  1.6041  0.1957 -0.2861
16673TIP3    H271435   4.905   4.317  12.119  2.5063 -0.2013  0.8713
16674TIP3   OH271436   0.475   1.667   0.486 -0.5148  0.0533 -0.2028
16674TIP3    H171437   0.438   1.710   0.563 -0.5199 -0.4750  0.0932
16674TIP3    H271438   0.568   1.659   0.505 -0.5744 -0.4070 -0.0873
16675TIP3   OH271439   2.035   0.909   2.041  0.2191 -0.0924  0.1070
16675TIP3    H171440   2.078   0.962   1.973  0.3699  0.3859  0.5680
16675TIP3    H271441   1.963   0.866   1.995 -1.1064  2.0461  0.1266
16676TIP3   OH271442   0.429   6.706  12.632 -0.2037 -0.2675  0.4249
16676TIP3    H171443   0.523   6.722  12.622 -0.3563 -0.4208 -1.4229
16676TIP3    H271444   0.394   6.789  12.664  0.5999 -0.3017  1.4172
16677TIP3   OH271445   2.985   1.975   3.686  0.7452  0.5936  0.4378
16677TIP3    H171446   3.023   2.056   3.654 -0.3274  0.6216 -0.7981
16677TIP3    H271447   3.026   1.907   3.633  0.5798  0.4513  0.4909
16678TIP3   OH271448   2.419   0.435   5.934 -0.3175 -1.0615 -0.4805
16678TIP3    H171449   2.392   0.527   5.932  0.3079 -0.6849  3.2985
16678TIP3    H271450   2.346   0.390   5.975  0.9385 -1.5538  1.2913
16679TIP3   OH271451   0.483   2.224  11.728  0.0005 -0.4501  0.1751
16679TIP3    H171452   0.503   2.317  11.734 -0.1961 -0.3751 -0.3309
16679TIP3    H271453   0.484   2.205  11.634 -0.2930 -0.8844  0.2602
16680TIP3   OH271454   0.167   2.964  10.587 -0.3955  1.1084 -0.3879
16680TIP3    H171455   0.108   2.962  10.512 -1.0560  0.4314  0.1424
16680TIP3    H271456   0.123   2.911  10.654  0.5391  1.0753  0.2122
16681TIP3   OH271457   4.684   1.079   1.965 -0.1223 -0.7111  0.3351
16681TIP3    H171458   4.706   1.132   1.888 -0.8363 -1.8327 -0.6553
16681TIP3    H271459   4.769   1.046   1.996  0.4250  1.6426  1.4576
16682TIP3   OH271460   2.949   2.979  15.853 -0.3185  0.1267 -0.1938
16682TIP3    H171461   2.924   2.993  15.762  0.3347  0.8974 -0.2641
16682TIP3    H271462   2.918   3.058  15.899 -0.4474 -0.1550  0.2064
16683TIP3   OH271463   6.463   2.539   3.643  0.2046  0.3886 -0.1884
16683TIP3    H171464   6.407   2.508   3.571 -1.1041  3.2881 -0.4916
16683TIP3    H271465   6.509   2.615   3.606  0.6939  0.9464  1.5510
16684TIP3   OH271466   2.228   3.287  12.130  0.0326 -0.4511  0.5632
16684TIP3    H171467   2.242   3.381  12.120 -1.8503 -0.1141  0.8149
16684TIP3    H271468   2.311   3.247  12.103  0.3741  1.1946 -0.9452
16685TIP3   OH271469   0.269   3.361   5.246  0.1015  0.7423  0.7952
16685TIP3    H171470   0.266   3.417   5.324  1.4366  0.5147  1.0254
16685TIP3    H271471   0.361   3.361   5.220 -0.1220 -0.2309 -0.0239
16686TIP3   OH271472   3.286   3.449   1.562  0.4129  0.3333 -0.0791
16686TIP3    H171473   3.195   3.465   1.586  1.1327  0.8137  2.5426
16686TIP3    H271474   3.297   3.493   1.477 -1.0484  2.7879  0.9564
16687TIP3   OH271475   4.169   1.860   2.768  0.4756  0.3495 -0.5013
16687TIP3    H171476   4.074   1.858   2.775  0.5954 -0.4519  1.3045
16687TIP3    H271477   4.197   1.915   2.841  1.2849  3.0346 -2.7533
16688TIP3   OH271478   5.191   1.933   3.312  0.0677 -0.4584 -0.2554
16688TIP3    H171479   5.256   1.946   3.243 -1.2448  0.2710 -1.3685
16688TIP3    H271480   5.129   2.004   3.300 -0.6273 -0.8052  1.1777
16689TIP3   OH271481   4.485   0.544  15.627  0.0989 -0.4989  0.2069
16689TIP3    H171482   4.455   0.455  15.647 -1.1988  0.2413  1.6570
16689TIP3    H271483   4.580   0.540  15.641 -0.1281 -1.2912  1.7588
16690TIP3   OH271484   2.865   0.876   2.905 -0.0886  0.0052  0.3752
16690TIP3    H171485   2.948   0.848   2.869  0.2041  0.7069  0.4864
16690TIP3    H271486   2.801   0.813   2.872  0.3516 -0.0139 -0.4385
16691TIP3   OH271487   0.684   3.444   2.297 -0.5518 -0.0857 -0.0849
16691TIP3    H171488   0.618   3.499   2.254  0.2333  1.9422  1.2800
16691TIP3    H271489   0.760   3.501   2.309  0.2508 -1.4243  1.4656
16692TIP3   OH271490   3.864   5.982   0.987  0.0174  0.1027  0.0889
16692TIP3    H171491   3.851   5.894   0.952 -1.6927  0.8377 -1.1902
16692TIP3    H271492   3.827   5.979   1.076 -1.0329 -0.1761 -0.3575
16693TIP3   OH271493   3.203   4.443  15.112 -0.0173 -0.4944  0.1705
16693TIP3    H171494   3.121   4.466  15.155 -0.0134 -1.2920  0.6133
16693TIP3    H271495   3.191   4.352  15.085  0.2997 -0.2660 -0.7618
16694TIP3   OH271496   4.528   6.655  17.166 -0.4013  0.5415  0.7497
16694TIP3    H171497   4.603   6.651  17.106 -0.5510 -0.2601  0.6125
16694TIP3    H271498   4.453   6.627  17.113 -0.6410  0.4386  1.1427
16695TIP3   OH271499   2.657   0.012  14.739 -0.6778 -0.6825  0.5575
16695TIP3    H171500   2.740   0.049  14.711 -0.4780 -0.5922  1.2492
16695TIP3    H271501   2.591   0.073  14.707 -0.4273 -0.3617  0.6541
16696TIP3   OH271502   6.252   6.006  12.268 -0.6801 -0.1579 -0.5567
16696TIP3    H171503   6.179   6.057  12.300 -0.5629  0.2182 -0.8823
16696TIP3    H271504   6.231   5.915  12.291  0.1464  0.2643  1.9952
16697TIP3   OH271505   5.415   6.509  15.947 -0.3953 -0.5821  0.5010
16697TIP3    H171506   5.377   6.422  15.961 -1.1602 -0.5838 -1.4358
16697TIP3    H271507   5.354   6.569  15.989 -1.1621 -0.8053 -0.2788
16698TIP3   OH271508   2.659   2.061  16.720  0.0603 -0.2055  0.4109
16698TIP3    H171509   2.631   2.090  16.807  2.4623  0.9225  0.8445
16698TIP3    H271510   2.643   2.136  16.663 -0.4728 -0.5596  0.0911
16699TIP3   OH271511   6.291   2.195   4.924 -0.7725  0.2565 -0.4706
16699TIP3    H171512   6.282   2.279   4.880 -1.1864 -0.3049 -1.4851
16699TIP3    H271513   6.211   2.147   4.901 -0.0143 -0.8447 -0.8598
16700TIP3   OH271514   1.025   6.312  15.412 -0.7065 -0.0661 -0.6887
16700TIP3    H171515   1.058   6.402  15.419  2.2296 -1.0714 -1.1737
16700TIP3    H271516   1.022   6.281  15.503  0.0219 -0.0841 -0.6704
16701TIP3   OH271517   0.262   0.519   5.367 -0.3713 -0.1309  0.7116
16701TIP3    H171518   0.279   0.429   5.341 -1.3417 -0.0398 -0.2850
16701TIP3    H271519   0.279   0.570   5.287 -0.7097  0.4625  1.0129
16702TIP3   OH271520   4.419   5.605  12.876  0.2180 -0.2110  0.2611
16702TIP3    H171521   4.335   5.559  12.878  0.9271 -1.5739 -0.5654
16702TIP3    H271522   4.459   5.587  12.961  0.1738 -0.5008  0.2183
16703TIP3   OH271523   6.041   5.347   6.242  0.7912  0.4282 -0.1462
16703TIP3    H171524   6.064   5.438   6.262  0.3097  0.8013 -1.2287
16703TIP3    H271525   5.945   5.346   6.242  0.7942 -0.2722  0.6606
16704TIP3   OH271526   5.492   5.601  11.566  0.3736  0.2290 -0.0035
16704TIP3    H171527   5.492   5.532  11.632 -1.4804  0.6907  0.5090
16704TIP3    H271528   5.416   5.582  11.512 -0.0078  1.7127 -0.0137
16705TIP3   OH271529   6.711   6.072  16.071 -0.5696 -0.1492  0.3394
16705TIP3    H171530   6.768   6.089  16.146  1.4532  0.2687 -1.2823
16705TIP3    H271531   6.703   5.976  16.069 -1.0433 -0.1446  1.3613
16706TIP3   OH271532   6.070   5.667   3.206  0.8683  0.0287  0.1325
16706TIP3    H171533   6.130   5.593   3.192  1.2016 -0.3016  3.0771
16706TIP3    H271534   5.983   5.626   3.211  1.2394 -0.4850  3.7142
16707TIP3   OH271535   4.077   4.850  13.277  0.1029  0.2905  0.4752
16707TIP3    H171536   4.096   4.801  13.357  0.6418  0.0884  0.2253
16707TIP3    H271537   3.984   4.833  13.259  0.6504 -1.8696 -0.4550
16708TIP3   OH271538   5.051   1.586   5.998 -0.1384  0.1423 -0.3316
16708TIP3    H171539   5.038   1.679   5.979  0.8700  0.3533 -0.0646
16708TIP3    H271540   5.061   1.583   6.093 -0.1450 -0.2325 -0.3434
16709TIP3   OH271541   1.655   4.935  11.093  0.1741  0.2245  0.2893
16709TIP3    H171542   1.740   4.920  11.050 -0.0554 -0.1563 -0.0343
16709TIP3    H271543   1.615   4.849  11.098 -1.1239  0.6857 -1.5020
16710TIP3   OH271544   3.265   2.324  14.335  0.0497 -0.2930  0.0996
16710TIP3    H171545   3.199   2.257  14.316 -0.5754 -0.2413  2.0039
16710TIP3    H271546   3.263   2.381  14.258  0.8441 -2.6054 -1.7325
16711TIP3   OH271547   2.133   0.185  14.906 -0.1311 -0.3240 -0.0642
16711TIP3    H171548   2.093   0.247  14.845 -0.0720 -0.4586 -0.2399
16711TIP3    H271549   2.147   0.106  14.854  0.2444 -0.3198  0.0343
16712TIP3   OH271550   6.786   2.356  12.637  0.0164  0.2574 -0.1395
16712TIP3    H171551   6.699   2.316  12.634 -0.0844  0.4918 -0.3693
16712TIP3    H271552   6.795   2.388  12.727 -0.7453  1.5809 -0.5276
16713TIP3   OH271553   2.469   0.199   2.795 -0.1622  0.1093  0.4694
16713TIP3    H171554   2.382   0.204   2.835 -1.1609 -0.3365 -1.5691
16713TIP3    H271555   2.460   0.131   2.727  1.6522  0.3697 -0.0577
16714TIP3   OH271556   1.199   1.635  16.079  0.1775  0.0095  0.6121
16714TIP3    H171557   1.177   1.595  15.995  0.0006 -0.9218  1.0962
16714TIP3    H271558   1.284   1.677  16.063 -1.3279  2.6190 -0.9328
16715TIP3   OH271559   1.100   4.582   5.179 -0.3839  0.0972  0.2161
16715TIP3    H171560   1.073   4.491   5.169  2.7148 -0.7424 -1.0946
16715TIP3    H271561   1.134   4.587   5.268  0.9938 -0.5128 -0.2506
16716TIP3   OH271562   1.416   6.684  11.283 -0.1844 -0.3210 -0.3856
16716TIP3    H171563   1.328   6.652  11.261 -1.1289  1.0067  1.3088
16716TIP3    H271564   1.411   6.778  11.268  0.7887 -0.1605  0.2501
16717TIP3   OH271565   4.421   3.217  12.588  0.0653  0.0932  0.6002
16717TIP3    H171566   4.430   3.139  12.534  1.2242  0.0464  0.8429
16717TIP3    H271567   4.456   3.288  12.533  0.0325  0.2640  0.7977
16718TIP3   OH271568   1.410   4.832   3.401  0.1758  0.3676 -0.1694
16718TIP3    H171569   1.453   4.906   3.444  2.7530 -0.2451 -1.6079
16718TIP3    H271570   1.464   4.756   3.424 -0.7296 -0.5907 -1.1423
16719TIP3   OH271571   5.592   6.284   1.454  0.1706  0.1333  0.4898
16719TIP3    H171572   5.628   6.363   1.494 -1.9202  1.5991 -0.4209
16719TIP3    H271573   5.604   6.297   1.360  0.8536 -1.1801  0.3759
16720TIP3   OH271574   4.298   3.311   1.544  0.6746 -0.1141  0.3292
16720TIP3    H171575   4.245   3.257   1.602  1.6534 -0.4484  0.9254
16720TIP3    H271576   4.282   3.401   1.572  0.0303 -0.1773  0.1655
16721TIP3   OH271577   2.024   3.530   4.766 -0.2714 -0.1716  0.1838
16721TIP3    H171578   2.060   3.486   4.843  0.5213  0.5118  0.2063
16721TIP3    H271579   1.949   3.475   4.741 -0.0031 -0.8894  0.9026
16722TIP3   OH271580   0.053   2.596  16.772  0.1118  0.0377  0.3776
16722TIP3    H171581   0.038   2.650  16.695  2.3379  1.0259  0.5839
16722TIP3    H271582   0.068   2.508  16.738  1.3096  0.5158 -0.3396
16723TIP3   OH271583   1.210   1.797   4.701  0.0718 -0.3375  0.5722
16723TIP3    H171584   1.302   1.813   4.681 -0.8690  1.5104 -2.5703
16723TIP3    H271585   1.188   1.716   4.657 -0.6673  1.0555 -1.7048
16724TIP3   OH271586   1.680   3.844   2.470  0.3163 -0.5425 -0.3768
16724TIP3    H171587   1.713   3.872   2.556 -1.6754 -0.1933  0.3070
16724TIP3    H271588   1.608   3.904   2.451  1.1823 -0.1680 -2.6461
16725TIP3   OH271589   5.945   6.581  12.907  0.0982  0.6003 -0.4133
16725TIP3    H171590   6.020   6.538  12.947  0.0401  0.1602 -0.7756
16725TIP3    H271591   5.914   6.643  12.974 -0.7925 -1.0561  0.7500
16726TIP3   OH271592   4.498   3.764  10.820  0.4875 -0.0800 -0.1094
16726TIP3    H171593   4.408   3.787  10.794 -0.0364  1.3071  2.6571
16726TIP3    H271594   4.495   3.762  10.916  2.6245 -3.4912 -0.0249
16727TIP3   OH271595   1.270   2.717  17.056 -0.2550 -0.7059  0.4520
16727TIP3    H171596   1.250   2.636  17.009 -2.1748 -0.0796  0.1156
16727TIP3    H271597   1.301   2.688  17.142  1.1943 -1.8184 -0.4111
16728TIP3   OH271598   6.141   4.795  15.861 -0.0507  0.3444  0.5250
16728TIP3    H171599   6.109   4.749  15.784  1.7638 -0.3736  0.1688
16728TIP3    H271600   6.087   4.762  15.933 -1.4963  0.7330 -0.3834
16729TIP3   OH271601   0.545   5.355  13.702 -0.4365 -0.0716 -0.1989
16729TIP3    H171602   0.517   5.269  13.734 -1.1339  0.3314  0.2911
16729TIP3    H271603   0.464   5.402  13.687 -0.0688  1.6752  2.7794
16730TIP3   OH271604   5.801   1.666  15.468 -0.5263  0.1375 -0.1401
16730TIP3    H171605   5.882   1.700  15.506 -0.0742 -0.7488 -0.3069
16730TIP3    H271606   5.830   1.603  15.402 -1.3519 -0.0543 -0.3256
16731TIP3   OH271607   5.769   4.529   5.610 -0.3051  0.1665 -0.6679
16731TIP3    H171608   5.802   4.611   5.647  1.5262 -1.3173  1.0908
16731TIP3    H271609   5.679   4.522   5.642 -0.4208  1.3980 -0.7083
16732TIP3   OH271610   4.321   5.994  14.628 -0.3477 -0.0669  0.1906
16732TIP3    H171611   4.291   5.927  14.566  1.3598  0.6757 -1.4829
16732TIP3    H271612   4.320   6.075  14.577  1.0738  0.5497  1.1364
16733TIP3   OH271613   4.231   3.311  13.871  0.1863  0.2943 -0.0067
16733TIP3    H171614   4.201   3.400  13.890  0.9079  0.4960  0.2101
16733TIP3    H271615   4.245   3.271  13.956  0.9128  0.3405 -0.0947
16734TIP3   OH271616   3.321   2.716  16.893  0.3941 -0.5993 -0.1100
16734TIP3    H171617   3.251   2.771  16.927  0.5262 -1.7931  2.2269
16734TIP3    H271618   3.334   2.746  16.803 -1.5310  1.1685  0.1586
16735TIP3   OH271619   5.435   4.333  12.384 -0.0401 -0.0802  0.5421
16735TIP3    H171620   5.502   4.396  12.359 -0.0168  0.4279  1.8546
16735TIP3    H271621   5.431   4.339  12.480 -1.6924 -0.3718  0.5018
16736TIP3   OH271622   0.570   0.575   1.612  0.3221 -0.1921  0.2146
16736TIP3    H171623   0.663   0.596   1.599  0.7499 -0.9299  1.8455
16736TIP3    H271624   0.556   0.496   1.559  0.3322  0.5416 -0.8990
16737TIP3   OH271625   4.389   0.652  17.036 -0.0521  0.2803  0.6857
16737TIP3    H171626   4.426   0.564  17.040 -1.2220 -0.2964 -0.5770
16737TIP3    H271627   4.438   0.696  16.967 -0.0334  0.3333  0.7345
16738TIP3   OH271628   3.203   4.407   0.987 -0.8168 -0.3490 -0.0627
16738TIP3    H171629   3.119   4.432   1.026  0.2655  0.7840  1.5819
16738TIP3    H271630   3.249   4.490   0.976  0.0681 -0.9589 -1.0601
16739TIP3   OH271631   6.484   2.371  13.066 -0.1732 -0.4583 -0.0172
16739TIP3    H171632   6.469   2.458  13.030  0.4151 -0.9481 -1.4875
16739TIP3    H271633   6.575   2.373  13.095 -0.5617 -0.1563  1.2100
16740TIP3   OH271634   0.289   1.315  14.970 -0.0592 -0.5056  0.3175
16740TIP3    H171635   0.256   1.302  15.059 -0.7886 -1.4815 -0.0877
16740TIP3    H271636   0.255   1.401  14.944 -2.3099 -1.4768 -0.0773
16741TIP3   OH271637   1.467   1.243   1.245 -0.1610  0.1971 -0.3660
16741TIP3    H171638   1.536   1.260   1.309 -1.0574 -1.0590  0.9667
16741TIP3    H271639   1.424   1.327   1.231  0.1926  0.5238  0.5140
16742TIP3   OH271640   5.878   1.343   5.611  0.6121 -0.0184 -0.2865
16742TIP3    H171641   5.937   1.327   5.684  1.2449  1.2514 -0.5066
16742TIP3    H271642   5.905   1.428   5.576  0.4928 -0.7211 -2.1631
16743TIP3   OH271643   4.794   4.733  12.030 -0.0882  0.2477 -0.1229
16743TIP3    H171644   4.866   4.679  11.999  0.1725 -0.1831  1.1860
16743TIP3    H271645   4.788   4.804  11.967  1.2703  0.1142 -0.4126
16744TIP3   OH271646   1.843   4.499   0.154 -0.2575  0.2318 -0.2578
16744TIP3    H171647   1.809   4.508   0.243  0.5645  0.6816  0.0191
16744TIP3    H271648   1.878   4.410   0.151 -0.5026  0.1335 -0.2097
16745TIP3   OH271649   1.011   0.244  10.782 -0.1388  0.5148 -0.2974
16745TIP3    H171650   1.039   0.243  10.690 -0.8527  0.8427 -0.5197
16745TIP3    H271651   0.933   0.188  10.784  0.1770  0.0890  0.2075
16746TIP3   OH271652   3.600   0.499   2.236 -0.3735  0.2568 -0.1821
16746TIP3    H171653   3.539   0.547   2.181 -0.8676  1.4223  1.3399
16746TIP3    H271654   3.662   0.566   2.267 -0.3734 -0.2831  1.0195
16747TIP3   OH271655   4.895   0.231   4.244  0.2559  0.1245  0.4313
16747TIP3    H171656   4.936   0.166   4.300 -0.8951 -0.4474  0.6141
16747TIP3    H271657   4.876   0.184   4.162  0.1790  0.4405  0.2664
16748TIP3   OH271658   3.685   3.970  15.393  0.2798  0.6147 -0.3026
16748TIP3    H171659   3.722   3.961  15.481 -0.6843  0.3284  0.0792
16748TIP3    H271660   3.735   4.041  15.353  1.2877  0.1861  0.1758
16749TIP3   OH271661   2.720   2.714  15.015  0.0273  0.0340  0.1976
16749TIP3    H171662   2.806   2.757  15.024 -0.0290  0.5032 -1.3628
16749TIP3    H271663   2.735   2.643  14.953 -0.6510 -0.0176  0.0899
16750TIP3   OH271664   5.602   3.348  14.054  0.1390  0.3843  0.1603
16750TIP3    H171665   5.632   3.400  13.979 -0.6381 -0.1555 -0.5279
16750TIP3    H271666   5.512   3.325  14.033  0.3584 -0.9375  0.6325
16751TIP3   OH271667   6.784   5.342  13.515  0.2262 -0.2682  0.3444
16751TIP3    H171668   6.799   5.407  13.446 -2.3836  0.2116  0.1939
16751TIP3    H271669   6.869   5.298  13.525  0.7544 -0.1239 -2.9277
16752TIP3   OH271670   1.818   6.545  15.921 -0.0266  0.3440  0.2805
16752TIP3    H171671   1.790   6.626  15.964  1.8168  0.7189  0.8102
16752TIP3    H271672   1.783   6.553  15.832  0.3123  1.8358  0.2628
16753TIP3   OH271673   3.737   1.655  12.622 -0.1632  0.3170  0.4298
16753TIP3    H171674   3.650   1.673  12.586 -0.1562 -0.8065 -0.1491
16753TIP3    H271675   3.734   1.563  12.647  1.6789 -0.4427 -1.9655
16754TIP3   OH271676   3.449   6.458  13.179 -0.3898  0.7017  0.1745
16754TIP3    H171677   3.452   6.382  13.237  1.1016 -0.5716 -1.4812
16754TIP3    H271678   3.541   6.480  13.165 -0.7742  1.7638 -0.6831
16755TIP3   OH271679   0.002   1.545   1.463 -0.4904  0.1642 -0.1995
16755TIP3    H171680   0.049   1.573   1.384 -1.2821  2.2506  0.0609
16755TIP3    H271681   0.043   1.593   1.534 -1.1513 -0.1512  0.3997
16756TIP3   OH271682   2.143   0.057   5.087  0.2513  0.1138 -0.3227
16756TIP3    H171683   2.050   0.051   5.110  0.1343  0.0099 -0.8209
16756TIP3    H271684   2.178  -0.030   5.105 -0.2684 -0.5630 -2.3771
16757TIP3   OH271685   4.423   4.652   5.792 -0.3585  0.1005  0.2245
16757TIP3    H171686   4.384   4.573   5.753  0.1527 -0.1652  0.2524
16757TIP3    H271687   4.348   4.705   5.818 -0.7257  0.6575 -1.8844
16758TIP3   OH271688   2.249   4.806  11.699  0.2361 -0.5347 -0.0935
16758TIP3    H171689   2.322   4.868  11.693  1.1233 -1.4576  0.9136
16758TIP3    H271690   2.177   4.858  11.734  0.3308  0.4405 -1.2993
16759TIP3   OH271691   1.188   1.195   2.272  0.3731  0.7754  0.2319
16759TIP3    H171692   1.250   1.262   2.243  0.0000  0.4764 -1.3354
16759TIP3    H271693   1.241   1.117   2.286  0.4229  0.6213 -0.7522
16760TIP3   OH271694   2.634   0.673   3.144  0.1400  0.2631  0.0920
16760TIP3    H171695   2.646   0.691   3.051  0.3676 -1.9701 -0.3301
16760TIP3    H271696   2.540   0.657   3.153  0.0401  0.9759  0.3465
16761TIP3   OH271697   4.579   5.509   0.928  0.3859 -0.7272  0.2286
16761TIP3    H171698   4.576   5.555   1.013  2.8450 -0.2229  0.0797
16761TIP3    H271699   4.621   5.571   0.869 -0.4915 -1.4299 -1.1643
16762TIP3   OH271700   6.404   1.650   1.205  0.0282 -0.3369 -0.3542
16762TIP3    H171701   6.443   1.726   1.250  1.8597 -1.7539  0.5137
16762TIP3    H271702   6.314   1.647   1.238 -0.8247  2.7985 -2.1327
16763TIP3   OH271703   1.333   3.724   6.203 -0.4516  0.4128 -0.3747
16763TIP3    H171704   1.388   3.694   6.275 -0.0800  0.1140 -0.7819
16763TIP3    H271705   1.316   3.646   6.151  0.4433  0.8777 -1.3858
16764TIP3   OH271706   5.865   2.345  16.382 -0.0080  0.2734 -0.2348
16764TIP3    H171707   5.808   2.391  16.320 -0.6349  1.1676  0.9990
16764TIP3    H271708   5.808   2.279  16.422 -0.1879  1.1739  1.0070
16765TIP3   OH271709   0.854   4.915  15.896 -0.6300  0.4047  0.2351
16765TIP3    H171710   0.924   4.916  15.961  0.3033 -0.0949 -0.7254
16765TIP3    H271711   0.871   4.992  15.841 -1.6830  1.0853  0.8642
16766TIP3   OH271712   0.419   4.170   2.170  0.6453 -0.2931 -0.9391
16766TIP3    H171713   0.436   4.077   2.186  1.2316 -0.2908 -1.5151
16766TIP3    H271714   0.427   4.179   2.075  0.7332  0.3760 -0.8675
16767TIP3   OH271715   3.591   0.298   1.201 -0.2733 -0.1387  0.3614
16767TIP3    H171716   3.651   0.355   1.249 -2.1107  1.3761  0.9048
16767TIP3    H271717   3.609   0.316   1.109  0.3690  0.0328  0.5195
16768TIP3   OH271718   2.183   2.303  11.408  0.0410 -0.4063  0.2769
16768TIP3    H171719   2.161   2.297  11.315 -0.9487  0.8553  0.4186
16768TIP3    H271720   2.233   2.224  11.426 -0.8043 -1.2588 -1.0544
16769TIP3   OH271721   4.854   1.940   1.309  0.3746 -0.2226 -0.0845
16769TIP3    H171722   4.772   1.956   1.261 -0.2324 -0.8044  0.7468
16769TIP3    H271723   4.826   1.918   1.398  1.3738 -1.6091 -0.0896
16770TIP3   OH271724   2.818   3.417  14.254  0.0301  0.2588 -0.0892
16770TIP3    H171725   2.818   3.325  14.281 -1.6483  0.2889  0.0567
16770TIP3    H271726   2.908   3.446  14.265 -0.0322 -0.5516  2.6675
16771TIP3   OH271727   1.175   0.635  13.673 -0.3051 -0.2345  0.0964
16771TIP3    H171728   1.262   0.659  13.703 -1.3457  0.9714  2.2266
16771TIP3    H271729   1.116   0.667  13.741 -2.4740 -0.3463 -1.6748
16772TIP3   OH271730   4.246   2.877  10.994  0.3603  0.2147 -0.0980
16772TIP3    H171731   4.280   2.959  10.960  2.2715 -0.4073  0.2869
16772TIP3    H271732   4.262   2.881  11.088  0.5612 -0.6411 -0.0924
16773TIP3   OH271733   2.803   2.970  13.241 -0.1628 -0.1223  0.4854
16773TIP3    H171734   2.804   2.933  13.329 -2.8207  0.4128  0.7989
16773TIP3    H271735   2.843   3.056  13.250  1.8240 -1.0348  0.6518
16774TIP3   OH271736   0.039   4.805  14.410 -0.4507  0.3254 -0.2337
16774TIP3    H171737   0.115   4.828  14.464 -0.4240  0.9624 -0.5333
16774TIP3    H271738  -0.010   4.886  14.401 -0.8375  0.0591 -0.5688
16775TIP3   OH271739   6.683   2.069   2.984 -0.0011 -0.2707 -0.6454
16775TIP3    H171740   6.608   2.030   2.938 -0.2081 -1.5696  0.7590
16775TIP3    H271741   6.651   2.155   3.013 -1.0560 -0.9345  0.2025
16776TIP3   OH271742   3.999   2.260  14.028  0.2448  0.3988 -0.4700
16776TIP3    H171743   3.907   2.281  14.015  0.5113  1.0789 -1.3679
16776TIP3    H271744   4.001   2.167  14.047 -0.5054  0.0764 -1.9566
16777TIP3   OH271745   0.913   2.521   2.551 -0.1711  0.7428 -0.1790
16777TIP3    H171746   0.825   2.555   2.531 -1.0946 -1.2295  0.3677
16777TIP3    H271747   0.971   2.567   2.491 -1.7104  1.3777 -1.2160
16778TIP3   OH271748   3.435   3.394  13.341 -0.1432 -0.6602 -0.0896
16778TIP3    H171749   3.441   3.304  13.372 -0.5357 -0.1479  1.4926
16778TIP3    H271750   3.471   3.447  13.412 -1.1097  0.5344 -0.4660
16779TIP3   OH271751   5.998   3.181   4.738 -0.0309 -0.0713  0.1051
16779TIP3    H171752   6.005   3.217   4.826 -1.9059  1.0449 -0.1746
16779TIP3    H271753   5.923   3.226   4.699  0.4538 -0.9158 -1.8877
16780TIP3   OH271754   1.918   6.618  11.678  0.0680 -0.1812 -0.5595
16780TIP3    H171755   1.882   6.687  11.735 -0.0709  0.3839 -1.3276
16780TIP3    H271756   1.884   6.537  11.716  1.0006  0.0998  0.9182
16781TIP3   OH271757   3.679   1.096   1.974  0.4229 -0.0797 -0.1068
16781TIP3    H171758   3.664   1.038   1.899  1.9520  0.2218 -0.6601
16781TIP3    H271759   3.733   1.167   1.938  0.3839  0.5535  1.0710
16782TIP3   OH271760   4.537   1.770  10.993  0.1119  0.5648 -0.1763
16782TIP3    H171761   4.615   1.726  11.030  0.0217  0.0995 -0.5337
16782TIP3    H271762   4.549   1.764  10.899 -0.2608  0.6831 -0.2303
16783TIP3   OH271763   5.309   4.832   0.027 -0.2877 -0.1054  0.0492
16783TIP3    H171764   5.214   4.840   0.031 -0.1903  1.6341 -0.5786
16783TIP3    H271765   5.325   4.757  -0.029 -1.2905  0.1776 -0.6200
16784TIP3   OH271766   2.517   4.842   4.703 -0.4715  0.0530 -0.0718
16784TIP3    H171767   2.543   4.889   4.782 -1.2429  1.1521 -0.4523
16784TIP3    H271768   2.584   4.774   4.692 -0.6718 -0.5053  1.8490
16785TIP3   OH271769   0.150   1.868   0.466 -0.4678 -0.3010  0.3662
16785TIP3    H171770   0.084   1.798   0.463 -0.7182 -0.0564  0.0756
16785TIP3    H271771   0.102   1.943   0.501 -1.6545  1.2712 -4.3442
16786TIP3   OH271772   3.024   3.536  16.861 -0.0471 -0.1888 -0.7221
16786TIP3    H171773   3.037   3.624  16.898  1.3660  0.1365 -1.9395
16786TIP3    H271774   2.929   3.524  16.861 -0.2874  1.5830 -1.0656
16787TIP3   OH271775   6.775   0.355  16.896  0.4312  0.3201 -0.1545
16787TIP3    H171776   6.843   0.358  16.828  1.3089  0.9801  0.7306
16787TIP3    H271777   6.748   0.264  16.898  0.5486  0.2498 -1.2434
16788TIP3   OH271778   0.780   5.739   4.502  0.4862 -0.1472 -0.2880
16788TIP3    H171779   0.863   5.775   4.470  1.9764 -1.7848  1.6253
16788TIP3    H271780   0.755   5.674   4.436  1.2236 -0.3577 -0.3625
16789TIP3   OH271781   2.206   3.549  12.068 -0.0432  0.4505 -0.2766
16789TIP3    H171782   2.119   3.532  12.102  0.2862 -1.4393 -0.3385
16789TIP3    H271783   2.199   3.633  12.023 -1.9469  0.0717 -0.6984
16790TIP3   OH271784   5.852   3.528   5.806 -0.7574  0.0501  0.3934
16790TIP3    H171785   5.795   3.603   5.789  0.3432  0.5904 -0.9722
16790TIP3    H271786   5.932   3.565   5.841 -0.0234 -0.4505 -0.7398
16791TIP3   OH271787   3.598   1.020   2.966 -0.1272  0.0927  0.5265
16791TIP3    H171788   3.526   0.957   2.962 -1.1713  1.1395  2.1005
16791TIP3    H271789   3.561   1.102   2.933  1.5600 -0.3386 -2.6668
16792TIP3   OH271790   1.512   5.949   0.703  0.3049  0.3274 -0.0477
16792TIP3    H171791   1.471   6.035   0.693  2.0786  1.2375  0.2113
16792TIP3    H271792   1.537   5.924   0.614  1.3012  0.8648  0.0748
16793TIP3   OH271793   1.842   3.073   2.983 -0.1491  0.7202  0.1739
16793TIP3    H171794   1.775   3.047   3.047 -0.8577 -0.3280 -0.9811
16793TIP3    H271795   1.916   3.015   3.001 -1.3546 -1.4744 -1.7288
16794TIP3   OH271796   6.130   5.812   0.186  0.3605  0.3999 -0.4371
16794TIP3    H171797   6.221   5.810   0.212 -0.0964  1.0100  1.2575
16794TIP3    H271798   6.108   5.721   0.165  1.4312  0.3073 -1.1843
16795TIP3   OH271799   2.194   3.759  11.876 -0.1044  0.6059 -0.0531
16795TIP3    H171800   2.154   3.846  11.884 -0.4920  0.4969 -0.7574
16795TIP3    H271801   2.267   3.772  11.816 -0.4786  0.3399 -0.5655
16796TIP3   OH271802   0.395   6.625   0.365 -0.1245 -0.7484 -0.2111
16796TIP3    H171803   0.309   6.625   0.408 -0.2729  0.4383 -0.4922
16796TIP3    H271804   0.396   6.544   0.314 -1.1057 -0.7347 -0.2638
16797TIP3   OH271805   0.535   1.318   5.163  0.6570 -0.3389  0.4139
16797TIP3    H171806   0.483   1.246   5.129 -0.9660  1.0381 -0.0434
16797TIP3    H271807   0.554   1.373   5.087  1.4959 -0.0224  0.8352
16798TIP3   OH271808   0.557   6.749  15.243 -0.1407  0.5937  0.0829
16798TIP3    H171809   0.466   6.728  15.223 -0.3469  1.6323 -0.1367
16798TIP3    H271810   0.552   6.813  15.314  0.3734  1.3210 -0.5210
16799TIP3   OH271811   6.160   0.275  12.075  0.0384  0.0006  0.3534
16799TIP3    H171812   6.068   0.273  12.047 -0.0849  0.8460  0.6829
16799TIP3    H271813   6.163   0.215  12.150  0.1984 -1.6380 -0.9360
16800TIP3   OH271814   0.715   3.242   1.362 -0.4780 -0.0060  0.2929
16800TIP3    H171815   0.640   3.296   1.334 -1.3584 -0.1349  2.3460
16800TIP3    H271816   0.756   3.293   1.432  0.0056 -0.9845  0.7267
16801TIP3   OH271817   3.748   4.743  15.846  0.2827 -0.1183 -0.0702
16801TIP3    H171818   3.703   4.661  15.868  1.1916 -0.4380  0.6739
16801TIP3    H271819   3.838   4.728  15.875  0.5375  1.0168 -0.2649
16802TIP3   OH271820   5.148   3.985  17.214  0.3566  0.0924 -0.5592
16802TIP3    H171821   5.133   4.045  17.287  1.2049 -0.6437  0.2370
16802TIP3    H271822   5.224   4.022  17.169 -0.0843  0.4738 -0.9855
16803TIP3   OH271823   3.903   2.161  11.858 -0.0469  0.4379 -0.6619
16803TIP3    H171824   3.985   2.173  11.907 -1.4258 -0.5291  1.9524
16803TIP3    H271825   3.927   2.100  11.788  1.9335  1.7775 -1.2127
16804TIP3   OH271826   1.116   2.926   1.600  0.2136  0.2519  0.2187
16804TIP3    H171827   1.058   2.945   1.527 -0.6724  0.1023  0.8799
16804TIP3    H271828   1.098   2.994   1.664 -0.9285 -1.1546  1.4087
16805TIP3   OH271829   2.687   4.813  13.980  0.8064 -1.2659 -0.1147
16805TIP3    H171830   2.763   4.871  13.984  0.2495 -0.6127  1.5058
16805TIP3    H271831   2.657   4.807  14.071 -2.5790  0.4960 -1.0578
16806TIP3   OH271832   6.337   2.829  15.417  0.9616 -0.1715 -0.0047
16806TIP3    H171833   6.412   2.791  15.371 -0.2092 -3.1124  0.3937
16806TIP3    H271834   6.375   2.874  15.492  2.5348  0.7949 -1.3584
16807TIP3   OH271835   6.143   1.507   4.686  0.3380 -0.3634  0.2513
16807TIP3    H171836   6.220   1.559   4.667 -1.0608  1.5613 -0.2789
16807TIP3    H271837   6.102   1.491   4.601 -1.0579  0.5945  0.7115
16808TIP3   OH271838   5.289   0.032   1.868  0.1646  0.0719  0.2048
16808TIP3    H171839   5.332   0.090   1.806  0.2250  0.6160  0.7459
16808TIP3    H271840   5.345   0.033   1.946  0.5357 -1.2783 -0.0418
16809TIP3   OH271841   0.561   0.044   4.263 -0.0076 -0.5564 -0.3326
16809TIP3    H171842   0.656   0.043   4.271 -0.1575 -1.5919  1.5128
16809TIP3    H271843   0.539  -0.042   4.226 -0.3702 -1.1158  1.1623
16810TIP3   OH271844   6.383   5.033  16.326  0.1139  0.0146 -0.3874
16810TIP3    H171845   6.359   4.980  16.402  0.2706  0.6928  0.1512
16810TIP3    H271846   6.340   4.991  16.252 -1.1119  0.0805  0.2715
16811TIP3   OH271847   1.320   1.734   1.289 -0.2024  0.3541 -0.6118
16811TIP3    H171848   1.232   1.757   1.263 -0.3471 -1.2769 -1.6280
16811TIP3    H271849   1.320   1.742   1.385 -1.5387  0.0766 -0.5865
16812TIP3   OH271850   4.188   4.751   5.856  0.2112 -0.1833 -0.6692
16812TIP3    H171851   4.126   4.755   5.929  1.8293  2.1763  0.6266
16812TIP3    H271852   4.143   4.795   5.784 -0.5243 -0.5406 -0.4345
16813TIP3   OH271853   3.518   6.507   3.727  0.4805 -0.9271  0.2821
16813TIP3    H171854   3.524   6.596   3.692  0.6020 -1.1719 -0.3135
16813TIP3    H271855   3.432   6.476   3.699  0.9717 -1.4774 -0.6374
16814TIP3   OH271856   3.197   3.872   3.517 -0.3561  0.0596 -0.0767
16814TIP3    H171857   3.119   3.852   3.569 -0.6010 -1.0691 -0.8530
16814TIP3    H271858   3.204   3.967   3.520  0.8349 -0.0891  3.6896
16815TIP3   OH271859   4.090   0.593  15.992 -0.5281 -0.0036  1.0144
16815TIP3    H171860   4.111   0.541  16.070  0.3687 -0.9147  0.1812
16815TIP3    H271861   4.121   0.540  15.919 -3.0211  0.0273 -0.0935
16816TIP3   OH271862   3.020   6.664   0.094  0.4478 -0.7052  0.3757
16816TIP3    H171863   2.959   6.616   0.149 -0.9555 -0.2009 -0.6849
16816TIP3    H271864   3.104   6.657   0.139 -0.7125 -0.0088  2.7350
16817TIP3   OH271865   0.116   0.929   5.051 -0.2685 -0.3465  0.3104
16817TIP3    H171866   0.082   1.015   5.076  2.1676  0.4099  1.0990
16817TIP3    H271867   0.119   0.880   5.133  1.3187 -0.1317  0.3821
16818TIP3   OH271868   5.316   5.653   6.516 -0.3070  0.3327 -0.3536
16818TIP3    H171869   5.412   5.653   6.510 -0.3010 -1.7557 -0.7099
16818TIP3    H271870   5.289   5.577   6.463 -2.1655  1.0179 -0.4115
16819TIP3   OH271871   2.797   3.860  10.983 -0.3188 -0.3474 -0.6275
16819TIP3    H171872   2.774   3.813  10.903 -0.5941 -1.0870 -0.1186
16819TIP3    H271873   2.889   3.884  10.971 -0.5058  0.0001 -1.3855
16820TIP3   OH271874   4.544   3.767  11.119 -0.4826  0.0723 -0.0998
16820TIP3    H171875   4.464   3.716  11.129 -0.7281  0.3041 -0.8609
16820TIP3    H271876   4.608   3.704  11.084 -0.6694  0.1756 -0.6374
16821TIP3   OH271877   0.335   1.847   0.668 -0.2293  0.0335  0.2918
16821TIP3    H171878   0.393   1.918   0.640  0.5623 -1.4497 -1.9420
16821TIP3    H271879   0.266   1.846   0.602 -1.4866  0.1869  1.5894
16822TIP3   OH271880   5.143   0.183  11.285 -0.5133 -0.0623  0.0112
16822TIP3    H171881   5.180   0.095  11.284  0.0009  0.1547 -0.3424
16822TIP3    H271882   5.200   0.233  11.226 -0.2057  0.7478  0.9970
16823TIP3   OH271883   5.261   5.571  17.066 -0.2981  0.4842 -0.0518
16823TIP3    H171884   5.191   5.631  17.041  0.1630  1.0303 -0.0263
16823TIP3    H271885   5.251   5.496  17.007  1.1903  2.0501 -2.3555
16824TIP3   OH271886   3.793   0.809  11.299  0.2004 -0.3568 -0.3670
16824TIP3    H171887   3.755   0.744  11.239 -0.8640  0.3122 -0.4314
16824TIP3    H271888   3.864   0.762  11.344 -1.1142 -1.8309  0.2126
16825TIP3   OH271889   2.984   4.810  13.082 -0.2672  0.0191  0.7164
16825TIP3    H171890   2.996   4.900  13.113  0.6564  0.3728 -0.6365
16825TIP3    H271891   3.019   4.810  12.993 -2.7455 -1.0342 -0.2919
16826TIP3   OH271892   0.241   5.259  13.342 -0.0100  0.0793  0.6607
16826TIP3    H171893   0.273   5.186  13.394  0.8980 -0.1441 -0.1894
16826TIP3    H271894   0.299   5.332  13.364  0.1318  0.0899  0.2580
16827TIP3   OH271895   5.023   0.916   1.134  0.4019  0.1808  0.2959
16827TIP3    H171896   5.099   0.861   1.154 -0.0470 -1.2424 -1.6949
16827TIP3    H271897   4.970   0.863   1.075 -2.6379  0.7901  2.3449
16828TIP3   OH271898   5.766   3.504  15.436 -0.2721  0.0870 -0.1025
16828TIP3    H171899   5.762   3.594  15.404  1.7727  0.8592  1.6455
16828TIP3    H271900   5.754   3.511  15.530  0.5091 -1.4143  0.1320
16829TIP3   OH271901   5.962   5.691  14.611 -0.4067  0.3727 -0.5714
16829TIP3    H171902   5.998   5.626  14.672 -1.1310  0.6121  0.1268
16829TIP3    H271903   6.030   5.702  14.545  0.5042  0.2864  0.3345
16830TIP3   OH271904   6.298   3.780  16.972  0.1548 -0.2711 -0.3418
16830TIP3    H171905   6.307   3.849  17.038 -0.0316 -1.7948  1.2935
16830TIP3    H271906   6.237   3.818  16.908  0.8935  1.5038 -0.0403
16831TIP3   OH271907   1.663   4.468   2.569  0.0144 -0.2246 -0.4885
16831TIP3    H171908   1.593   4.403   2.564  0.2644 -0.3887 -1.8284
16831TIP3    H271909   1.684   4.472   2.663 -2.3571  0.4521  0.0583
16832TIP3   OH271910   2.046   4.866   6.101 -0.1931 -0.0300  0.1410
16832TIP3    H171911   2.111   4.933   6.120 -0.0048 -0.5032  1.1810
16832TIP3    H271912   2.093   4.783   6.107 -1.0463 -0.4258  1.7016
16833TIP3   OH271913   5.444   5.225   4.830 -0.4654  0.4091  0.4409
16833TIP3    H171914   5.378   5.227   4.899  0.2636 -0.7049  1.2065
16833TIP3    H271915   5.521   5.187   4.873  0.0147 -0.2581 -0.9761
16834TIP3   OH271916   3.794   5.796  13.051  0.0837  0.1786  0.1818
16834TIP3    H171917   3.745   5.876  13.068  0.8182  0.5002  0.7772
16834TIP3    H271918   3.875   5.826  13.009 -0.2574 -0.3589 -0.8945
16835TIP3   OH271919   0.882   2.514  12.548  0.2330  0.1489  0.6345
16835TIP3    H171920   0.944   2.442  12.562  0.2597 -0.3310 -1.7450
16835TIP3    H271921   0.915   2.559  12.471 -1.3743  1.0080  0.4281
16836TIP3   OH271922   6.588   0.573  16.786 -0.8561 -0.4996  0.1875
16836TIP3    H171923   6.613   0.570  16.878 -0.6299 -1.8055  0.1015
16836TIP3    H271924   6.527   0.647  16.779  0.8752  1.0142  0.9303
16837TIP3   OH271925   3.215   4.257  10.747 -0.3453 -0.7391 -0.2261
16837TIP3    H171926   3.187   4.327  10.806 -0.4194 -1.0088  0.0594
16837TIP3    H271927   3.135   4.228  10.704 -0.3902 -0.9642  0.0020
16838TIP3   OH271928   2.804   2.693  11.733 -0.0391  0.2131  0.1638
16838TIP3    H171929   2.803   2.676  11.638  1.7135 -0.1565  0.1931
16838TIP3    H271930   2.890   2.731  11.749 -0.5935  0.9273  1.5167
16839TIP3   OH271931   0.773   1.588  15.530  0.0600  0.1608  0.6137
16839TIP3    H171932   0.838   1.571  15.462 -1.7664  2.3631 -1.7900
16839TIP3    H271933   0.766   1.506  15.578  2.1158 -1.1388 -1.2090
16840TIP3   OH271934   0.150   3.698  13.967 -0.4209 -0.0736  0.9269
16840TIP3    H171935   0.215   3.743  13.912 -3.0801  0.0261 -2.2651
16840TIP3    H271936   0.082   3.763  13.983 -1.5392 -1.2647  1.1045
16841TIP3   OH271937   5.897   3.832   3.122  0.6286  0.3805  0.0948
16841TIP3    H171938   5.864   3.921   3.129 -0.8346 -0.1206 -0.3087
16841TIP3    H271939   5.947   3.832   3.040 -0.4248  0.5001 -0.5520
16842TIP3   OH271940   5.460   2.567   6.418  0.4439 -0.4698  0.2493
16842TIP3    H171941   5.481   2.661   6.420  1.3508 -0.6890  1.1131
16842TIP3    H271942   5.379   2.562   6.367 -0.3791  0.9298  1.3770
16843TIP3   OH271943   3.738   6.578   5.223  0.0095  0.2569  0.0343
16843TIP3    H171944   3.720   6.490   5.256  3.3831 -0.1632  0.8895
16843TIP3    H271945   3.659   6.628   5.246 -1.9318 -2.4662 -0.3972
16844TIP3   OH271946   1.313   3.594   3.398 -0.4447 -0.2825  0.4036
16844TIP3    H171947   1.393   3.575   3.348 -1.1792 -1.3760 -0.3511
16844TIP3    H271948   1.320   3.538   3.476 -0.5417 -0.4744  0.2738
16845TIP3   OH271949   5.615   4.107  13.395 -0.2708  0.1400  0.3877
16845TIP3    H171950   5.659   4.050  13.459 -2.5872 -0.7286  1.2572
16845TIP3    H271951   5.584   4.181  13.446  2.3599  2.0623 -0.6761
16846TIP3   OH271952   4.079   0.416  16.405  0.5339  0.2135 -0.2388
16846TIP3    H171953   3.999   0.383  16.444 -0.3821  1.2024 -1.2478
16846TIP3    H271954   4.118   0.471  16.473 -0.4402  0.9581 -0.2666
16847TIP3   OH271955   2.569   2.282  12.857  0.0759 -0.2613  0.4622
16847TIP3    H171956   2.650   2.231  12.859  0.1876 -0.1972 -1.2099
16847TIP3    H271957   2.582   2.350  12.922  2.2000  0.9280 -1.1226
16848TIP3   OH271958   0.158   3.806  10.956 -0.1366 -0.2242  0.1947
16848TIP3    H171959   0.153   3.880  11.016 -0.0980  0.9170 -1.1894
16848TIP3    H271960   0.249   3.777  10.961 -0.3668 -0.7847  1.4259
16849TIP3   OH271961   3.217   6.189   2.398  0.6255  0.7403  0.2395
16849TIP3    H171962   3.265   6.205   2.479  1.2401 -2.8961  0.7007
16849TIP3    H271963   3.286   6.173   2.332  0.0983  0.7404 -0.3157
16850TIP3   OH271964   0.501   3.100   2.772  0.0395 -0.5507  0.3735
16850TIP3    H171965   0.468   3.143   2.693 -1.1932  1.0794  1.7398
16850TIP3    H271966   0.596   3.102   2.763 -0.0556  0.9584 -0.3646
16851TIP3   OH271967   4.863   1.319  12.244 -1.3501  0.2883 -0.2895
16851TIP3    H171968   4.952   1.321  12.208 -0.7708  3.5109  1.1060
16851TIP3    H271969   4.849   1.228  12.269  1.4233 -0.3476 -0.9153
16852TIP3   OH271970   2.651   0.237  13.806 -0.3065  0.2160  0.2761
16852TIP3    H171971   2.746   0.230  13.798 -0.3673 -2.1597  1.1809
16852TIP3    H271972   2.637   0.284  13.889  0.0856 -0.1509  0.5532
16853TIP3   OH271973   6.370   5.419   4.167  0.0955  0.0946  0.1509
16853TIP3    H171974   6.375   5.507   4.202 -2.4484 -0.4591  1.9851
16853TIP3    H271975   6.319   5.370   4.231 -0.4075 -2.1784 -1.9161
16854TIP3   OH271976   3.480   6.290   4.174 -0.1338  0.1270  0.3589
16854TIP3    H171977   3.477   6.283   4.269  0.6801 -0.8623  0.3154
16854TIP3    H271978   3.469   6.384   4.157  0.5364  0.4172  1.4628
16855TIP3   OH271979   4.378   1.981  17.161 -0.5873 -0.5189  0.3285
16855TIP3    H171980   4.368   1.951  17.251 -0.9439 -0.7980  0.1991
16855TIP3    H271981   4.445   2.049  17.166 -0.0376 -1.0800  0.6844
16856TIP3   OH271982   6.747   0.632   4.418 -0.4832 -0.2518  0.6180
16856TIP3    H171983   6.778   0.661   4.504  1.7862  1.4438 -0.7242
16856TIP3    H271984   6.727   0.539   4.430 -1.7609  0.3231  3.3731
16857TIP3   OH271985   6.488   0.223   4.158 -0.7131  0.1430 -0.4853
16857TIP3    H171986   6.500   0.164   4.083 -1.4328  0.4294 -0.8278
16857TIP3    H271987   6.577   0.247   4.184 -0.3080 -2.5641  0.8240
16858TIP3   OH271988   2.706   3.595  15.542  0.1368  0.8669 -0.2863
16858TIP3    H171989   2.748   3.637  15.466  1.9536 -1.7592 -0.7736
16858TIP3    H271990   2.756   3.515  15.557 -2.5633 -0.6058  1.3208
16859TIP3   OH271991   2.075   4.130  15.393  0.4887  0.2587 -0.0366
16859TIP3    H171992   2.074   4.040  15.360  1.4471 -0.0667  0.8051
16859TIP3    H271993   2.140   4.174  15.339 -0.4558  0.6297 -0.8913
16860TIP3   OH271994   5.285   1.309   5.608  0.0153  0.1276  0.2171
16860TIP3    H171995   5.199   1.269   5.594  0.0919  0.0506 -0.0381
16860TIP3    H271996   5.269   1.381   5.669 -0.0087 -0.7547  1.2709
16861TIP3   OH271997   0.703   0.140  12.942 -0.3758  0.2800 -0.3392
16861TIP3    H171998   0.790   0.135  12.982 -0.1260  2.0209 -0.6428
16861TIP3    H271999   0.664   0.054  12.960  2.1448 -1.2725 -1.9439
16862TIP3   OH272000   1.506   2.385   4.584 -0.2272  0.0595 -0.0573
16862TIP3    H172001   1.451   2.382   4.506 -0.0044  0.8974 -0.2521
16862TIP3    H272002   1.591   2.415   4.552  0.2424 -0.8813  0.2976
16863TIP3   OH272003   2.907   6.550  15.439 -0.6611  0.4421 -0.2822
16863TIP3    H172004   2.951   6.621  15.486 -0.9165 -0.3911  1.2568
16863TIP3    H272005   2.917   6.572  15.346  1.0541  1.3998  0.1253
16864TIP3   OH272006   4.187   4.053   4.302 -0.0845  0.9369 -0.5711
16864TIP3    H172007   4.171   4.073   4.394  0.3178 -0.7562 -0.1177
16864TIP3    H272008   4.108   4.084   4.257 -0.8074  0.6827  0.4959
16865TIP3   OH272009   6.248   5.617  12.253 -0.4691  0.3063 -0.8983
16865TIP3    H172010   6.215   5.542  12.203 -0.4582 -0.8734  0.8030
16865TIP3    H272011   6.342   5.619  12.236 -0.1095 -1.3941  0.6760
16866TIP3   OH272012   2.685   3.561   0.299  0.2697 -0.9532  0.0271
16866TIP3    H172013   2.780   3.554   0.294  0.2033 -1.0498 -1.2342
16866TIP3    H272014   2.656   3.564   0.208 -0.6911  2.2663  0.3811
16867TIP3   OH272015   4.779   5.821   5.151 -0.0847 -0.2545  0.1482
16867TIP3    H172016   4.723   5.898   5.164 -1.2833 -0.9190 -1.0788
16867TIP3    H272017   4.807   5.797   5.240 -1.6755  0.1392  0.7696
16868TIP3   OH272018   5.142   0.118   2.641  0.4921 -0.1176 -0.0251
16868TIP3    H172019   5.193   0.190   2.605  1.4854 -0.6100  0.3796
16868TIP3    H272020   5.081   0.095   2.571  2.2236 -0.8811 -1.3222
16869TIP3   OH272021   2.838   4.759  13.470  0.4790 -0.1250 -0.0899
16869TIP3    H172022   2.867   4.692  13.533  0.1045  0.0958  0.3157
16869TIP3    H272023   2.818   4.709  13.391  2.9484 -0.1695 -0.7107
16870TIP3   OH272024   4.077   6.495   2.469  0.4197  0.1505  0.1152
16870TIP3    H172025   4.126   6.518   2.547  1.4931  1.8567 -1.0132
16870TIP3    H272026   4.129   6.427   2.426  0.3274 -0.0898  0.3865
16871TIP3   OH272027   4.927   6.499  15.859  0.0407  0.2252 -0.2768
16871TIP3    H172028   4.859   6.441  15.893 -1.4787  2.5307  0.7136
16871TIP3    H272029   4.924   6.486  15.764 -1.9768  0.5326 -0.2610
16872TIP3   OH272030   0.933   0.309   4.468 -0.1028  0.1022  0.2003
16872TIP3    H172031   1.005   0.357   4.428  0.8390 -1.1719  0.3121
16872TIP3    H272032   0.974   0.263   4.542 -1.3215  0.4852  1.1276
16873TIP3   OH272033   4.109   0.622   5.603 -0.1037 -0.2053  0.2890
16873TIP3    H172034   4.058   0.547   5.632  1.9751 -1.9139 -0.2862
16873TIP3    H272035   4.198   0.587   5.591  0.2675  1.6371 -2.9138
16874TIP3   OH272036   4.599   4.366   4.597 -0.3253 -0.0830 -0.3613
16874TIP3    H172037   4.633   4.449   4.630  1.0411 -0.9407  0.4032
16874TIP3    H272038   4.539   4.392   4.527  1.7305  1.4904 -1.6088
16875TIP3   OH272039   6.669   1.589   4.975 -0.4283 -0.3466  0.4447
16875TIP3    H172040   6.653   1.523   4.908 -1.9780  1.5821 -1.1633
16875TIP3    H272041   6.734   1.647   4.937 -0.6824  0.2822  0.9417
16876TIP3   OH272042   4.528   2.750  13.510 -0.2244 -0.5857 -0.3954
16876TIP3    H172043   4.474   2.675  13.485  0.5172 -0.8846 -1.1169
16876TIP3    H272044   4.600   2.712  13.560  0.2132 -0.3720 -0.8576
16877TIP3   OH272045   1.724   1.785  16.280 -0.2886  0.0359 -0.4920
16877TIP3    H172046   1.752   1.709  16.332  0.1253  0.4538 -0.0924
16877TIP3    H272047   1.644   1.756  16.237  2.0283 -2.0257 -3.5996
16878TIP3   OH272048   1.196   0.398   4.399 -0.6748  0.0359 -0.2909
16878TIP3    H172049   1.231   0.392   4.488 -0.3795 -1.2752 -0.4834
16878TIP3    H272050   1.266   0.364   4.343 -1.1076  0.2374 -0.9587
16879TIP3   OH272051   3.281   0.661   0.840 -0.0994 -0.0437  0.3927
16879TIP3    H172052   3.315   0.603   0.772 -0.2295  1.8892 -1.3842
16879TIP3    H272053   3.210   0.709   0.797 -0.2889  1.1021  1.9327
16880TIP3   OH272054   2.097   5.971   1.756  0.3054  0.0923 -0.3089
16880TIP3    H172055   2.009   5.933   1.759  0.4156 -0.1643 -0.2683
16880TIP3    H272056   2.120   5.971   1.663  0.1393  0.4463 -0.3496
16881TIP3   OH272057   1.157   4.148  13.575  0.2937 -0.8570  0.3961
16881TIP3    H172058   1.074   4.102  13.558  1.1557 -2.7496  1.1532
16881TIP3    H272059   1.151   4.227  13.522 -1.8682 -1.1197  0.1778
16882TIP3   OH272060   2.724   1.829  14.201 -1.0810  0.4397 -0.0586
16882TIP3    H172061   2.706   1.736  14.191 -1.5230  0.7390 -2.4916
16882TIP3    H272062   2.671   1.871  14.133  1.1052  2.2426 -0.7288
16883TIP3   OH272063   2.216   4.808   3.467 -0.3367 -0.5440 -0.7881
16883TIP3    H172064   2.307   4.786   3.489 -0.5486 -0.1150  0.5492
16883TIP3    H272065   2.221   4.844   3.378  0.8575 -0.1117 -0.5534
16884TIP3   OH272066   0.675   0.809   0.315 -0.3947 -0.5923  0.0062
16884TIP3    H172067   0.648   0.806   0.407  0.1107  1.6928  0.2472
16884TIP3    H272068   0.718   0.894   0.305  0.7016 -1.3638 -2.0363
16885TIP3   OH272069   3.629   6.380   2.509  0.5789 -0.6627  0.1214
16885TIP3    H172070   3.562   6.379   2.441  0.9413  1.6206 -0.3203
16885TIP3    H272071   3.712   6.374   2.462  0.7925 -0.2043  0.4341
16886TIP3   OH272072   4.048   0.797   5.143 -0.0969  0.0976 -0.6070
16886TIP3    H172073   4.034   0.725   5.205 -0.1806 -0.5281 -1.3528
16886TIP3    H272074   4.009   0.767   5.061  0.3906  0.7512 -1.0868
16887TIP3   OH272075   6.407   2.663   1.771 -0.3908  0.4167  0.5181
16887TIP3    H172076   6.313   2.666   1.787 -0.6831 -0.1219 -1.0477
16887TIP3    H272077   6.415   2.664   1.676  1.2615  2.6044  0.6508
16888TIP3   OH272078   4.817   0.138  13.446 -0.3433  0.6926  0.3032
16888TIP3    H172079   4.819   0.192  13.367  1.8548  1.2991  0.7386
16888TIP3    H272080   4.884   0.071  13.431 -0.0677  0.6686  1.5314
16889TIP3   OH272081   3.830   4.044   0.398  0.1427  0.0472  0.1993
16889TIP3    H172082   3.752   3.990   0.413  0.1871 -0.1854 -0.3578
16889TIP3    H272083   3.795   4.126   0.363  0.0177  0.7139  1.8671
16890TIP3   OH272084   3.105   4.929   1.758 -0.2566  0.4587  0.0710
16890TIP3    H172085   3.098   4.869   1.833 -0.9313 -0.3006 -0.5843
16890TIP3    H272086   3.077   5.014   1.793  1.3666  0.5561  1.1791
16891TIP3   OH272087   5.965   3.887  16.183  0.1334  0.3837  0.4453
16891TIP3    H172088   5.953   3.962  16.241  2.2245 -0.5758  2.2051
16891TIP3    H272089   5.904   3.821  16.216  1.9709 -0.4907  2.2258
16892TIP3   OH272090   2.629   1.002   5.360  0.4497 -0.1675  0.2059
16892TIP3    H172091   2.562   0.955   5.409  0.0250  1.4573  1.1955
16892TIP3    H272092   2.623   1.093   5.390  2.1277  0.2860 -0.7346
16893TIP3   OH272093   4.506   3.938  12.265 -0.2207 -1.0441 -0.0818
16893TIP3    H172094   4.564   3.863  12.280  2.3958  0.6009 -1.5303
16893TIP3    H272095   4.476   3.962  12.353 -0.2290 -3.1025  0.5074
16894TIP3   OH272096   5.842   4.090   4.376 -0.0369 -0.0921 -0.7330
16894TIP3    H172097   5.777   4.061   4.312 -0.0750 -1.8216  0.0846
16894TIP3    H272098   5.813   4.052   4.459  1.6351 -0.2995 -0.2382
16895TIP3   OH272099   3.353   3.746  15.407 -0.1622 -0.1912 -0.1912
16895TIP3    H172100   3.349   3.771  15.500 -0.8909 -1.7187  0.1954
16895TIP3    H272101   3.444   3.764  15.382 -0.3064  1.5385  0.4334
16896TIP3   OH272102   5.007   4.455  10.354 -0.1590 -0.2287  0.0118
16896TIP3    H172103   5.006   4.476  10.447  0.1766 -1.6155  0.3335
16896TIP3    H272104   4.915   4.441  10.332 -0.6751  3.6440 -0.7202
16897TIP3   OH272105   3.271   5.240   5.461 -0.1930  0.5700  0.1301
16897TIP3    H172106   3.244   5.249   5.369  0.5748  2.2713  0.0532
16897TIP3    H272107   3.270   5.329   5.495  0.5665  0.0747  1.4838
16898TIP3   OH272108   4.793   0.533   2.374  0.0461  0.6612 -0.7795
16898TIP3    H172109   4.820   0.598   2.438 -1.8770  2.1401 -1.3865
16898TIP3    H272110   4.697   0.533   2.380 -0.1240  0.2565 -3.0422
16899TIP3   OH272111   3.923   4.998  11.919 -0.2235 -0.0714 -0.1236
16899TIP3    H172112   3.991   5.021  11.855  2.2365  0.0940  2.4507
16899TIP3    H272113   3.841   5.021  11.875  1.3880  0.4891 -3.0235
16900TIP3   OH272114   0.618   0.435   1.915  0.4337 -0.1753 -0.3035
16900TIP3    H172115   0.646   0.467   1.829  0.6034  1.1447  0.2440
16900TIP3    H272116   0.655   0.496   1.978 -1.7973  0.3416  0.5710
16901TIP3   OH272117   2.010   0.383  12.044  0.3378  0.7717 -0.1795
16901TIP3    H172118   2.055   0.459  12.080 -0.8619  0.8293  1.2531
16901TIP3    H272119   1.917   0.406  12.046 -0.0194 -0.6056 -0.0245
16902TIP3   OH272120   6.049   6.057   2.607  0.3487 -0.3339 -0.2530
16902TIP3    H172121   5.989   6.123   2.643 -0.4402 -0.2513 -1.6709
16902TIP3    H272122   6.136   6.090   2.630 -0.1184 -0.0535  1.1590
16903TIP3   OH272123   1.696   3.587  14.091  0.0297  0.2842 -0.1350
16903TIP3    H172124   1.740   3.671  14.081 -0.2905  0.6238  1.2518
16903TIP3    H272125   1.761   3.523  14.062  0.4355  0.9698 -0.7568
16904TIP3   OH272126   2.163   0.525   0.250 -0.2175 -0.1413  0.2222
16904TIP3    H172127   2.098   0.595   0.252 -0.7966 -0.6280 -0.7605
16904TIP3    H272128   2.199   0.529   0.161 -0.0501 -0.8937  0.2513
16905TIP3   OH272129   5.410   3.352  17.045 -0.4818 -0.3023 -1.0050
16905TIP3    H172130   5.458   3.433  17.065 -1.4575 -0.0436  0.3796
16905TIP3    H272131   5.445   3.323  16.961  1.4397  0.3795 -0.4675
16906TIP3   OH272132   1.779   2.728   6.600  0.0584  0.3431  0.5022
16906TIP3    H172133   1.725   2.788   6.547  1.6173  1.4605  0.1253
16906TIP3    H272134   1.776   2.765   6.688 -0.5588 -0.1261  0.6748
16907TIP3   OH272135   6.533   4.927   1.754  0.5891 -1.2177  0.3081
16907TIP3    H172136   6.531   5.021   1.738 -1.9967 -1.1454  0.8812
16907TIP3    H272137   6.548   4.888   1.667  0.0350 -0.3482 -0.1817
16908TIP3   OH272138   5.140   0.995   3.362  0.3697 -0.0718  0.2401
16908TIP3    H172139   5.191   0.928   3.406  1.9631  1.1447  0.2963
16908TIP3    H272140   5.126   0.961   3.273 -0.0274 -1.0737  0.6862
16909TIP3   OH272141   4.428   3.342  12.092 -0.1772  0.1506 -0.2285
16909TIP3    H172142   4.494   3.298  12.039  1.2157  0.4612  1.2084
16909TIP3    H272143   4.389   3.407  12.032 -0.9551 -1.7302 -1.8026
16910TIP3   OH272144   5.506   3.524  14.254  0.3622  0.1921 -0.1449
16910TIP3    H172145   5.533   3.486  14.170 -0.6081  0.9853 -0.8144
16910TIP3    H272146   5.525   3.617  14.246  0.2466  0.2783  0.5193
16911TIP3   OH272147   2.935   4.619   5.977 -0.2123  0.1173  0.6984
16911TIP3    H172148   2.971   4.677   5.910  0.6380  0.4948  1.4731
16911TIP3    H272149   3.012   4.585   6.023 -0.6119 -2.6014 -0.5476
16912TIP3   OH272150   3.771   3.295   6.515 -0.0646  0.0002  0.6624
16912TIP3    H172151   3.814   3.251   6.588 -3.7714  0.5425  3.3082
16912TIP3    H272152   3.725   3.226   6.468  1.4256 -0.1834 -0.5756
16913TIP3   OH272153   2.938   5.664  13.372 -0.2783  0.3143 -0.2562
16913TIP3    H172154   2.893   5.603  13.314 -1.8717  0.9219  0.3055
16913TIP3    H272155   2.870   5.695  13.432  0.8944  1.2657  0.6190
16914TIP3   OH272156   0.604   5.640  11.853  0.3182  0.1268 -0.2091
16914TIP3    H172157   0.632   5.731  11.839  0.9679 -0.3897 -2.5280
16914TIP3    H272158   0.677   5.599  11.899 -0.3589  0.9916  1.6761
16915TIP3   OH272159   6.067   1.450  11.299 -0.2193  0.1909 -0.7548
16915TIP3    H172160   6.040   1.372  11.249 -1.4295  0.3263 -0.3311
16915TIP3    H272161   6.136   1.418  11.357 -1.2284 -0.7448 -0.0446
16916TIP3   OH272162   4.036   3.567   4.633 -0.2476 -0.7640  0.2945
16916TIP3    H172163   4.081   3.492   4.672  2.2550 -0.0093 -1.0286
16916TIP3    H272164   3.986   3.529   4.560 -0.2245 -1.3402  0.5715
16917TIP3   OH272165   4.311   1.088  12.113 -0.2263  0.6443  0.4840
16917TIP3    H172166   4.370   1.074  12.039 -0.4626  0.5943  0.3029
16917TIP3    H272167   4.367   1.121  12.183  0.2457 -0.7845  0.7771
16918TIP3   OH272168   4.555   4.474  12.400  0.0564 -0.2730  0.4486
16918TIP3    H172169   4.624   4.413  12.376  0.9834  1.2247 -0.8113
16918TIP3    H272170   4.576   4.554  12.352 -1.4765  0.8382  1.5692
16919TIP3   OH272171   0.664   4.111   3.159  0.2261  0.7110  0.2994
16919TIP3    H172172   0.651   4.157   3.076 -1.9140  0.2808  0.3638
16919TIP3    H272173   0.633   4.022   3.141  1.8499 -0.0041  0.9353
16920TIP3   OH272174   3.376   4.437  15.616 -0.3421 -0.6108  0.2609
16920TIP3    H172175   3.285   4.462  15.599 -0.0985  2.1783  2.6311
16920TIP3    H272176   3.420   4.447  15.532 -1.5790  1.1115 -0.2250
16921TIP3   OH272177   3.953   2.549  11.164 -0.0141 -0.3879  0.1633
16921TIP3    H172178   3.886   2.614  11.185  2.2614  1.0414  3.4195
16921TIP3    H272179   3.946   2.483  11.233  1.0710 -0.9120 -0.2131
16922TIP3   OH272180   4.945   3.736  17.208 -0.3006  0.1221 -0.2275
16922TIP3    H172181   4.984   3.821  17.226 -3.1434  1.0535  1.9316
16922TIP3    H272182   4.991   3.675  17.266 -0.9447  0.9338  1.1686
16923TIP3   OH272183   0.785   1.852  15.610  0.4556 -0.0033 -0.1835
16923TIP3    H172184   0.694   1.880  15.599 -0.1031 -1.3320  0.7692
16923TIP3    H272185   0.786   1.762  15.577  0.8624 -0.7921  1.8433
16924TIP3   OH272186   0.023   1.371   0.463 -0.3704 -0.2738 -0.3800
16924TIP3    H172187  -0.066   1.333   0.465 -1.2143  1.6366 -0.9371
16924TIP3    H272188   0.046   1.372   0.371 -0.5258  0.9349 -0.4134
16925TIP3   OH272189   2.374   1.994  13.540  0.2369  0.0817 -0.1141
16925TIP3    H172190   2.402   2.019  13.452  0.5703  0.5464  0.1220
16925TIP3    H272191   2.398   1.901  13.547  2.7085  0.7184  0.4559
16926TIP3   OH272192   4.041   3.446   1.123 -0.5154 -0.2874 -0.7075
16926TIP3    H172193   4.131   3.428   1.096 -0.3635 -1.0859  0.2942
16926TIP3    H272194   4.010   3.512   1.061  0.8980  0.2983 -0.8156
16927TIP3   OH272195   3.520   3.473   4.288 -0.3197  0.2879  0.0521
16927TIP3    H172196   3.457   3.523   4.340  1.1151  3.0623 -0.7893
16927TIP3    H272197   3.559   3.411   4.351 -1.3515  0.9533  1.3666
16928TIP3   OH272198   2.374   6.028  12.812  0.5733 -0.5435  0.4052
16928TIP3    H172199   2.423   6.051  12.891 -2.2026 -0.2338  2.1038
16928TIP3    H272200   2.346   6.113  12.776 -0.2861 -0.7927  0.4834
16929TIP3   OH272201   6.649   6.259   2.504 -0.1262 -0.1299  0.5242
16929TIP3    H172202   6.620   6.350   2.499  2.4139  0.6597 -0.9335
16929TIP3    H272203   6.573   6.207   2.477 -0.4416  1.7789 -2.4982
16930TIP3   OH272204   2.173   0.328   6.004 -0.7501 -0.2281 -0.1813
16930TIP3    H172205   2.089   0.354   5.965 -0.9194  0.2799  0.5004
16930TIP3    H272206   2.149   0.290   6.089 -0.1520  1.9170  0.9934
16931TIP3   OH272207   2.091   6.554   1.978 -0.0539 -0.7754 -0.1436
16931TIP3    H172208   2.143   6.633   1.993  1.4905 -0.9877 -3.8480
16931TIP3    H272209   2.151   6.482   1.999  0.6865 -0.9992 -2.8783
16932TIP3   OH272210   0.537   5.583   5.001 -0.1633  0.0612 -0.0600
16932TIP3    H172211   0.444   5.579   5.021 -0.5987 -0.2926 -2.0505
16932TIP3    H272212   0.578   5.522   5.063 -1.1613  0.6707  1.2213
16933TIP3   OH272213   5.833   3.491  17.006  0.0015 -0.1608 -0.2804
16933TIP3    H172214   5.879   3.574  17.018  1.5300 -0.9335 -0.7592
16933TIP3    H272215   5.745   3.508  17.040  0.7219  1.2229  0.9342
16934TIP3   OH272216   1.967   0.701  14.537 -0.5348  0.2145 -0.1083
16934TIP3    H172217   1.991   0.686  14.445 -0.4528 -0.6891  0.0513
16934TIP3    H272218   2.010   0.783  14.560  1.5269 -0.8169 -0.1606
16935TIP3   OH272219   6.486   6.555  13.109 -0.2795 -0.2361 -0.3613
16935TIP3    H172220   6.424   6.628  13.108 -1.0092 -0.8510 -1.1225
16935TIP3    H272221   6.516   6.547  13.019  0.3985 -0.3809 -0.1284
16936TIP3   OH272222   0.637   6.140   3.594  0.0254 -0.3927  0.7891
16936TIP3    H172223   0.622   6.187   3.676 -1.6327 -1.3496  1.0490
16936TIP3    H272224   0.554   6.148   3.546  0.1540 -1.9751  0.2931
16937TIP3   OH272225   2.913   6.654   2.634  0.0474  0.0028 -0.1874
16937TIP3    H172226   2.935   6.576   2.686 -1.2772 -1.1660 -1.3153
16937TIP3    H272227   2.818   6.650   2.625 -0.1708  2.4363  0.7323
16938TIP3   OH272228   5.332   1.198  11.538 -0.1759 -0.2984  0.0147
16938TIP3    H172229   5.250   1.242  11.563 -1.1580 -1.3993 -1.2153
16938TIP3    H272230   5.364   1.159  11.620  0.0122  1.5373  0.8452
16939TIP3   OH272231   6.152   2.753  16.107  0.0146  0.4400  0.3637
16939TIP3    H172232   6.164   2.664  16.075  1.3401  0.7673 -0.0973
16939TIP3    H272233   6.059   2.772  16.092 -0.2816 -0.8597  0.4927
16940TIP3   OH272234   0.023   6.575   5.029 -0.7496 -0.3010 -0.2691
16940TIP3    H172235   0.043   6.532   5.112 -0.4102  2.9406  1.4036
16940TIP3    H272236  -0.059   6.622   5.046  0.4353  2.1191 -1.0477
16941TIP3   OH272237   5.619   3.073  12.686 -0.5973  0.2277  0.2390
16941TIP3    H172238   5.586   3.094  12.599  0.1052  0.2646 -0.0141
16941TIP3    H272239   5.541   3.079  12.743 -1.3302 -1.1182 -0.6004
16942TIP3   OH272240   5.368   1.593   2.702  0.4985 -0.2652 -0.0647
16942TIP3    H172241   5.390   1.512   2.656  0.0715 -0.7573  0.5978
16942TIP3    H272242   5.300   1.568   2.764  1.5249  0.2618  1.3019
16943TIP3   OH272243   2.426   1.806   5.714  0.2342  0.0423  1.0600
16943TIP3    H172244   2.482   1.856   5.773  2.5198 -0.7351 -0.3708
16943TIP3    H272245   2.481   1.789   5.638 -1.7056 -1.4681 -0.0486
16944TIP3   OH272246   4.990   1.206   1.117 -0.0188  0.6869 -0.3981
16944TIP3    H172247   4.984   1.113   1.136 -1.7070  0.7209 -0.7104
16944TIP3    H272248   5.083   1.226   1.123  0.1668 -0.6661  1.3212
16945TIP3   OH272249   6.032   3.808  13.013  1.2037 -0.2926 -0.7737
16945TIP3    H172250   6.024   3.848  13.100 -1.5896  0.6743 -1.4388
16945TIP3    H272251   6.108   3.851  12.974  2.8780 -1.1956  1.3966
16946TIP3   OH272252   4.014   1.546   3.617 -0.0381 -0.1496 -0.2681
16946TIP3    H172253   4.054   1.575   3.699  1.1507 -0.6670 -0.6546
16946TIP3    H272254   3.938   1.495   3.645 -1.1407  1.8381  0.4432
16947TIP3   OH272255   4.413   0.240   5.030 -0.4985  0.1826 -0.1720
16947TIP3    H172256   4.375   0.158   5.000 -1.0773  1.1320 -2.1495
16947TIP3    H272257   4.507   0.227   5.026 -0.5729 -1.1582  1.8088
16948TIP3   OH272258   4.961   2.027  11.422  0.2956  0.0973 -0.2466
16948TIP3    H172259   4.946   1.955  11.361 -0.6969 -1.1619  1.4468
16948TIP3    H272260   5.053   2.049  11.411  0.5823 -1.3507 -0.8747
16949TIP3   OH272261   3.616   3.896   0.486  0.9768 -1.3370  0.2441
16949TIP3    H172262   3.566   3.977   0.487  1.0387 -1.2698 -1.2516
16949TIP3    H272263   3.614   3.865   0.577 -1.4421 -1.1315  0.2864
16950TIP3   OH272264   1.545   1.957  13.754  0.1202 -0.3351 -0.9224
16950TIP3    H172265   1.617   1.982  13.696  1.4602  1.3579  1.3605
16950TIP3    H272266   1.508   2.040  13.784 -1.5561 -1.1872 -0.5884
16951TIP3   OH272267   2.961   0.103   4.686  0.3948 -0.0226  0.1138
16951TIP3    H172268   2.977   0.017   4.724 -1.0056 -0.2727  0.1669
16951TIP3    H272269   2.866   0.112   4.688  0.5299  1.4796  0.0078
16952TIP3   OH272270   4.876   1.629   0.575 -0.5565 -0.0837  0.4907
16952TIP3    H172271   4.928   1.580   0.639 -0.7235  0.1040  0.7715
16952TIP3    H272272   4.829   1.694   0.627  0.4176  1.0224  0.0051
16953TIP3   OH272273   3.752   5.211  16.544 -0.3337  0.0907 -0.4760
16953TIP3    H172274   3.694   5.138  16.521 -0.3477  0.4562 -1.6532
16953TIP3    H272275   3.815   5.173  16.605 -0.5025 -0.8509 -0.8733
16954TIP3   OH272276   1.242   0.566   2.183 -0.4875 -0.0232  0.4569
16954TIP3    H172277   1.176   0.514   2.228  0.2491 -2.6204 -1.3309
16954TIP3    H272278   1.314   0.574   2.245 -1.0381 -0.2404  1.1190
16955TIP3   OH272279   0.114   1.001  12.930  0.2830 -0.0305  0.3195
16955TIP3    H172280   0.051   0.932  12.949 -0.2981 -0.4804 -2.8489
16955TIP3    H272281   0.073   1.082  12.961 -0.5602 -0.6953  0.9150
16956TIP3   OH272282   5.579   4.998   2.551  0.2272 -0.1782  0.1674
16956TIP3    H172283   5.591   5.078   2.501  3.2442 -1.1308 -0.7410
16956TIP3    H272284   5.497   4.961   2.518 -0.6729  1.9914 -0.1011
16957TIP3   OH272285   0.260   3.755   1.763 -0.2409 -0.0873 -0.8433
16957TIP3    H172286   0.189   3.810   1.730 -0.7841 -0.9826 -1.1977
16957TIP3    H272287   0.224   3.666   1.760  0.1619 -0.3264  0.9388
16958TIP3   OH272288   1.633   0.823  11.195  0.5004  0.2551  0.7728
16958TIP3    H172289   1.722   0.805  11.226  0.6636 -2.3311 -1.0441
16958TIP3    H272290   1.577   0.767  11.249  0.2236  0.0733  0.2957
16959TIP3   OH272291   6.118   0.651  15.423 -0.0989  0.3422  0.0246
16959TIP3    H172292   6.199   0.635  15.472  0.3505  2.3800  0.0011
16959TIP3    H272293   6.057   0.585  15.456  0.7444  0.5104  2.0330
16960TIP3   OH272294   5.354   4.210   3.483 -0.1162 -0.0954  0.4724
16960TIP3    H172295   5.278   4.153   3.478  0.0987 -0.3629  0.2409
16960TIP3    H272296   5.344   4.270   3.409  0.3848 -0.7362 -0.1193
16961TIP3   OH272297   3.789   3.345  13.483 -0.6834  0.9148 -0.0899
16961TIP3    H172298   3.765   3.257  13.455  0.5101  0.5583 -0.0045
16961TIP3    H272299   3.717   3.372  13.541 -0.4169 -0.5197  0.9301
16962TIP3   OH272300   3.684   1.627   4.063 -0.4894  0.0195  0.5178
16962TIP3    H172301   3.642   1.593   4.142 -1.3653 -1.6582 -0.6354
16962TIP3    H272302   3.621   1.609   3.993  0.3644  1.2991 -0.6112
16963TIP3   OH272303   4.355   3.359  15.991 -0.0169  0.6881  0.4247
16963TIP3    H172304   4.392   3.295  15.930 -2.7755 -0.1432 -0.4422
16963TIP3    H272305   4.431   3.406  16.025  1.7732 -0.5782 -1.6909
16964TIP3   OH272306   6.520   0.044  15.067 -0.0606 -0.1050 -0.3674
16964TIP3    H172307   6.601  -0.006  15.053 -0.2236 -0.4477 -0.0686
16964TIP3    H272308   6.490   0.065  14.978  1.7212  2.2443 -0.4671
16965TIP3   OH272309   6.184   5.383  12.150  0.1405  0.4795 -0.0767
16965TIP3    H172310   6.136   5.421  12.076  0.2798  0.4384 -0.1872
16965TIP3    H272311   6.180   5.288  12.135  2.8377  0.6044 -1.6748
16966TIP3   OH272312   5.111   3.064  16.291 -0.1478 -0.0132  0.1921
16966TIP3    H172313   5.024   3.077  16.329 -0.3565 -0.2786 -0.1913
16966TIP3    H272314   5.157   3.146  16.308 -1.1021  0.8509 -1.2521
16967TIP3   OH272315   6.359   5.451  14.380  0.2280 -0.3863  0.4522
16967TIP3    H172316   6.284   5.459  14.440  0.1337  1.1124  0.1574
16967TIP3    H272317   6.320   5.450  14.293  0.5779  1.0658  0.2661
16968TIP3   OH272318   0.423   5.838   3.094  0.9449  0.1804  0.2254
16968TIP3    H172319   0.489   5.890   3.049  0.1586  0.6538 -0.3912
16968TIP3    H272320   0.365   5.806   3.024 -1.1234  2.0989  0.9940
16969TIP3   OH272321   0.746   1.074   4.061  0.3007 -0.2547 -0.2763
16969TIP3    H172322   0.722   1.060   4.152 -1.4487 -0.1921 -0.7213
16969TIP3    H272323   0.794   1.157   4.061 -1.1226  0.5874  0.3610
16970TIP3   OH272324   6.427   1.985  16.532  0.0332  0.1155  0.0736
16970TIP3    H172325   6.425   2.049  16.603 -0.5496  0.5921 -0.3729
16970TIP3    H272326   6.497   1.924  16.557 -0.8252 -0.2808  1.5298
16971TIP3   OH272327   2.906   0.453   5.205  0.2604  0.4897  0.3767
16971TIP3    H172328   2.864   0.386   5.259  0.2780 -0.3324 -0.6064
16971TIP3    H272329   2.900   0.419   5.116  2.1981  0.7641  0.1069
16972TIP3   OH272330   6.172   4.541  12.543  0.0590  0.2754 -0.2082
16972TIP3    H172331   6.214   4.568  12.625  1.2134  0.4410 -0.8463
16972TIP3    H272332   6.102   4.482  12.570  0.8462 -0.1839  0.8569
16973TIP3   OH272333   5.499   2.099   1.511  0.0978  0.1964 -0.7733
16973TIP3    H172334   5.451   2.108   1.593 -0.1436  0.7182 -0.9651
16973TIP3    H272335   5.544   2.015   1.518 -0.7641 -0.2533 -0.5482
16974TIP3   OH272336   2.054   3.235  16.024 -0.0161  0.2801  0.5192
16974TIP3    H172337   2.031   3.306  16.083 -1.5409  0.2199  0.0272
16974TIP3    H272338   2.072   3.160  16.081 -2.2010  0.0196  0.8939
16975TIP3   OH272339   1.069   2.991  16.898  0.1242  0.6148 -0.0380
16975TIP3    H172340   1.048   2.976  16.990  1.1169 -0.5441  0.0072
16975TIP3    H272341   1.153   3.037  16.899  0.5960 -0.2314 -0.3866
16976TIP3   OH272342   6.330   5.724   2.246  0.3914 -0.2717 -0.0436
16976TIP3    H172343   6.326   5.645   2.299  3.1132  0.2718  1.0677
16976TIP3    H272344   6.288   5.792   2.299  0.6966 -0.3299  0.2726
16977TIP3   OH272345   1.478   3.156   2.185  0.6821  0.6810  0.0042
16977TIP3    H172346   1.421   3.091   2.145  0.0419  0.8940  0.5611
16977TIP3    H272347   1.421   3.232   2.200  1.6305  1.7431 -1.5482
16978TIP3   OH272348   6.486   3.952   1.667 -0.0086 -0.9006  0.0454
16978TIP3    H172349   6.536   4.031   1.646 -1.1696 -0.4684 -1.1735
16978TIP3    H272350   6.533   3.912   1.740  0.8641  0.6626  0.3501
16979TIP3   OH272351   0.062   6.767   3.887 -0.0699  0.6743 -0.1121
16979TIP3    H172352   0.139   6.765   3.944  1.5494  0.3164 -2.2335
16979TIP3    H272353   0.010   6.841   3.919  1.8309  1.7725  0.5080
16980TIP3   OH272354   0.588   2.477  17.130 -0.2893 -0.4290 -0.2663
16980TIP3    H172355   0.602   2.419  17.055  0.3944  0.8794 -1.1603
16980TIP3    H272356   0.533   2.547  17.095  1.2778  0.9717  0.0677
16981TIP3   OH272357   5.707   2.881   6.456  0.2794 -0.1146 -0.0843
16981TIP3    H172358   5.688   2.792   6.487  0.5905  0.2621  1.2256
16981TIP3    H272359   5.680   2.881   6.365 -1.6653 -0.9514  0.4744
16982TIP3   OH272360   5.306   2.697  14.917 -0.4144 -0.5278  0.0604
16982TIP3    H172361   5.260   2.614  14.931  1.0640 -1.3066  0.5238
16982TIP3    H272362   5.397   2.678  14.943 -0.1405  1.3556  0.5883
16983TIP3   OH272363   4.459   2.231  16.025 -0.0909  0.0226  0.4952
16983TIP3    H172364   4.459   2.325  16.041 -0.9983 -0.2986  2.6374
16983TIP3    H272365   4.527   2.197  16.084  0.0708 -0.6782 -0.0878
16984TIP3   OH272366   5.986   0.955  12.158  0.1726 -0.7889  0.0428
16984TIP3    H172367   6.036   1.003  12.223 -0.6836 -0.4724  0.4788
16984TIP3    H272368   6.034   0.968  12.076  1.0680 -0.9135  0.5538
16985TIP3   OH272369   2.376   1.554   4.837 -0.1559  0.2685  0.0600
16985TIP3    H172370   2.374   1.611   4.914  1.4382  2.1992 -1.2922
16985TIP3    H272371   2.336   1.473   4.867  1.8144  0.4375  3.3482
16986TIP3   OH272372   3.296   4.970  11.273  0.0464  0.3247 -0.5190
16986TIP3    H172373   3.233   4.898  11.267 -1.9287  2.0347 -0.7480
16986TIP3    H272374   3.343   4.967  11.189  0.8331 -1.4259 -0.0494
16987TIP3   OH272375   3.087   6.484   6.370 -0.3177 -0.2232 -0.5763
16987TIP3    H172376   3.110   6.570   6.407 -1.5838  0.2808 -0.9250
16987TIP3    H272377   3.158   6.465   6.308 -1.1941  1.6986 -2.2485
16988TIP3   OH272378   1.791   2.470   4.473 -0.0118  0.8967  0.9931
16988TIP3    H172379   1.750   2.470   4.386  1.1722  3.3959  0.3815
16988TIP3    H272380   1.861   2.406   4.467  0.1119  1.1064  0.0697
16989TIP3   OH272381   2.825   0.898  11.947  0.5088  0.1028  0.5694
16989TIP3    H172382   2.892   0.967  11.949 -0.2667  0.8683  0.7855
16989TIP3    H272383   2.873   0.817  11.960  1.8325  0.3009 -2.5214
16990TIP3   OH272384   4.977   5.224   0.721 -0.6328 -0.2972  0.7181
16990TIP3    H172385   4.953   5.310   0.686  1.3112  0.0684  0.1863
16990TIP3    H272386   5.069   5.234   0.746 -0.3457 -2.2876  0.5170
16991TIP3   OH272387   2.252   6.357   4.005  0.0042  0.1231  0.5401
16991TIP3    H172388   2.217   6.288   3.948  1.7420 -0.1158 -0.2692
16991TIP3    H272389   2.347   6.345   4.001  0.2738  1.9307  1.1999
16992TIP3   OH272390   2.715   5.957  14.435  1.1467  0.2182  0.0343
16992TIP3    H172391   2.641   5.989  14.486  2.1889  1.9028  0.5325
16992TIP3    H272392   2.681   5.948  14.346 -0.3350 -1.5029  0.7498
16993TIP3   OH272393   2.098   3.043   0.371 -0.2252  0.2237  0.4399
16993TIP3    H172394   2.109   3.133   0.400 -0.7210 -0.3353  2.4276
16993TIP3    H272395   2.003   3.032   0.361 -0.1820 -0.1340  0.3826
16994TIP3   OH272396   4.705   3.789  11.868 -0.3926 -0.3195  0.6506
16994TIP3    H172397   4.612   3.813  11.875 -0.7045 -0.9627 -1.0047
16994TIP3    H272398   4.703   3.698  11.839  0.7679 -0.1572  0.0514
16995TIP3   OH272399   3.722   2.588   0.533  0.5286 -0.5702 -0.1063
16995TIP3    H172400   3.636   2.569   0.569  0.1367 -0.0584 -0.7699
16995TIP3    H272401   3.759   2.501   0.514  0.8335 -0.8563  1.7032
16996TIP3   OH272402   5.817   0.119  16.948 -0.3178 -0.3354  0.6314
16996TIP3    H172403   5.842   0.122  16.856  1.7197  0.3166  1.1808
16996TIP3    H272404   5.723   0.137  16.948 -0.5464 -1.3941 -1.3835
16997TIP3   OH272405   4.623   3.452  12.946 -0.1429 -0.0175  0.3146
16997TIP3    H172406   4.532   3.439  12.972 -0.1523 -0.0677  0.2546
16997TIP3    H272407   4.644   3.541  12.976 -0.5834  0.4583 -0.7467
16998TIP3   OH272408   3.458   3.795   3.576 -0.1197 -0.1293  0.7245
16998TIP3    H172409   3.464   3.840   3.660  1.4320  1.5820 -0.2827
16998TIP3    H272410   3.367   3.807   3.549 -1.1257 -2.2160  2.9446
16999TIP3   OH272411   2.729   4.068   2.283  0.2317  0.1664 -0.2673
16999TIP3    H172412   2.728   3.994   2.223 -0.9143 -0.2041  0.2033
16999TIP3    H272413   2.790   4.130   2.243 -2.9014  1.3378 -3.5573
17000TIP3   OH272414   5.984   1.060   1.474 -0.6395  0.2388 -0.3887
17000TIP3    H172415   6.079   1.048   1.485 -0.2794  0.6776 -2.7579
17000TIP3    H272416   5.948   0.973   1.490  0.2033 -0.0231  0.1604
17001TIP3   OH272417   3.242   1.559   0.380  0.1642 -0.0171  0.8133
17001TIP3    H172418   3.159   1.512   0.375  1.0346 -1.4921 -0.0104
17001TIP3    H272419   3.308   1.493   0.359  1.4822  1.3354  0.6737
17002TIP3   OH272420   4.154   1.518  17.146 -0.6541  0.0342  0.0136
17002TIP3    H172421   4.221   1.509  17.213  0.9339  1.9958 -1.2561
17002TIP3    H272422   4.142   1.613  17.136 -0.4517 -0.1820 -2.8402
17003TIP3   OH272423   3.037   0.912  16.017 -0.1428  0.3970  0.2197
17003TIP3    H172424   3.123   0.889  16.053  0.2984 -0.0384 -1.0967
17003TIP3    H272425   2.978   0.907  16.092  0.6757 -1.0230  0.8016
17004TIP3   OH272426   1.663   4.333   5.373 -0.2618 -1.0564  0.3921
17004TIP3    H172427   1.682   4.384   5.452  0.5683 -0.9514  0.1265
17004TIP3    H272428   1.583   4.284   5.394 -1.2426  0.5764  0.5523
17005TIP3   OH272429   0.248   6.773   0.098  0.1722  0.4495  0.2772
17005TIP3    H172430   0.262   6.857   0.055  0.0392 -0.0253 -0.7077
17005TIP3    H272431   0.163   6.744   0.065  0.9902 -0.8622 -0.6989
17006TIP3   OH272432   1.015   5.898   4.422 -0.4902  0.3166 -0.1787
17006TIP3    H172433   1.070   5.964   4.378 -0.1590  0.0048 -0.2372
17006TIP3    H272434   1.027   5.819   4.370  0.1696 -0.1426  0.6682
17007TIP3   OH272435   3.900   0.695  11.802  0.1612  0.1377  0.3735
17007TIP3    H172436   3.816   0.701  11.757  0.7177 -0.9014 -0.8468
17007TIP3    H272437   3.905   0.775  11.854 -1.5185  0.2607  0.3602
17008TIP3   OH272438   5.062   4.151  13.768  0.3685 -0.4885 -0.0605
17008TIP3    H172439   5.098   4.063  13.760  1.0338 -0.6874  4.0888
17008TIP3    H272440   5.139   4.208  13.780 -0.0705  0.6896 -2.4068
17009TIP3   OH272441   5.728   6.361  12.917 -0.0345 -0.0222 -0.0805
17009TIP3    H172442   5.716   6.311  12.998 -0.7258  0.8767  0.3811
17009TIP3    H272443   5.800   6.420  12.936  0.5295 -0.5768 -0.4958
17010TIP3   OH272444   5.208   4.211   0.685  0.1478 -0.3667 -0.6972
17010TIP3    H172445   5.159   4.210   0.768 -0.8333 -0.6848 -1.2712
17010TIP3    H272446   5.255   4.128   0.684  0.4926 -0.1770 -0.2632
17011TIP3   OH272447   0.204   2.476  15.837  0.1302 -0.0453  0.0857
17011TIP3    H172448   0.150   2.548  15.871  1.4261  1.5651 -1.2257
17011TIP3    H272449   0.294   2.508  15.842  0.8196 -1.9592  0.4036
17012TIP3   OH272450   5.303   5.118  15.656 -0.4628 -0.6828 -0.1973
17012TIP3    H172451   5.329   5.030  15.684 -1.9078 -1.1928 -0.4482
17012TIP3    H272452   5.376   5.149  15.602  1.2756 -0.6501  2.0777
17013TIP3   OH272453   2.625   3.048  15.653 -1.1257  0.2696  0.0705
17013TIP3    H172454   2.618   3.033  15.559 -1.0115  0.0069  0.1020
17013TIP3    H272455   2.534   3.047  15.685 -1.1258 -0.3089  0.0613
17014TIP3   OH272456   1.494   1.562  11.816 -0.7594 -0.4975 -0.2864
17014TIP3    H172457   1.459   1.638  11.769  0.0140  2.0181  3.0471
17014TIP3    H272458   1.577   1.543  11.771 -0.0625  1.8232 -0.0551
17015TIP3   OH272459   5.018   3.576   0.825 -0.1384  0.3607 -0.1135
17015TIP3    H172460   5.069   3.634   0.882  0.0602 -1.0420  1.1586
17015TIP3    H272461   5.028   3.614   0.738  0.5131  1.8791  0.5939
17016TIP3   OH272462   1.197   4.109  16.989 -0.1945  0.2134 -0.1894
17016TIP3    H172463   1.170   4.200  17.006 -0.7496  0.0794 -0.3485
17016TIP3    H272464   1.119   4.057  17.004  0.3045 -0.3275  0.5873
17017TIP3   OH272465   3.342   2.448   6.352  0.0280  0.4317 -0.2697
17017TIP3    H172466   3.299   2.393   6.286  0.0653  0.5690 -0.4096
17017TIP3    H272467   3.367   2.387   6.421  1.5216  0.0055 -1.1551
17018TIP3   OH272468   4.757   3.447   1.088  0.4398 -0.0996  0.2701
17018TIP3    H172469   4.746   3.355   1.065 -2.4076  0.7054 -1.9565
17018TIP3    H272470   4.689   3.463   1.154  0.3561  0.5820  0.0253
17019TIP3   OH272471   2.475   2.712  13.130 -0.1266 -0.2416  0.3752
17019TIP3    H172472   2.509   2.798  13.156  0.2419  0.1154 -1.2782
17019TIP3    H272473   2.551   2.665  13.095 -0.8783 -0.2530 -1.2599
17020TIP3   OH272474   3.974   2.695   5.582 -0.0969  0.0690 -0.5086
17020TIP3    H172475   3.905   2.654   5.530 -0.4604 -3.0059  2.2004
17020TIP3    H272476   3.933   2.715   5.666  2.1054 -1.3448  0.9782
17021TIP3   OH272477   6.336   3.843   5.276  0.2053 -0.1242 -0.1783
17021TIP3    H172478   6.306   3.754   5.295  0.4897 -0.2155 -0.1576
17021TIP3    H272479   6.341   3.885   5.362 -1.3290  0.3647 -0.3051
17022TIP3   OH272480   2.366   1.315   0.665 -0.3438 -0.2079 -0.3646
17022TIP3    H172481   2.271   1.302   0.664 -0.1384 -1.8935  0.1868
17022TIP3    H272482   2.391   1.303   0.756  0.2779  1.3516 -0.3074
17023TIP3   OH272483   6.267   0.327  13.902 -0.0065  0.5331  0.1914
17023TIP3    H172484   6.345   0.317  13.847  1.8463  1.5544  2.5573
17023TIP3    H272485   6.243   0.420  13.893 -0.6729  0.3338 -0.1378
17024TIP3   OH272486   4.372   5.951   6.222  0.0089  0.0076 -0.2084
17024TIP3    H172487   4.363   5.885   6.291  1.3916 -1.0701 -1.0480
17024TIP3    H272488   4.284   5.987   6.212 -0.0182  0.9647  2.9075
17025TIP3   OH272489   1.831   3.884  11.241 -0.2185 -0.3391  0.1039
17025TIP3    H172490   1.920   3.906  11.268  0.4420 -0.5056 -1.8698
17025TIP3    H272491   1.840   3.802  11.193 -1.4089 -0.1911 -0.3927
17026TIP3   OH272492   6.137   2.270  17.206 -0.1588  0.1085  0.6363
17026TIP3    H172493   6.064   2.318  17.167 -0.4148 -1.7463 -1.2524
17026TIP3    H272494   6.108   2.250  17.295 -1.3663  0.6449  0.3699
17027TIP3   OH272495   0.516   0.680   3.105  0.3982  0.7323 -0.5238
17027TIP3    H172496   0.582   0.625   3.148  0.2276 -0.3807 -1.6453
17027TIP3    H272497   0.434   0.634   3.119  0.2822  0.5954 -1.6519
17028TIP3   OH272498   2.739   1.761   4.624  0.1430 -0.0663  0.4635
17028TIP3    H172499   2.760   1.799   4.709  0.3339 -0.5531  0.6400
17028TIP3    H272500   2.707   1.673   4.645 -0.2134 -0.0329  0.0607
17029TIP3   OH272501   2.120   1.858   5.696 -0.3590  0.0913 -0.6520
17029TIP3    H172502   2.169   1.796   5.749  1.5159  0.9168 -1.3804
17029TIP3    H272503   2.090   1.807   5.620 -0.7060 -0.4284 -0.1696
17030TIP3   OH272504   5.729   5.518  13.685  0.5551 -0.2358 -0.0395
17030TIP3    H172505   5.713   5.544  13.594  0.4772 -1.1339 -0.2893
17030TIP3    H272506   5.802   5.455  13.679  1.3782  0.6541  0.6516
17031TIP3   OH272507   3.842   5.457   0.019  0.4359  0.2311 -0.8002
17031TIP3    H172508   3.850   5.551   0.034 -0.9503  0.3173 -0.5107
17031TIP3    H272509   3.750   5.444  -0.003  0.2092 -1.2593  0.8456
17032TIP3   OH272510   5.436   6.386   4.049  0.4476 -0.3599  0.3717
17032TIP3    H172511   5.421   6.294   4.030  0.1870 -0.4344  0.9243
17032TIP3    H272512   5.526   6.402   4.019  1.3848 -1.4223  2.4495
17033TIP3   OH272513   4.128   0.070   1.000  0.0025  0.0931 -0.3352
17033TIP3    H172514   4.208   0.091   1.048 -0.0428 -0.0081 -0.2170
17033TIP3    H272515   4.107  -0.019   1.026 -0.6419  0.4338  0.3133
17034TIP3   OH272516   0.304   1.554  11.979  0.5570 -0.4430 -0.4605
17034TIP3    H172517   0.276   1.619  11.915  0.0826 -0.2036 -0.0185
17034TIP3    H272518   0.249   1.477  11.962 -0.3440  0.0059  0.3668
17035TIP3   OH272519   2.999   0.259   4.333  0.4236  0.0523  0.2189
17035TIP3    H172520   2.996   0.352   4.356  1.9528  0.1639  0.0612
17035TIP3    H272521   3.032   0.216   4.411  0.9023 -0.1948 -0.1156
17036TIP3   OH272522   1.739   2.765  11.130 -0.1100 -0.0579 -0.1557
17036TIP3    H172523   1.748   2.782  11.224  0.8033  0.6485 -0.3624
17036TIP3    H272524   1.791   2.834  11.088 -1.6272  0.4710 -1.2283
17037TIP3   OH272525   2.685   5.055   0.249 -0.8091 -0.7090 -0.2254
17037TIP3    H172526   2.627   5.075   0.175 -0.2269  1.3516 -0.1496
17037TIP3    H272527   2.771   5.040   0.209 -0.7823 -0.9481 -0.0808
17038TIP3   OH272528   1.915   0.341   3.635 -0.4698 -0.0296 -0.0278
17038TIP3    H172529   1.995   0.360   3.585 -0.4866  0.3542  0.0941
17038TIP3    H272530   1.849   0.324   3.568 -0.7203  1.4019 -0.1489
17039TIP3   OH272531   1.914   4.536  11.588 -0.2273 -0.4879 -0.0055
17039TIP3    H172532   1.851   4.498  11.526 -0.9760 -1.6496  1.4232
17039TIP3    H272533   1.879   4.623  11.608 -0.6882 -0.6237 -0.2097
17040TIP3   OH272534   3.808   3.561  11.732 -0.2595  0.0098  0.4878
17040TIP3    H172535   3.777   3.594  11.647  1.6060 -0.5710 -0.4460
17040TIP3    H272536   3.834   3.470  11.714  0.6911  0.0666  1.5425
17041TIP3   OH272537   2.646   5.873   0.965  0.1665  0.1026 -0.0309
17041TIP3    H172538   2.641   5.785   1.001  0.1767  0.6958  1.4524
17041TIP3    H272539   2.726   5.910   1.003  0.1762  0.7520 -0.6580
17042TIP3   OH272540   2.707   4.181   1.100  0.0072  0.7990 -0.4414
17042TIP3    H172541   2.778   4.142   1.152 -0.3717  1.3179  0.4785
17042TIP3    H272542   2.663   4.241   1.161 -1.6062  0.0276 -0.8052
17043TIP3   OH272543   2.907   0.567   5.545 -0.1113  0.0999  0.1800
17043TIP3    H172544   2.845   0.637   5.529 -0.3721 -0.1160  0.2420
17043TIP3    H272545   2.978   0.583   5.483  0.2103  0.8777  0.7428
17044TIP3   OH272546   2.293   2.748  17.224 -0.6105  0.2810  0.1250
17044TIP3    H172547   2.247   2.766  17.306 -1.9782  1.0388 -0.7957
17044TIP3    H272548   2.366   2.691  17.249 -0.2783  1.5176  2.0622
17045TIP3   OH272549   0.134   5.573   5.732  0.6676 -0.0733  0.7406
17045TIP3    H172550   0.098   5.506   5.789  1.3023 -0.5740  0.5638
17045TIP3    H272551   0.067   5.586   5.665 -0.1303  0.6061  1.6612
17046TIP3   OH272552   1.317   5.683  13.027 -0.5018 -0.0682 -0.0056
17046TIP3    H172553   1.249   5.734  12.983 -0.8885  0.2119  0.8964
17046TIP3    H272554   1.274   5.648  13.105  0.5860  0.6863  0.9364
17047TIP3   OH272555   0.871   3.405   0.153 -0.4726  0.3221  0.0829
17047TIP3    H172556   0.870   3.489   0.199  1.1999  0.2102  0.3688
17047TIP3    H272557   0.945   3.358   0.192 -0.3432 -0.6090 -1.2586
17048TIP3   OH272558   5.194   4.902   2.206 -1.0123  0.0153 -0.2614
17048TIP3    H172559   5.148   4.871   2.128  0.4736 -0.0489 -1.1285
17048TIP3    H272560   5.221   4.991   2.185  0.4026 -0.4011 -0.2856
17049TIP3   OH272561   3.341   0.395   5.049 -0.2859  0.6012  1.0500
17049TIP3    H172562   3.295   0.342   5.114  0.7035 -0.5341  0.8577
17049TIP3    H272563   3.396   0.332   5.002 -0.1384  1.5868 -0.1303
17050TIP3   OH272564   5.104   1.358   3.739  0.2673 -0.1873  0.5650
17050TIP3    H172565   5.137   1.364   3.828 -0.2655 -1.1161  0.8289
17050TIP3    H272566   5.064   1.271   3.733  0.6983 -0.3182 -0.7089
17051TIP3   OH272567   2.477   6.270  15.661 -0.4133 -0.2958  0.5209
17051TIP3    H172568   2.522   6.329  15.721  1.0656  1.2583 -2.0544
17051TIP3    H272569   2.392   6.311  15.646  0.8145  1.5500 -1.6891
17052TIP3   OH272570   0.218   0.340   4.411  0.4095 -0.1794  0.3428
17052TIP3    H172571   0.263   0.393   4.345 -0.3413  1.2118  0.9251
17052TIP3    H272572   0.288   0.299   4.461  0.9929 -0.9617 -1.0937
17053TIP3   OH272573   5.016   5.561   2.268 -0.1718  0.1243 -0.2263
17053TIP3    H172574   5.018   5.540   2.361  1.1149  3.5207  0.6089
17053TIP3    H272575   4.928   5.595   2.252 -0.4271 -0.5584 -0.3001
17054TIP3   OH272576   0.166   1.891   0.981  0.8905 -0.0821  0.4234
17054TIP3    H172577   0.080   1.857   1.003  0.2609  0.3582 -1.2802
17054TIP3    H272578   0.227   1.831   1.025 -0.2351 -1.8589 -0.3727
17055TIP3   OH272579   3.588   0.704  12.622 -0.4626 -0.3389 -0.0643
17055TIP3    H172580   3.663   0.762  12.625 -1.8706  1.4824  0.5556
17055TIP3    H272581   3.611   0.632  12.682 -0.3991  1.6657  2.3879
17056TIP3   OH272582   2.472   6.656  12.916  0.5672  0.0377  0.3086
17056TIP3    H172583   2.514   6.726  12.966 -1.6698  1.1345  0.6813
17056TIP3    H272584   2.379   6.665  12.934  0.0579 -1.8755 -1.1425
17057TIP3   OH272585   2.852   5.468   2.085 -0.3815 -0.2052 -0.8632
17057TIP3    H172586   2.824   5.557   2.108 -1.1312 -1.3268  2.8331
17057TIP3    H272587   2.944   5.464   2.113 -0.0522 -0.3157 -1.9365
17058TIP3   OH272588   5.336   1.893   5.964  0.6198  0.0058  0.1211
17058TIP3    H172589   5.379   1.807   5.969  1.8987  0.7378  2.2890
17058TIP3    H272590   5.255   1.881   6.013  1.0493  0.1633  0.8816
17059TIP3   OH272591   5.638   4.756  13.643 -0.6759 -0.3424 -0.3052
17059TIP3    H172592   5.606   4.843  13.619  0.8058  0.3858  0.2630
17059TIP3    H272593   5.659   4.714  13.560 -1.7669 -0.3015 -0.6004
17060TIP3   OH272594   1.453   2.419   0.194 -0.3904  0.0929  0.4124
17060TIP3    H172595   1.507   2.483   0.240 -2.4178  3.6530 -1.9161
17060TIP3    H272596   1.364   2.442   0.219 -1.1436 -2.0520 -0.2698
17061TIP3   OH272597   0.064   4.236   4.565  0.6779 -0.2154 -0.3588
17061TIP3    H172598  -0.028   4.230   4.591  0.8185  0.3334  0.3031
17061TIP3    H272599   0.082   4.153   4.522  0.6047 -1.4855  1.9495
17062TIP3   OH272600   4.030   4.744  15.833  0.0290  0.3549  0.2947
17062TIP3    H172601   4.050   4.657  15.797  0.4641 -0.0950  1.6307
17062TIP3    H272602   4.113   4.791  15.831 -0.3277  0.9594 -0.9882
17063TIP3   OH272603   3.704   0.775   3.279 -0.0439  0.7510  0.5257
17063TIP3    H172604   3.656   0.723   3.345 -0.2225  2.7097  1.9698
17063TIP3    H272605   3.678   0.865   3.296  2.1661  1.5820 -0.3912
17064TIP3   OH272606   5.985   2.809  15.313 -0.4023 -0.0028 -0.3846
17064TIP3    H172607   6.066   2.760  15.296 -1.3347 -1.5868 -0.2827
17064TIP3    H272608   5.984   2.820  15.409  0.2904  1.0910 -0.4865
17065TIP3   OH272609   1.181   0.632  16.823  0.2437  0.0407 -0.2489
17065TIP3    H172610   1.144   0.663  16.906  2.2570  1.1345  0.2519
17065TIP3    H272611   1.110   0.580  16.784 -0.8712 -0.1803  1.9633
17066TIP3   OH272612   1.639   2.770   0.681 -0.6815  0.7921 -0.0029
17066TIP3    H172613   1.699   2.702   0.649  0.0558  1.8695 -0.9555
17066TIP3    H272614   1.573   2.722   0.731  0.7355 -0.4700  0.7164
17067TIP3   OH272615   1.744   3.588  13.770 -0.3424  0.3340  0.0963
17067TIP3    H172616   1.792   3.672  13.770  0.2631  0.0020  0.8019
17067TIP3    H272617   1.654   3.612  13.790  0.0851  0.7058  1.6891
17068TIP3   OH272618   4.780   3.321   3.326  0.0064 -0.2734  0.0652
17068TIP3    H172619   4.772   3.408   3.365  0.6271 -0.3315  0.3266
17068TIP3    H272620   4.767   3.261   3.400  1.6616 -0.3822  0.2903
17069TIP3   OH272621   6.007   0.773  16.205  0.3512  0.3344  0.3635
17069TIP3    H172622   6.068   0.834  16.245  2.7037 -1.7120 -0.0059
17069TIP3    H272623   5.969   0.725  16.279  1.4671 -0.4712  0.4216
17070TIP3   OH272624   2.345   3.595   3.033 -0.2120 -0.4722 -0.1192
17070TIP3    H172625   2.378   3.527   2.975 -0.2129 -0.7119  0.1595
17070TIP3    H272626   2.277   3.639   2.982  1.6274  1.0751 -1.2959
17071TIP3   OH272627   4.119   4.954   5.255 -0.2909 -0.4586  0.2386
17071TIP3    H172628   4.073   5.034   5.227  0.4427 -1.1641 -3.1900
17071TIP3    H272629   4.204   4.985   5.285 -0.8377  0.2686  1.0691
17072TIP3   OH272630   1.618   4.969   2.966  0.0762 -0.1729  0.2577
17072TIP3    H172631   1.598   4.898   2.905  0.4245  0.5893 -0.7677
17072TIP3    H272632   1.553   4.960   3.035 -3.3220  1.6377 -2.4931
17073TIP3   OH272633   1.013   5.129  16.201 -0.2928 -1.1051 -0.2953
17073TIP3    H172634   1.023   5.052  16.145  2.8006 -0.7237 -0.3740
17073TIP3    H272635   0.972   5.194  16.144  0.4767 -1.5299 -1.3586
17074TIP3   OH272636   2.398   2.600   4.395  0.3758  0.4753 -0.4587
17074TIP3    H172637   2.429   2.601   4.305 -0.9115  0.7370 -0.9100
17074TIP3    H272638   2.423   2.514   4.429 -1.0620 -0.4608 -1.7474
17075TIP3   OH272639   6.449   1.642   5.734 -0.2089 -0.2909 -0.0661
17075TIP3    H172640   6.402   1.723   5.713  1.6873  1.6197  2.6689
17075TIP3    H272641   6.527   1.645   5.677  1.1070  1.0918  1.7606
17076TIP3   OH272642   1.333   6.364   1.215  0.2451 -0.1088  0.0532
17076TIP3    H172643   1.344   6.442   1.268 -0.5346  0.0780 -0.0459
17076TIP3    H272644   1.420   6.326   1.208  0.9164  1.6175 -1.2171
17077TIP3   OH272645   5.012   2.830  15.277 -0.0292  0.5624  0.2485
17077TIP3    H172646   5.061   2.857  15.200 -1.5466 -1.2777 -1.4128
17077TIP3    H272647   5.004   2.735  15.269 -0.1882  0.3215  2.7108
17078TIP3   OH272648   3.679   1.441  12.197  0.4394  0.4716 -0.5124
17078TIP3    H172649   3.656   1.356  12.159 -0.2325  0.4234 -0.0120
17078TIP3    H272650   3.659   1.505  12.128 -1.6334  0.4676  0.0763
17079TIP3   OH272651   6.740   1.273  13.980 -0.2564  0.0207  0.5207
17079TIP3    H172652   6.783   1.193  13.949  0.5585  1.1799 -1.4338
17079TIP3    H272653   6.692   1.245  14.058 -0.7070 -2.5746 -0.6125
17080TIP3   OH272654   0.765   1.700  16.537 -0.1002  0.2761 -0.2311
17080TIP3    H172655   0.701   1.641  16.577  1.7785 -0.7672  1.2730
17080TIP3    H272656   0.833   1.642  16.503  0.0280  1.3746 -1.8968
17081TIP3   OH272657   6.582   4.806   1.506 -0.1713 -0.3662 -0.6622
17081TIP3    H172658   6.581   4.710   1.504  0.7359 -0.3821 -0.6161
17081TIP3    H272659   6.537   4.832   1.426  0.4150 -0.8346 -1.1441
17082TIP3   OH272660   1.302   3.325   5.262  0.1108 -0.5536  0.1390
17082TIP3    H172661   1.391   3.290   5.270  0.6578  1.0651  1.3437
17082TIP3    H272662   1.300   3.366   5.175  0.1989 -1.4667 -0.3075
17083TIP3   OH272663   2.499   0.615   5.536  0.4325  0.4686  0.7240
17083TIP3    H172664   2.474   0.698   5.496  3.2312  1.5066  1.0535
17083TIP3    H272665   2.569   0.581   5.479 -1.2688 -2.1302  0.0779
17084TIP3   OH272666   0.461   5.945   5.802  0.7323 -0.0803 -0.5827
17084TIP3    H172667   0.502   5.974   5.884  0.9090  0.4613 -0.8613
17084TIP3    H272668   0.482   6.014   5.739 -2.0429  1.0718 -0.3331
17085TIP3   OH272669   4.318   3.390  16.435 -0.1549 -0.2531 -0.2602
17085TIP3    H172670   4.327   3.318  16.496 -1.4945 -0.3416 -0.1531
17085TIP3    H272671   4.406   3.404  16.400  0.4707 -0.6742  1.1411
17086TIP3   OH272672   6.127   0.111  16.051 -0.0966 -0.1734 -0.1251
17086TIP3    H172673   6.104   0.117  15.959 -1.1510 -1.3238  0.0461
17086TIP3    H272674   6.042   0.104  16.097  0.4876 -1.7981  0.7407
17087TIP3   OH272675   1.315   6.109  16.831  0.1249 -0.0311  0.1173
17087TIP3    H172676   1.370   6.114  16.752 -0.6552  1.9132 -0.3248
17087TIP3    H272677   1.253   6.180  16.821 -1.2178 -0.9789  1.5924
17088TIP3   OH272678   0.509   6.692   5.774  0.0878 -0.0364 -0.0339
17088TIP3    H172679   0.522   6.746   5.852 -1.2928  0.3375 -0.0465
17088TIP3    H272680   0.591   6.699   5.726  0.0107  1.9263  0.0657
17089TIP3   OH272681   5.924   2.432  12.366 -0.7022 -0.0140 -0.0864
17089TIP3    H172682   5.991   2.395  12.310  0.5134 -0.2049  1.4407
17089TIP3    H272683   5.918   2.371  12.440 -1.6252  0.6662  0.4147
17090TIP3   OH272684   4.557   5.706   6.254  0.9820 -0.0058  0.0662
17090TIP3    H172685   4.608   5.777   6.293  0.7410  0.9714 -1.3620
17090TIP3    H272686   4.615   5.630   6.256  1.0412  0.0702  2.1293
17091TIP3   OH272687   2.506   6.110  14.540  0.3248  0.1556 -0.2695
17091TIP3    H172688   2.470   6.199  14.540 -1.0639 -0.3474  2.4559
17091TIP3    H272689   2.431   6.055  14.516 -0.7642 -0.8299  4.7117
17092TIP3   OH272690   0.668   0.100  11.309  0.3519 -0.0669  0.1018
17092TIP3    H172691   0.732   0.066  11.247  0.6303  0.3190  0.1774
17092TIP3    H272692   0.628   0.175  11.264  0.3939  0.0747  0.2977
17093TIP3   OH272693   2.451   3.644   2.007  0.1121 -0.5123  0.2537
17093TIP3    H172694   2.467   3.612   1.918 -0.1345 -1.0799  0.4146
17093TIP3    H272695   2.377   3.592   2.039 -0.0156 -0.0799  0.6708
17094TIP3   OH272696   2.822   4.274   3.737  0.2589 -0.5152  0.3673
17094TIP3    H172697   2.771   4.303   3.813 -0.3308  0.1556 -0.2719
17094TIP3    H272698   2.759   4.226   3.683  0.4531 -0.2336 -0.1201
17095TIP3   OH272699   6.152   1.066   6.191  0.4379  0.3679 -0.0612
17095TIP3    H172700   6.202   0.995   6.152 -0.8092 -0.5812  0.0400
17095TIP3    H272701   6.168   1.059   6.285  0.7589  0.5684 -0.1013
17096TIP3   OH272702   6.522   6.285  11.078  0.0357  0.2536  0.3109
17096TIP3    H172703   6.455   6.254  11.139 -0.9618 -0.4376 -1.0920
17096TIP3    H272704   6.473   6.334  11.012  0.9370 -0.0896 -0.6235
17097TIP3   OH272705   3.217   6.154   4.309 -0.1070  0.5467  0.2565
17097TIP3    H172706   3.254   6.108   4.233 -0.7031  1.1079 -0.3711
17097TIP3    H272707   3.217   6.088   4.378  0.7467  0.1259 -0.1363
17098TIP3   OH272708   2.674   6.321   2.498  0.0570  0.9954 -0.3262
17098TIP3    H172709   2.608   6.309   2.565  1.2580 -0.9790  0.5628
17098TIP3    H272710   2.663   6.246   2.439  0.9826  1.0468 -0.5845
17099TIP3   OH272711   4.781   6.019   4.607  0.1694 -0.7464  0.1227
17099TIP3    H172712   4.816   6.108   4.614 -1.1038 -0.1697 -0.7647
17099TIP3    H272713   4.852   5.963   4.640  0.8040  0.6176  1.1311
17100TIP3   OH272714   4.708   1.243  15.305 -0.1565  0.2933  0.4940
17100TIP3    H172715   4.680   1.152  15.300 -2.5469  0.8834  2.3587
17100TIP3    H272716   4.672   1.284  15.227 -0.0452 -0.0874  0.2403
17101TIP3   OH272717   2.974   4.580   0.495  0.6947  0.6323  0.5012
17101TIP3    H172718   2.883   4.609   0.491  1.0483  1.9668  1.8394
17101TIP3    H272719   2.985   4.546   0.583  1.0115 -1.2314 -0.2365
17102TIP3   OH272720   3.800   2.866   1.953  0.1748  0.1597  0.0308
17102TIP3    H172721   3.726   2.914   1.990 -0.4595  1.3130 -2.6166
17102TIP3    H272722   3.765   2.779   1.934  0.2771 -0.1703  1.2938
17103TIP3   OH272723   6.204   6.647  16.610  0.0559  0.2163  0.4475
17103TIP3    H172724   6.155   6.710  16.663  0.1572  0.3934  0.3342
17103TIP3    H272725   6.140   6.580  16.586 -0.0824  0.3421  0.4656
17104TIP3   OH272726   6.679   2.760  12.136  0.2118 -0.1225  0.0072
17104TIP3    H172727   6.711   2.810  12.211  1.0779  0.7859 -0.9567
17104TIP3    H272728   6.755   2.712  12.104  0.4019  1.2128 -1.6352
17105TIP3   OH272729   1.585   4.561  13.635  0.1395  0.1192  0.3025
17105TIP3    H172730   1.609   4.488  13.692 -1.1647 -1.3787 -1.0244
17105TIP3    H272731   1.618   4.536  13.549 -2.8229 -0.2601 -0.7789
17106TIP3   OH272732   0.714   4.273   4.380  0.0342  0.3577  0.3587
17106TIP3    H172733   0.684   4.186   4.408 -0.4659  0.4973  0.2470
17106TIP3    H272734   0.773   4.301   4.450  1.2791 -0.6558 -0.2473
17107TIP3   OH272735   2.311   0.528  13.477  0.1384  0.5034  0.2480
17107TIP3    H172736   2.225   0.553  13.445 -0.7908 -2.8701 -0.0915
17107TIP3    H272737   2.361   0.507  13.398  1.0235  1.6392  0.4903
17108TIP3   OH272738   3.162   2.206   3.284  0.4990 -0.6699  0.6464
17108TIP3    H172739   3.164   2.301   3.276  1.2818 -0.4984  2.5561
17108TIP3    H272740   3.215   2.187   3.362 -0.3377 -2.6013  0.7830
17109TIP3   OH272741   2.212   0.220   2.977  0.2528  0.3656  0.9805
17109TIP3    H172742   2.238   0.130   2.957  1.7025  1.1734 -0.8979
17109TIP3    H272743   2.117   0.221   2.965  0.3228 -0.7274  0.3038
17110TIP3   OH272744   0.041   0.111   1.394 -0.1228  0.1178 -0.9261
17110TIP3    H172745  -0.024   0.050   1.359 -1.4490  2.1844 -2.1695
17110TIP3    H272746   0.102   0.125   1.323  0.0857  0.3555 -0.7007
17111TIP3   OH272747   5.683   5.567  13.401 -0.4690  0.5192 -0.3683
17111TIP3    H172748   5.685   5.560  13.305  0.9339 -0.1665 -0.2949
17111TIP3    H272749   5.598   5.530  13.426 -0.4009 -0.2625 -1.2728
17112TIP3   OH272750   5.281   2.803  11.243  0.8364 -0.2025 -0.4824
17112TIP3    H172751   5.238   2.723  11.274 -1.2358  1.1915  0.2763
17112TIP3    H272752   5.247   2.817  11.155  1.9281 -0.6560 -0.9901
17113TIP3   OH272753   0.130   3.499   1.679 -0.2025  0.0314 -0.6050
17113TIP3    H172754   0.107   3.409   1.654  3.2819 -0.7302 -1.3340
17113TIP3    H272755   0.087   3.553   1.613 -1.5796 -1.1481 -0.7015
17114TIP3   OH272756   5.086   4.614   1.637 -0.1165  0.2188  0.2599
17114TIP3    H172757   5.162   4.631   1.692 -0.5366  1.4509  0.4634
17114TIP3    H272758   5.015   4.663   1.679 -0.7934 -0.1188 -0.4935
17115TIP3   OH272759   2.585   1.870   3.491  0.2816 -0.7618 -0.1895
17115TIP3    H172760   2.509   1.855   3.434 -0.1335 -0.6023  0.3229
17115TIP3    H272761   2.655   1.895   3.431  0.1323 -1.6330 -0.7450
17116TIP3   OH272762   4.543   5.770  12.342  0.2919  0.2622  0.0212
17116TIP3    H172763   4.620   5.717  12.321 -0.0939  0.1726 -1.2041
17116TIP3    H272764   4.526   5.752  12.434  0.8227 -0.8945 -0.0977
17117TIP3   OH272765   2.125   6.520   2.404  0.5142 -0.1916 -0.0326
17117TIP3    H172766   2.095   6.608   2.380 -2.2501 -1.3953 -1.2131
17117TIP3    H272767   2.097   6.509   2.495  0.6526  0.0481  0.0402
17118TIP3   OH272768   3.935   5.882  14.358  0.5486 -0.1547 -0.1514
17118TIP3    H172769   3.844   5.853  14.350  0.1478  1.0269  0.1504
17118TIP3    H272770   3.960   5.907  14.269  0.6648 -0.7029 -0.2777
17119TIP3   OH272771   2.974   4.960  13.612  0.0961  0.5425  0.0492
17119TIP3    H172772   2.925   4.998  13.685 -0.3800  2.1259 -1.0620
17119TIP3    H272773   2.910   4.909  13.563  0.3326 -0.2212  0.5385
17120TIP3   OH272774   4.717   4.074  14.374 -0.4717 -0.1143  0.0579
17120TIP3    H172775   4.622   4.068  14.368 -0.5116  0.8193 -0.3891
17120TIP3    H272776   4.742   4.133  14.302  0.2545  1.2981  1.4307
17121TIP3   OH272777   4.173   4.241   4.825  0.1000  0.2487 -0.0751
17121TIP3    H172778   4.111   4.293   4.875 -0.1064 -0.3457  0.2839
17121TIP3    H272779   4.257   4.252   4.870  0.1438  0.6075 -0.2440
17122TIP3   OH272780   2.503   6.297  17.196 -0.3459 -0.6593  0.5296
17122TIP3    H172781   2.413   6.294  17.166 -0.0464 -0.1293 -0.4305
17122TIP3    H272782   2.533   6.206  17.193 -1.1833 -0.9903  1.9023
17123TIP3   OH272783   1.976   0.298  14.705  0.1127  0.3583 -0.1846
17123TIP3    H172784   1.910   0.289  14.637 -0.2343 -0.1174  0.2049
17123TIP3    H272785   2.037   0.364  14.672  0.4708 -0.5525 -1.3702
17124TIP3   OH272786   2.581   1.113   3.784  0.1764  0.5324  0.3048
17124TIP3    H172787   2.612   1.093   3.872 -0.6149  1.4127  0.7915
17124TIP3    H272788   2.649   1.079   3.726  0.2115 -0.9678  1.2189
17125TIP3   OH272789   1.947   3.339   1.119  0.2431 -0.7996 -0.7260
17125TIP3    H172790   1.952   3.297   1.033 -1.9002 -1.2433 -0.6619
17125TIP3    H272791   1.871   3.397   1.113  1.0737  0.4431  0.3478
17126TIP3   OH272792   3.866   4.191  15.586 -0.5104  0.0949  0.0460
17126TIP3    H172793   3.798   4.190  15.653 -1.6436 -0.1091 -1.0848
17126TIP3    H272794   3.827   4.238  15.512  0.6251  0.1136 -0.5548
17127TIP3   OH272795   1.284   2.694   1.724  0.3199 -0.7640 -0.2519
17127TIP3    H172796   1.217   2.625   1.731  1.3806 -2.1160 -2.9158
17127TIP3    H272797   1.240   2.766   1.679 -0.3428 -0.2668  1.1615
17128TIP3   OH272798   2.457   4.386  14.127  0.4815 -0.6769  0.0917
17128TIP3    H172799   2.544   4.426  14.123  0.0261  0.6274  2.3455
17128TIP3    H272800   2.461   4.326  14.201 -0.4950 -0.6839  0.1506
17129TIP3   OH272801   3.332   1.552  17.161  0.5001  0.0742  0.2853
17129TIP3    H172802   3.420   1.542  17.123  0.2190 -1.4157  0.0379
17129TIP3    H272803   3.275   1.502  17.103 -0.5737  1.2275  0.3215
17130TIP3   OH272804   4.528   2.840  16.532  0.1397  0.6706  0.1326
17130TIP3    H172805   4.516   2.889  16.613 -0.9725  1.1000 -0.2801
17130TIP3    H272806   4.588   2.893  16.480  1.0958  0.2448  0.7913
17131TIP3   OH272807   4.750   4.434  14.665 -0.3934  0.5628 -0.6010
17131TIP3    H172808   4.833   4.450  14.621 -0.6077 -0.0433 -1.2178
17131TIP3    H272809   4.744   4.339  14.672  0.4732  0.6743  2.3160
17132TIP3   OH272810   2.024   1.649  11.612 -0.5994  0.0615  0.1719
17132TIP3    H172811   2.062   1.577  11.561 -1.4086 -0.2156 -0.0440
17132TIP3    H272812   1.962   1.691  11.552 -1.6404 -0.3320  0.9602
17133TIP3   OH272813   3.152   1.188   0.618  1.0007  0.3092 -0.3401
17133TIP3    H172814   3.101   1.148   0.547  1.0208 -0.4282  0.0643
17133TIP3    H272815   3.119   1.148   0.698  0.9577  1.1655  0.0819
17134TIP3   OH272816   4.196   1.733   1.510  0.1974  0.3470  0.5864
17134TIP3    H172817   4.180   1.797   1.440  0.5932  0.1262  0.2921
17134TIP3    H272818   4.109   1.702   1.534  0.0177  0.8528  0.5929
17135TIP3   OH272819   0.950   5.368  15.101  0.6076  0.5149 -0.8373
17135TIP3    H172820   0.858   5.371  15.076  0.6694  1.4353 -0.9453
17135TIP3    H272821   0.994   5.426  15.039  1.3461 -0.3743 -1.1544
17136TIP3   OH272822   1.422   4.641  12.614  0.5618  0.1486 -0.1595
17136TIP3    H172823   1.388   4.652  12.525  0.5672 -0.5951 -0.2564
17136TIP3    H272824   1.439   4.730  12.644 -1.9634  0.5997  0.0769
17137TIP3   OH272825   4.898   1.376   4.533  0.0480  0.4384  0.3424
17137TIP3    H172826   4.895   1.304   4.470 -3.1071 -0.1733  1.1350
17137TIP3    H272827   4.866   1.452   4.484  1.3897  0.8871  0.1188
17138TIP3   OH272828   5.613   3.656   4.858 -0.3589  0.0187 -0.0963
17138TIP3    H172829   5.603   3.564   4.883 -0.7919  0.7193  2.4161
17138TIP3    H272830   5.678   3.691   4.918  0.4864  1.1559 -1.6340
17139TIP3   OH272831   3.479   4.679  15.442  0.2775 -0.7135 -0.0013
17139TIP3    H172832   3.411   4.665  15.375  1.8135 -1.8174 -1.3527
17139TIP3    H272833   3.550   4.724  15.396  1.2172 -1.1794  0.9689
17140TIP3   OH272834   6.076   0.646  13.555 -0.1252  0.0863 -0.1528
17140TIP3    H172835   6.140   0.620  13.488 -0.1245 -0.4812  0.0647
17140TIP3    H272836   5.991   0.636  13.513 -0.1089  0.0443 -0.1750
17141TIP3   OH272837   2.404   0.752  17.172  1.0657 -0.3710  0.5772
17141TIP3    H172838   2.432   0.804  17.247  0.7941  0.1544  0.3151
17141TIP3    H272839   2.325   0.708  17.202 -1.1797  2.7073 -0.5718
17142TIP3   OH272840   6.635   0.531  12.996 -0.1798 -0.5284  0.0640
17142TIP3    H172841   6.581   0.593  12.947 -0.7875 -0.9363  0.2125
17142TIP3    H272842   6.724   0.546  12.964 -0.5118 -0.4806 -0.8479
17143TIP3   OH272843   6.010   5.130   2.784  0.3528  0.4260 -0.0246
17143TIP3    H172844   5.930   5.082   2.762 -0.0964  0.2544  1.8999
17143TIP3    H272845   6.034   5.176   2.703 -1.9075  0.7622 -0.5284
17144TIP3   OH272846   0.951   6.370   2.270  0.2522 -0.8340  0.1298
17144TIP3    H172847   1.012   6.363   2.343 -0.4287  0.8800  0.9030
17144TIP3    H272848   0.888   6.300   2.284 -0.7514  0.4077  2.0657
17145TIP3   OH272849   3.333   6.768  14.937 -0.1567 -0.4355  0.2756
17145TIP3    H172850   3.423   6.798  14.941  0.5373 -2.2279 -1.1825
17145TIP3    H272851   3.319   6.721  15.019  0.4613 -0.7662  0.1872
17146TIP3   OH272852   4.466   1.099   5.463 -0.5948 -0.4226 -0.2318
17146TIP3    H172853   4.432   1.024   5.415  0.3849 -1.1103  0.1282
17146TIP3    H272854   4.457   1.172   5.403  0.8915 -1.3137 -1.5986
17147TIP3   OH272855   3.813   6.300  12.264  0.5180 -0.3043  0.3089
17147TIP3    H172856   3.824   6.287  12.358  0.5227  0.5947  0.4407
17147TIP3    H272857   3.788   6.392  12.255 -1.7869 -0.9523 -0.3716
17148TIP3   OH272858   3.020   1.822  13.273 -0.0778  0.5933  0.4628
17148TIP3    H172859   3.033   1.728  13.264  3.3536  1.0134  0.0975
17148TIP3    H272860   2.926   1.835  13.266 -0.4039 -2.5774 -1.6840
17149TIP3   OH272861   4.478   0.638  15.285  0.1895 -0.1405 -0.4832
17149TIP3    H172862   4.521   0.568  15.335  0.3572  0.3354  0.0398
17149TIP3    H272863   4.468   0.709  15.348 -0.7287  0.0055 -0.7889
17150TIP3   OH272864   5.809   3.819   5.562  0.3127 -0.3271  0.0658
17150TIP3    H172865   5.773   3.803   5.649  0.1201  0.2206  0.0879
17150TIP3    H272866   5.738   3.797   5.502 -0.2814  1.4043  0.1382
17151TIP3   OH272867   5.157   6.229   0.362 -0.4384 -0.3794  0.9341
17151TIP3    H172868   5.091   6.256   0.426  0.0281 -0.5696  1.4914
17151TIP3    H272869   5.132   6.139   0.339 -0.4057 -0.4344  1.1102
17152TIP3   OH272870   2.440   5.485  14.017  0.1052 -0.4726  0.4478
17152TIP3    H172871   2.371   5.459  14.078  0.2532  0.6079  1.0861
17152TIP3    H272872   2.398   5.483  13.931 -1.0926  1.3989  0.9580
17153TIP3   OH272873   3.011   2.001  13.516  0.6866  0.0538 -0.3739
17153TIP3    H172874   3.106   2.004  13.502  0.9014  0.3002  1.1497
17153TIP3    H272875   2.976   1.975  13.431  2.1254 -0.1052 -0.9311
17154TIP3   OH272876   4.791   0.343  11.650 -0.3520 -0.1643 -0.4044
17154TIP3    H172877   4.806   0.358  11.557 -2.1496 -0.2635 -0.7407
17154TIP3    H272878   4.810   0.251  11.664  1.3642  0.1826 -0.3443
17155TIP3   OH272879   6.251   2.545   1.316  0.7958 -0.3996  0.0319
17155TIP3    H172880   6.160   2.545   1.286  1.3554  0.6547 -1.7291
17155TIP3    H272881   6.300   2.506   1.244  1.9515  0.5957  0.2636
17156TIP3   OH272882   0.400   0.995  15.472  0.1337  0.4319  0.4084
17156TIP3    H172883   0.454   0.955  15.540  1.3186  0.1073 -0.7167
17156TIP3    H272884   0.360   1.071  15.515 -3.1508 -2.5304  2.9858
17157TIP3   OH272885   5.269   2.424  14.228  0.1685  0.1027  0.3347
17157TIP3    H172886   5.287   2.473  14.308  3.3206  0.7197 -0.6994
17157TIP3    H272887   5.301   2.336  14.246  1.9243  0.5256 -0.5975
17158TIP3   OH272888   3.592   2.073  16.069  0.1355  0.3247 -0.3961
17158TIP3    H172889   3.625   1.984  16.055  1.5530  0.7809 -0.0450
17158TIP3    H272890   3.563   2.074  16.160  1.8744  0.7488  0.1714
17159TIP3   OH272891   2.569   3.396  14.983 -0.2173  0.2547  0.0629
17159TIP3    H172892   2.656   3.358  14.979 -0.1799  0.3259  0.2085
17159TIP3    H272893   2.511   3.325  14.956 -0.0320  0.5005 -1.0163
17160TIP3   OH272894   3.964   0.410   3.544  0.2495 -0.3156  0.3864
17160TIP3    H172895   3.975   0.491   3.593  1.5798  1.2262 -2.3696
17160TIP3    H272896   3.916   0.435   3.466 -1.4939 -2.6640  0.6404
17161TIP3   OH272897   6.266   1.615   3.726 -0.0391  0.1588 -0.2038
17161TIP3    H172898   6.334   1.552   3.699 -0.5299 -1.0420  1.2785
17161TIP3    H272899   6.198   1.606   3.659 -1.1263 -2.6001  1.1848
17162TIP3   OH272900   3.920   4.848   2.827  0.3399 -0.8711 -0.2408
17162TIP3    H172901   4.014   4.859   2.840  0.1090  1.2192 -0.1614
17162TIP3    H272902   3.897   4.773   2.882  1.8270 -0.9927  0.2531
17163TIP3   OH272903   4.728   2.752   0.273 -0.2347 -0.5599 -0.5039
17163TIP3    H172904   4.682   2.795   0.202 -1.0334  0.1117  0.4086
17163TIP3    H272905   4.770   2.823   0.321 -0.9359 -0.8526  0.5630
17164TIP3   OH272906   4.072   2.818  15.680 -0.1941 -0.4110 -0.1409
17164TIP3    H172907   4.004   2.793  15.743 -1.3714 -0.6512 -1.4994
17164TIP3    H272908   4.151   2.774  15.712 -0.5394  0.2828  1.7321
17165TIP3   OH272909   5.844   0.956  11.860 -0.2684 -0.3055  0.5243
17165TIP3    H172910   5.868   0.871  11.822  0.4077 -0.4767  1.3052
17165TIP3    H272911   5.751   0.965  11.840 -0.3212 -1.1771  0.3209
17166TIP3   OH272912   4.240   4.913  17.170 -0.1615 -0.1167  0.2627
17166TIP3    H172913   4.148   4.941  17.166  0.2414  1.1416 -1.0803
17166TIP3    H272914   4.243   4.835  17.115 -0.2365  0.4849 -0.6197
17167TIP3   OH272915   6.231   1.603   2.394 -0.7079  0.5030 -0.1093
17167TIP3    H172916   6.288   1.679   2.383  0.9587 -0.6829  0.2006
17167TIP3    H272917   6.142   1.639   2.391 -0.0203  2.1383 -2.5555
17168TIP3   OH272918   1.566   6.481  11.172 -1.1205 -0.3888  0.0586
17168TIP3    H172919   1.505   6.412  11.198  0.0014 -1.4392 -0.0341
17168TIP3    H272920   1.529   6.561  11.208 -1.2919 -1.3517  2.0765
17169TIP3   OH272921   5.497   0.643  12.495  0.9459  0.1430 -0.1496
17169TIP3    H172922   5.441   0.577  12.535 -0.7571  0.0850 -2.5380
17169TIP3    H272923   5.516   0.705  12.566 -2.7384  0.5525  0.5788
17170TIP3   OH272924   0.465   1.416  12.521 -0.2345  0.4838  0.2325
17170TIP3    H172925   0.482   1.440  12.612  0.5547  1.9246 -0.2748
17170TIP3    H272926   0.551   1.420  12.479 -0.9699  2.4596 -1.1581
17171TIP3   OH272927   4.913   5.883  16.670 -0.5030 -0.6342 -0.0031
17171TIP3    H172928   4.917   5.938  16.591 -0.8979  1.6590  1.5396
17171TIP3    H272929   4.822   5.888  16.698 -0.0890 -0.4239  1.3172
17172TIP3   OH272930   1.160   3.608   4.107 -0.3144  0.1273 -0.1648
17172TIP3    H172931   1.136   3.662   4.032 -0.7921  0.7085  0.4019
17172TIP3    H272932   1.234   3.555   4.076  0.7858  1.7788 -0.4473
17173TIP3   OH272933   3.228   3.382   2.763 -0.3433  0.5075 -0.5010
17173TIP3    H172934   3.203   3.317   2.696 -1.3371  0.3332  0.0197
17173TIP3    H272935   3.145   3.423   2.787  0.0390  0.7033  0.4867
17174TIP3   OH272936   0.616   3.041   4.536  0.4763 -0.5125  0.7453
17174TIP3    H172937   0.614   2.968   4.474  0.7512  0.0076  0.1165
17174TIP3    H272938   0.674   3.106   4.496 -0.7919  0.5977  0.6656
17175TIP3   OH272939   2.381   6.022   3.974  0.4158 -0.4049  0.6714
17175TIP3    H172940   2.460   5.992   4.018 -0.4057 -3.2440  0.3190
17175TIP3    H272941   2.389   5.989   3.884 -0.5964  0.3699  0.2836
17176TIP3   OH272942   0.085   1.307   5.486  0.5385  0.3439  0.7225
17176TIP3    H172943   0.164   1.335   5.531  1.8025 -0.1516 -1.1295
17176TIP3    H272944   0.096   1.337   5.396 -0.8056 -0.8221  0.1424
17177TIP3   OH272945   6.400   6.559   1.779 -0.0701  0.3695  0.4616
17177TIP3    H172946   6.400   6.652   1.755 -3.2174  0.0622 -1.0521
17177TIP3    H272947   6.414   6.558   1.873 -0.5258  2.4545  0.5684
17178TIP3   OH272948   1.588   1.938  11.589  0.1641  0.4384 -0.2631
17178TIP3    H172949   1.668   1.887  11.600  0.2986  0.6465 -0.2656
17178TIP3    H272950   1.592   2.004  11.658 -0.1347  0.2863 -0.0957
17179TIP3   OH272951   6.036   6.360  17.012 -0.0387 -0.1097  0.7872
17179TIP3    H172952   6.084   6.413  17.075  0.3707  0.5317 -0.0515
17179TIP3    H272953   6.080   6.377  16.928 -0.3062 -1.2713  0.4020
17180TIP3   OH272954   6.217   1.811   5.977  0.1163 -0.2114  0.2623
17180TIP3    H172955   6.199   1.717   5.986 -0.1331 -0.1291  0.6421
17180TIP3    H272956   6.312   1.816   5.974  0.1203 -0.5079 -0.0916
17181TIP3   OH272957   3.304   2.047   3.780  0.3735  0.2616 -0.1291
17181TIP3    H172958   3.286   2.111   3.711  1.0508  0.4542 -0.1342
17181TIP3    H272959   3.370   1.989   3.742  0.2373 -0.0522  0.1104
17182TIP3   OH272960   2.649   6.090  12.001  0.3025  0.2954  0.5135
17182TIP3    H172961   2.668   6.147  11.926  0.9415  1.4711  1.5638
17182TIP3    H272962   2.649   6.148  12.077  3.5734 -1.4676  1.9662
17183TIP3   OH272963   3.257   0.814   2.580 -0.7178  0.4969 -0.3261
17183TIP3    H172964   3.284   0.828   2.490  1.0591  0.0970  0.1224
17183TIP3    H272965   3.266   0.719   2.594 -3.7874  0.1115 -0.5829
17184TIP3   OH272966   0.127   0.900   4.683 -0.3689  0.2416 -0.2846
17184TIP3    H172967   0.115   0.983   4.730  1.9718  1.3244 -1.4977
17184TIP3    H272968   0.139   0.927   4.592 -0.6930 -1.5306 -0.8525
17185TIP3   OH272969   6.624   2.773   1.895 -0.1055  0.7062  0.0661
17185TIP3    H172970   6.643   2.844   1.834 -1.5732  0.3071 -0.8720
17185TIP3    H272971   6.560   2.718   1.850 -0.1103 -0.4072  1.3768
17186TIP3   OH272972   6.264   1.874  11.132 -0.1120 -0.6182  0.0821
17186TIP3    H172973   6.351   1.908  11.109 -0.9078 -0.9808 -3.8628
17186TIP3    H272974   6.266   1.783  11.102 -1.6721 -0.7742  0.4162
17187TIP3   OH272975   0.422   6.363   0.254 -0.4953  0.3094 -0.5720
17187TIP3    H172976   0.453   6.350   0.165 -1.9581 -0.0064 -1.0540
17187TIP3    H272977   0.502   6.374   0.306  0.3822  0.0947 -1.8437
17188TIP3   OH272978   5.634   4.236   4.636 -0.1900 -0.2718 -0.6626
17188TIP3    H172979   5.729   4.247   4.637 -0.3982  1.7209 -0.6025
17188TIP3    H272980   5.620   4.148   4.601  1.7039 -0.9751  0.3150
17189TIP3   OH272981   6.254   2.805  14.240  0.4420  0.3066  0.0950
17189TIP3    H172982   6.215   2.721  14.260  0.9844  0.0635  0.1428
17189TIP3    H272983   6.222   2.826  14.152  0.2574  0.0817  0.1092
17190TIP3   OH272984   5.707   2.790   3.505 -0.2068  0.3246 -0.3926
17190TIP3    H172985   5.618   2.775   3.537 -0.4338  1.5014 -0.4546
17190TIP3    H272986   5.760   2.800   3.585 -0.1893 -0.0039 -0.3605
17191TIP3   OH272987   5.295   4.818   2.965  0.2622 -1.1769 -0.4248
17191TIP3    H172988   5.247   4.802   2.884 -1.8116 -3.0628  1.1180
17191TIP3    H272989   5.358   4.747   2.970 -0.7837 -2.0609  0.4449
17192TIP3   OH272990   0.267   2.564   5.122  0.1848  0.3178 -0.4169
17192TIP3    H172991   0.320   2.514   5.061  1.4064  1.7942 -0.6212
17192TIP3    H272992   0.250   2.647   5.077 -1.2821  0.3491  0.1418
17193TIP3   OH272993   1.411   1.994   0.079  0.0191 -0.0573 -0.1290
17193TIP3    H172994   1.486   2.050   0.060 -1.3444  2.0729  0.4967
17193TIP3    H272995   1.420   1.971   0.172 -0.2712  0.4740  0.0320
17194TIP3   OH272996   4.310   2.885  16.724  0.1161 -0.1708  0.4936
17194TIP3    H172997   4.318   2.791  16.735 -0.8879 -0.5925 -1.8980
17194TIP3    H272998   4.274   2.917  16.807 -0.4528 -2.0168  0.9735
17195TIP3   OH272999   6.054   2.749   2.492 -0.0971 -0.1086  0.3106
17195TIP3    H173000   6.069   2.759   2.398  1.8115  0.8808  0.6819
17195TIP3    H273001   6.039   2.655   2.504  0.0606 -0.3048 -0.9406
17196TIP3   OH273002   4.535   2.980  14.242 -0.1746  0.1085 -0.3594
17196TIP3    H173003   4.454   2.929  14.241  0.0552 -0.2866  0.7970
17196TIP3    H273004   4.508   3.069  14.265 -0.2363 -0.0955  0.3481
17197TIP3   OH273005   1.112   0.911   3.515 -0.1913 -0.1797  0.0094
17197TIP3    H173006   1.128   0.822   3.544  1.2746 -0.1689 -0.7281
17197TIP3    H273007   1.124   0.909   3.420 -1.8726  0.4356 -0.2271
17198TIP3   OH273008   5.568   2.292  16.907 -0.2635 -0.0043  0.0175
17198TIP3    H173009   5.636   2.232  16.877 -0.0075  0.4700 -0.3500
17198TIP3    H273010   5.492   2.272  16.853 -1.4652 -2.7897  2.6046
17199TIP3   OH273011   0.278   1.204  16.035 -0.3050  0.2276  0.3745
17199TIP3    H173012   0.286   1.109  16.049  1.7139  0.4768  1.0331
17199TIP3    H273013   0.366   1.237  16.046 -0.8828  2.1273 -0.5161
17200TIP3   OH273014   4.617   6.403  15.686 -0.3966 -0.0629  0.2456
17200TIP3    H173015   4.700   6.410  15.638 -1.1516 -0.6622 -1.1756
17200TIP3    H273016   4.580   6.491  15.682  1.2598  0.8253  2.9550
17201TIP3   OH273017   3.126   0.183  14.199 -0.3159  0.3262 -0.2891
17201TIP3    H173018   3.098   0.152  14.285 -1.4327  1.2665 -0.3100
17201TIP3    H273019   3.140   0.102  14.149 -0.4141 -0.2093  0.5313
17202TIP3   OH273020   2.391   0.361  16.892  0.0893 -0.5189 -0.1377
17202TIP3    H173021   2.362   0.273  16.918  0.9108 -0.6777  0.2417
17202TIP3    H273022   2.309   0.409  16.878 -0.3664 -1.2437 -0.0107
17203TIP3   OH273023   3.070   0.133  13.666  0.0830 -0.1157  0.6382
17203TIP3    H173024   3.102   0.057  13.616 -2.2487 -0.0025 -1.1576
17203TIP3    H273025   3.065   0.203  13.601  0.3231  1.0111  1.8397
17204TIP3   OH273026   3.444   1.334  13.469 -0.3200  0.2832 -0.5808
17204TIP3    H173027   3.456   1.350  13.376  0.1081 -3.2275 -1.1834
17204TIP3    H273028   3.408   1.246  13.475 -0.7428  0.5927  2.5591
17205TIP3   OH273029   3.090   0.346   4.077  0.1374 -0.1403  0.2766
17205TIP3    H173030   3.054   0.297   4.150  2.9899 -0.3634  1.5692
17205TIP3    H273031   3.183   0.326   4.077  0.5517  1.5117 -2.1228
17206TIP3   OH273032   4.432   1.312   5.327  0.1518  0.5663  0.2259
17206TIP3    H173033   4.492   1.366   5.276 -1.6034  1.6452 -0.7472
17206TIP3    H273034   4.381   1.375   5.379 -0.9709 -0.2503  0.1211
17207TIP3   OH273035   0.592   5.000   1.240  0.2227 -0.1895  0.3994
17207TIP3    H173036   0.557   4.929   1.186 -1.2077 -1.1151  2.4601
17207TIP3    H273037   0.641   4.956   1.309 -1.2080  0.7373  2.0680
17208TIP3   OH273038   1.312   1.727   2.342 -0.5433 -0.4446  0.4981
17208TIP3    H173039   1.225   1.762   2.361 -0.3333 -0.1547  0.9115
17208TIP3    H273040   1.370   1.771   2.403 -0.4142 -2.1858  1.6642
17209TIP3   OH273041   0.551   5.491  12.341  0.1998  0.0819 -0.6672
17209TIP3    H173042   0.513   5.529  12.262 -0.4183 -0.4102 -0.6031
17209TIP3    H273043   0.485   5.430  12.374  0.5194  0.1593  0.1402
17210TIP3   OH273044   5.840   4.481   1.296 -0.5839 -0.5658 -0.1765
17210TIP3    H173045   5.793   4.479   1.380  1.8947  0.2073  1.3116
17210TIP3    H273046   5.916   4.424   1.311  0.7776  0.8990 -1.2963
17211TIP3   OH273047   3.601   2.579   2.912  0.3338  0.3836 -0.5596
17211TIP3    H173048   3.641   2.494   2.896  1.1657  0.8822 -1.1460
17211TIP3    H273049   3.517   2.559   2.954  1.1632 -0.6707  0.6279
17212TIP3   OH273050   1.546   1.134  16.070 -0.2839 -0.0196 -0.2811
17212TIP3    H173051   1.501   1.182  16.001 -0.1510 -0.0792 -0.4107
17212TIP3    H273052   1.584   1.203  16.126  0.6208  0.0267 -0.9366
17213TIP3   OH273053   0.770   5.818  11.983  0.3651 -0.1082  0.3334
17213TIP3    H173054   0.826   5.887  12.019  1.4153 -0.0872 -1.3009
17213TIP3    H273055   0.747   5.764  12.059  3.3534 -0.6496  0.9276
17214TIP3   OH273056   0.377   3.407   2.999 -0.1444  0.0811 -0.2191
17214TIP3    H173057   0.460   3.370   3.029 -1.6300 -1.8460  1.6420
17214TIP3    H273058   0.328   3.333   2.966 -0.5625  1.4453 -2.7531
17215TIP3   OH273059   6.562   5.144   0.934 -0.2295 -0.6048  0.3277
17215TIP3    H173060   6.601   5.222   0.973 -2.2147  0.0804  0.9701
17215TIP3    H273061   6.637   5.093   0.904  1.0561  2.1238 -1.2550
17216TIP3   OH273062   5.607   5.736  14.944  0.4826 -0.0446  0.8355
17216TIP3    H173063   5.570   5.695  14.865 -0.9529  2.1396  0.3404
17216TIP3    H273064   5.546   5.711  15.014 -0.2928  1.0413  0.5653
17217TIP3   OH273065   6.436   5.642  15.955  0.6819 -0.0645  0.1629
17217TIP3    H173066   6.481   5.716  15.997 -1.8166  2.0209 -0.7316
17217TIP3    H273067   6.432   5.666  15.862  1.7328 -2.3421 -0.5015
17218TIP3   OH273068   4.789   4.108  14.673  0.1607 -0.0207  0.2094
17218TIP3    H173069   4.713   4.077  14.722  1.0251 -1.0342  0.9235
17218TIP3    H273070   4.761   4.106  14.581 -1.0488  0.7125  0.5594
17219TIP3   OH273071   3.666   4.317  10.966 -0.3190 -0.6145 -0.3093
17219TIP3    H173072   3.747   4.366  10.976 -0.3860 -0.8173  1.3444
17219TIP3    H273073   3.693   4.233  10.930  0.1627 -0.5432 -0.1137
17220TIP3   OH273074   6.622   5.536   4.139 -0.3826 -0.2429 -0.0864
17220TIP3    H173075   6.564   5.590   4.193  0.5626  0.6535  0.0518
17220TIP3    H273076   6.584   5.449   4.142 -1.0616  0.0887  0.9731
17221TIP3   OH273077   0.495   3.958  16.854 -0.2783 -0.0603 -0.3568
17221TIP3    H173078   0.525   3.933  16.941 -0.3401 -0.8134 -0.5495
17221TIP3    H273079   0.400   3.968  16.862 -0.2506  0.1308 -0.2764
17222TIP3   OH273080   0.984   0.217  15.440  0.2107  0.4524  0.3789
17222TIP3    H173081   0.978   0.122  15.446 -1.5015  0.6460  2.1129
17222TIP3    H273082   0.926   0.240  15.367  0.3609  0.2140  0.1797
17223TIP3   OH273083   4.926   4.404  13.713 -0.4070  0.0877 -0.7784
17223TIP3    H173084   4.971   4.480  13.750  0.7182  0.1594 -2.2303
17223TIP3    H273085   4.961   4.330  13.763 -0.5229  0.3958 -0.2382
17224TIP3   OH273086   3.849   5.765   4.073 -0.3184 -0.1971  0.0640
17224TIP3    H173087   3.868   5.821   4.149  0.0674 -1.4417  0.8921
17224TIP3    H273088   3.764   5.724   4.094 -0.3178 -0.3767 -0.2769
17225TIP3   OH273089   6.165   6.749   0.813  0.0335  0.7959 -1.3492
17225TIP3    H173090   6.220   6.712   0.882  0.7351  0.5132 -2.0542
17225TIP3    H273091   6.078   6.713   0.830 -0.2516  2.3294  0.5971
17226TIP3   OH273092   0.066   5.433   1.261  0.3214  0.4940 -0.6635
17226TIP3    H173093   0.069   5.509   1.320  0.5158  0.5120 -0.6987
17226TIP3    H273094   0.099   5.466   1.178 -0.5331  0.6267 -0.9586
17227TIP3   OH273095   5.054   5.680  10.719  0.6739  0.3773 -0.0273
17227TIP3    H173096   4.965   5.709  10.696 -0.1772 -2.1083  0.0110
17227TIP3    H273097   5.101   5.761  10.739 -1.2688  1.8184 -1.1368
17228TIP3   OH273098   3.379   6.383  12.680  0.0397 -0.3917  0.1949
17228TIP3    H173099   3.320   6.332  12.625 -0.6931 -0.0967  0.7014
17228TIP3    H273100   3.323   6.417  12.750  0.3263  1.9315 -0.6793
17229TIP3   OH273101   1.215   4.040   3.785 -0.0014  0.5001  0.1197
17229TIP3    H173102   1.269   4.114   3.759  0.2734 -0.3775 -1.9450
17229TIP3    H273103   1.250   3.966   3.734 -0.7251 -0.8830  1.5930
17230TIP3   OH273104   3.924   2.715   4.420  0.2568  0.1279  0.2771
17230TIP3    H173105   3.946   2.680   4.334  1.5685  0.1944  0.5748
17230TIP3    H273106   4.008   2.729   4.463 -0.3539  0.9370  1.2440
17231TIP3   OH273107   6.303   0.900  13.532  0.1154  0.0471  0.3413
17231TIP3    H173108   6.282   0.948  13.612  1.3234  0.7118  0.2670
17231TIP3    H273109   6.327   0.812  13.562 -0.0508  0.1088  0.6551
17232TIP3   OH273110   4.427   4.191  16.405  0.1844 -0.0560  0.7771
17232TIP3    H173111   4.400   4.224  16.319  0.9361  1.7270  1.1994
17232TIP3    H273112   4.375   4.112  16.418 -1.6231  0.9227 -0.3090
17233TIP3   OH273113   6.640   0.069   5.810 -0.3495 -0.5514  0.1301
17233TIP3    H173114   6.636   0.121   5.729  1.3253  0.5092  0.7097
17233TIP3    H273115   6.638  -0.022   5.779 -2.0698 -0.1765 -0.9592
17234TIP3   OH273116   3.787   4.201  10.440 -0.2265 -0.1169 -0.0098
17234TIP3    H173117   3.702   4.233  10.410  0.1165  0.2473 -0.6130
17234TIP3    H273118   3.809   4.131  10.379 -0.5222 -0.8468  0.7145
17235TIP3   OH273119   3.928   5.078   3.750  0.3836  0.4967 -0.4978
17235TIP3    H173120   3.911   4.987   3.728  0.9132  0.5388 -1.1220
17235TIP3    H273121   3.884   5.092   3.833 -0.7215  0.0073 -0.9973
17236TIP3   OH273122   0.156   4.722  12.725 -0.4522  0.6025  0.6866
17236TIP3    H173123   0.168   4.733  12.631  0.0130  0.2964  0.7059
17236TIP3    H273124   0.239   4.686  12.756 -0.6353  0.6081  1.2001
17237TIP3   OH273125   4.219   2.705  11.260  0.2420  0.1178  0.9658
17237TIP3    H173126   4.225   2.610  11.270  0.5488  0.1182  0.8098
17237TIP3    H273127   4.310   2.732  11.244 -0.1565  0.1471 -1.5022
17238TIP3   OH273128   6.410   1.956   6.235 -0.5205 -0.1854 -0.5018
17238TIP3    H173129   6.324   1.991   6.261  0.2518  0.5742  1.1102
17238TIP3    H273130   6.409   1.865   6.265 -0.6310 -0.0681 -0.1444
17239TIP3   OH273131   1.558   2.455   3.672  0.2298  0.4189  0.0976
17239TIP3    H173132   1.506   2.377   3.654  0.7347  0.5715 -2.1788
17239TIP3    H273133   1.638   2.443   3.622  0.7705  1.9143  0.5643
17240TIP3   OH273134   6.424   0.713  12.189 -0.0798 -0.4301  0.2324
17240TIP3    H173135   6.361   0.643  12.171 -1.1470 -0.2272  2.9442
17240TIP3    H273136   6.379   0.793  12.162  0.6591 -0.6252 -1.6897
17241TIP3   OH273137   5.623   5.108  16.308  0.0225 -0.1228  0.7554
17241TIP3    H173138   5.683   5.039  16.335  0.1398 -0.9383 -1.4934
17241TIP3    H273139   5.600   5.086  16.218  0.2626  2.9375 -0.0963
17242TIP3   OH273140   5.550   0.368   0.120 -0.2007  0.1554  0.1472
17242TIP3    H173141   5.642   0.391   0.129  0.1436 -1.5226  1.2467
17242TIP3    H273142   5.523   0.406   0.037  1.1056  1.8711  0.4916
17243TIP3   OH273143   2.678   6.227  16.606 -0.0806 -0.4398 -0.3401
17243TIP3    H173144   2.737   6.187  16.670  1.0008  0.0027 -1.0593
17243TIP3    H273145   2.689   6.321  16.619 -2.7623 -0.3071  1.4869
17244TIP3   OH273146   3.693   5.754  14.206 -0.0158 -0.4548 -0.0435
17244TIP3    H173147   3.671   5.847  14.199 -0.8408 -0.5952  0.6811
17244TIP3    H273148   3.696   5.724  14.115  0.9554  0.4342 -0.3199
17245TIP3   OH273149   1.268   6.115   0.066 -0.1973 -0.2690  0.1965
17245TIP3    H173150   1.234   6.187   0.013 -0.3444 -1.0636 -0.7969
17245TIP3    H273151   1.199   6.100   0.131 -0.2684  0.3300  0.2631
17246TIP3   OH273152   5.466   3.256   1.959 -0.6718  0.0527  0.3427
17246TIP3    H173153   5.533   3.226   2.021 -1.1749 -0.2465  0.7404
17246TIP3    H273154   5.415   3.178   1.940 -1.3049  0.4179  0.5335
17247TIP3   OH273155   3.098   0.740  16.380 -0.2351 -0.0922 -0.2975
17247TIP3    H173156   3.029   0.782  16.330  1.6440  1.7937 -1.3785
17247TIP3    H273157   3.148   0.690  16.315  0.9824  0.6963  0.0170
17248TIP3   OH273158   4.912   0.474   3.059  0.8471  0.1636 -0.0526
17248TIP3    H173159   4.900   0.421   3.138  1.5281  0.7598  0.4565
17248TIP3    H273160   4.830   0.464   3.010 -0.4233  1.5198  1.7644
17249TIP3   OH273161   2.935   4.916   0.211 -0.2880 -0.2427 -0.0349
17249TIP3    H173162   2.907   4.883   0.296  0.9667  3.1686  1.7744
17249TIP3    H273163   3.030   4.919   0.215 -0.1264 -1.1109 -2.0374
17250TIP3   OH273164   3.421   1.095  14.817  0.0773 -0.3550  0.0301
17250TIP3    H173165   3.340   1.049  14.835  0.2681 -1.1528 -1.0924
17250TIP3    H273166   3.399   1.188  14.823 -0.8402 -0.5776  0.0490
17251TIP3   OH273167   1.524   4.568  14.138 -0.3229 -0.0119  0.4691
17251TIP3    H173168   1.508   4.544  14.229 -0.3208 -1.4095  0.0981
17251TIP3    H273169   1.446   4.540  14.091 -1.2619  2.6315  0.3580
17252TIP3   OH273170   3.160   0.702   0.116 -1.0337 -0.3317  0.7059
17252TIP3    H173171   3.245   0.707   0.160 -0.4524  0.2196 -0.4698
17252TIP3    H273172   3.098   0.739   0.180 -0.2363  0.2272  1.1634
17253TIP3   OH273173   5.066   1.822   1.171  0.1566  0.0448 -0.5455
17253TIP3    H173174   5.149   1.844   1.213 -0.2764 -1.4232  1.1438
17253TIP3    H273175   5.001   1.873   1.219 -0.2632 -1.1531  0.1962
17254TIP3   OH273176   6.290   5.431   0.632 -0.6099  0.0444 -0.5104
17254TIP3    H173177   6.216   5.446   0.574 -0.2596 -1.6362 -1.4152
17254TIP3    H273178   6.270   5.347   0.674  2.3893 -2.1737 -3.3314
17255TIP3   OH273179   6.546   3.511  12.129  0.9514  0.4865  0.0631
17255TIP3    H173180   6.462   3.556  12.120  0.6914  0.2488  1.2595
17255TIP3    H273181   6.581   3.541  12.213 -0.7411 -3.9588  2.5103
17256TIP3   OH273182   3.721   2.348   1.114  0.4026  0.1523 -0.2437
17256TIP3    H173183   3.635   2.307   1.125  0.5637  0.1236  1.0269
17256TIP3    H273184   3.731   2.358   1.020 -0.6924 -0.4984 -0.4406
17257TIP3   OH273185   3.118   4.400   5.813 -0.1103 -0.1274  0.3788
17257TIP3    H173186   3.168   4.478   5.789 -0.8087 -0.1290 -1.1167
17257TIP3    H273187   3.106   4.408   5.907  0.6833  1.0656  0.3949
17258TIP3   OH273188   4.368   0.339   2.580 -0.1257  0.2439 -0.5855
17258TIP3    H173189   4.448   0.310   2.624 -0.2056 -0.0833 -0.6586
17258TIP3    H273190   4.313   0.261   2.574 -0.2907  0.3786 -0.8869
17259TIP3   OH273191   2.949   2.201  13.153  0.6304  0.1316  0.1258
17259TIP3    H173192   2.996   2.131  13.108  0.7372 -0.5260  1.2386
17259TIP3    H273193   3.014   2.241  13.211 -0.3207 -1.2786  2.2467
17260TIP3   OH273194   1.557   5.874  10.579 -1.0688  0.3646 -0.2895
17260TIP3    H173195   1.520   5.929  10.648 -1.2185  0.6183 -0.5732
17260TIP3    H273196   1.542   5.923  10.499 -0.5327  0.2554 -0.4574
17261TIP3   OH273197   5.515   5.736   5.051 -0.2485 -0.3812 -0.0237
17261TIP3    H173198   5.453   5.747   4.979  1.9986 -0.1708 -1.9804
17261TIP3    H273199   5.555   5.822   5.062  1.2257 -1.0280 -0.2296
17262TIP3   OH273200   0.949   6.711  16.780  0.4100 -0.0942 -0.0858
17262TIP3    H173201   1.008   6.710  16.855  0.6171  0.1959 -0.2383
17262TIP3    H273202   1.000   6.671  16.709  0.5778  0.5171 -0.3200
17263TIP3   OH273203   6.445   3.246  16.379 -0.6821  0.4221  0.3223
17263TIP3    H173204   6.401   3.162  16.387  0.3482 -0.3732 -2.0830
17263TIP3    H273205   6.505   3.248  16.454 -0.8754 -0.8767  0.5248
17264TIP3   OH273206   6.122   2.580   1.777  0.5639 -0.6445  0.2994
17264TIP3    H173207   6.137   2.523   1.701  1.5666  0.8642 -0.6770
17264TIP3    H273208   6.100   2.520   1.848  0.8304 -2.1882 -0.8801
17265TIP3   OH273209   3.405   3.823  11.197 -0.0593  0.5159  0.2950
17265TIP3    H173210   3.431   3.766  11.125 -1.5727  1.7887 -1.3070
17265TIP3    H273211   3.453   3.904  11.182 -0.5518  0.8653  0.5896
17266TIP3   OH273212   3.762   2.006   5.647 -0.4756 -0.3342 -0.0273
17266TIP3    H173213   3.715   1.939   5.696 -1.8742 -0.3621 -1.3527
17266TIP3    H273214   3.699   2.035   5.580  0.7728  0.9300 -0.6810
17267TIP3   OH273215   5.217   2.035  14.546 -0.0527  0.3246 -0.3333
17267TIP3    H173216   5.296   2.043  14.600  0.3217  2.5707 -1.1616
17267TIP3    H273217   5.229   1.955  14.496  1.3146  0.2040  0.1832
17268TIP3   OH273218   5.136   5.313   3.894  0.4597  0.1484  0.5143
17268TIP3    H173219   5.084   5.257   3.952 -0.4736 -0.4736 -0.8838
17268TIP3    H273220   5.107   5.289   3.806  1.2368  1.6743 -0.1783
17269TIP3   OH273221   4.278   1.644  15.973  0.2573  0.2352  0.0237
17269TIP3    H173222   4.350   1.700  15.945  0.9217  0.0154  1.2734
17269TIP3    H273223   4.316   1.587  16.040 -0.6308 -1.0954 -0.5857
17270TIP3   OH273224   1.668   5.206  12.606 -0.0908  0.2457 -0.2466
17270TIP3    H173225   1.617   5.226  12.684  0.7545  1.8752 -0.0763
17270TIP3    H273226   1.759   5.215  12.634  0.2230  0.6981 -1.3845
17271TIP3   OH273227   2.681   0.930  14.213 -0.4128 -0.1213 -0.2203
17271TIP3    H173228   2.693   1.021  14.240  2.0759 -0.1783 -0.9747
17271TIP3    H273229   2.590   0.909  14.235 -0.5617  2.0757  1.3173
17272TIP3   OH273230   4.093   4.839  12.510  0.0313 -0.1291 -0.2744
17272TIP3    H173231   4.102   4.812  12.602 -0.6804 -2.2481 -0.7999
17272TIP3    H273232   3.999   4.838  12.495  0.1652 -0.0709 -1.1088
17273TIP3   OH273233   3.919   0.858  16.879 -0.2265 -0.6086  0.0117
17273TIP3    H173234   3.923   0.886  16.971 -0.4952  0.4404 -0.2938
17273TIP3    H273235   4.010   0.857  16.850 -0.1866 -0.4106  0.1292
17274TIP3   OH273236   2.059   3.834   5.684 -0.3764 -0.3279 -0.2523
17274TIP3    H173237   2.008   3.790   5.752  0.7715  2.4473  2.5922
17274TIP3    H273238   1.997   3.851   5.613 -2.0331 -1.8319  0.8038
17275TIP3   OH273239   1.867   4.921  11.349  0.3029 -0.1022  0.0711
17275TIP3    H173240   1.809   4.845  11.354  1.0926 -0.8637 -1.9383
17275TIP3    H273241   1.810   4.996  11.368 -1.1109 -0.9293 -0.8763
17276TIP3   OH273242   1.507   0.540  16.583 -0.3271 -0.6420  0.8605
17276TIP3    H173243   1.413   0.555  16.574 -0.0556  0.2264 -0.6967
17276TIP3    H273244   1.530   0.483  16.510  0.4352 -0.5118  0.9872
17277TIP3   OH273245   2.879   4.941   6.318  0.1387  0.1386  0.3931
17277TIP3    H173246   2.830   4.886   6.379 -1.1401  1.0300  0.1871
17277TIP3    H273247   2.818   4.958   6.246  1.2347  0.0760 -0.5728
17278TIP3   OH273248   1.786   2.497  12.864 -0.4464  0.4436  0.3196
17278TIP3    H173249   1.734   2.518  12.941 -0.4798 -1.4162  0.8287
17278TIP3    H273250   1.866   2.549  12.874 -1.3362  1.7882  0.5409
17279TIP3   OH273251   5.466   6.149   1.654 -0.5106  0.3320  0.7817
17279TIP3    H173252   5.391   6.200   1.622 -1.0698 -1.4744 -0.9301
17279TIP3    H273253   5.541   6.183   1.606 -0.8164 -0.1564 -0.0564
17280TIP3   OH273254   3.229   1.617  11.239 -0.3669 -0.7769  0.1001
17280TIP3    H173255   3.256   1.690  11.184 -0.0652 -1.6940 -0.9839
17280TIP3    H273256   3.177   1.561  11.182  0.2090 -1.8958  0.6495
17281TIP3   OH273257   4.246   1.859  15.453 -0.1118 -0.1094  0.5181
17281TIP3    H173258   4.205   1.867  15.367 -1.8559  3.2572  1.5715
17281TIP3    H273259   4.238   1.767  15.475 -1.8533 -0.5802 -1.8755
17282TIP3   OH273260   0.231   5.603  13.048 -0.4496 -0.5109 -0.6299
17282TIP3    H173261   0.194   5.577  12.964 -1.8510 -0.9512  0.1068
17282TIP3    H273262   0.278   5.526  13.080 -2.6459 -1.4212  0.4777
17283TIP3   OH273263   0.660   2.152  14.939 -0.7125  0.6599 -0.1923
17283TIP3    H173264   0.698   2.236  14.967 -0.7541  1.0903 -1.3734
17283TIP3    H273265   0.683   2.146  14.846  0.6877 -1.4106  0.2594
17284TIP3   OH273266   4.263   5.941  13.364  0.6590  0.2995 -0.3416
17284TIP3    H173267   4.348   5.902  13.340  0.1575 -0.4469 -0.9339
17284TIP3    H273268   4.257   5.929  13.458  0.6475 -0.8116 -0.4680
17285TIP3   OH273269   4.574   2.470  11.961 -0.3157 -0.3774  0.1307
17285TIP3    H173270   4.630   2.473  11.884 -0.0675 -1.5327  0.2483
17285TIP3    H273271   4.487   2.491  11.928  0.5224  3.6984  0.3363
17286TIP3   OH273272   2.295   0.309  13.929  0.0947  0.4138 -0.2484
17286TIP3    H173273   2.322   0.321  13.838  1.3006  0.1468  0.0615
17286TIP3    H273274   2.355   0.243  13.963 -1.3704 -0.6590  0.2960
17287TIP3   OH273275   4.702   0.232  15.404 -0.0716 -0.0822  0.2059
17287TIP3    H173276   4.767   0.277  15.457  0.5226  0.9997 -1.4097
17287TIP3    H273277   4.740   0.229  15.316 -0.5800 -2.7604  0.0291
17288TIP3   OH273278   3.690   6.785  12.636  0.1451  0.1736 -0.7278
17288TIP3    H173279   3.611   6.822  12.676 -0.0205 -0.6222 -0.3050
17288TIP3    H273280   3.747   6.767  12.710  0.3230 -0.1836 -0.9513
17289TIP3   OH273281   3.721   6.313  16.757 -0.3845  0.3924  0.2229
17289TIP3    H173282   3.656   6.330  16.825 -0.1696  0.7624  0.3353
17289TIP3    H273283   3.771   6.394  16.750  0.8354 -0.2789  0.9804
17290TIP3   OH273284   3.789   4.906   5.118  0.1358  0.4306  0.4232
17290TIP3    H173285   3.842   4.827   5.126  1.6680  1.4142  0.0715
17290TIP3    H273286   3.849   4.978   5.135 -1.4861  1.5021  1.8091
17291TIP3   OH273287   1.444   6.332   0.831  0.5848  0.1715 -0.1178
17291TIP3    H173288   1.527   6.370   0.802  0.3283  0.0995 -0.9872
17291TIP3    H273289   1.402   6.303   0.750  0.8558 -2.1589  0.5621
17292TIP3   OH273290   4.580   1.582  14.968 -0.2825  0.5296 -0.0661
17292TIP3    H173291   4.486   1.576  14.988  0.3083 -1.5032  2.3097
17292TIP3    H273292   4.614   1.644  15.032  0.2701 -0.0279  0.1829
17293TIP3   OH273293   2.030   6.697   3.069 -0.1844  0.1213 -0.0597
17293TIP3    H173294   1.989   6.754   3.133  0.6408  1.2636 -0.5208
17293TIP3    H273295   2.026   6.747   2.987  1.1092 -0.2011 -0.3363
17294TIP3   OH273296   2.534   4.373  13.859 -0.3164  0.7599 -0.0699
17294TIP3    H173297   2.517   4.441  13.924  0.7334  1.9532 -1.0395
17294TIP3    H273298   2.545   4.420  13.777  2.5617 -0.3747 -0.3777
17295TIP3   OH273299   5.454   4.590   2.947  0.1969 -0.1095  0.1691
17295TIP3    H173300   5.530   4.594   2.888  0.4204  0.2081  0.4805
17295TIP3    H273301   5.475   4.519   3.007 -0.2907 -0.8193 -0.4930
17296TIP3   OH273302   2.488   1.835   4.526 -0.5185  0.1092 -0.0406
17296TIP3    H173303   2.494   1.817   4.432 -1.8326 -0.6363  0.0046
17296TIP3    H273304   2.572   1.807   4.562 -0.9299 -1.9386 -0.6196
17297TIP3   OH273305   1.410   2.946   4.178 -0.3624 -0.6020  0.5433
17297TIP3    H173306   1.478   2.904   4.125  0.1540  2.4656 -1.3689
17297TIP3    H273307   1.450   2.956   4.264  2.2284  2.3694 -0.9024
17298TIP3   OH273308   2.613   1.047   4.047 -0.0405  0.2741  0.4543
17298TIP3    H173309   2.570   1.118   4.095 -1.7453 -0.6674  0.3710
17298TIP3    H273310   2.693   1.030   4.095  0.7899  2.7574  0.0498
17299TIP3   OH273311   5.913   5.357   5.511 -0.0375 -0.4362  0.1250
17299TIP3    H173312   5.869   5.308   5.580  1.0867 -1.0580  0.4072
17299TIP3    H273313   5.971   5.418   5.556 -0.3393  0.1373 -0.2492
17300TIP3   OH273314   4.551   0.404  17.060 -0.3732 -0.4156 -0.0072
17300TIP3    H173315   4.631   0.427  17.106 -1.0022 -0.3914  1.0795
17300TIP3    H273316   4.537   0.311  17.081 -1.5165  0.0116  1.1567
17301TIP3   OH273317   2.497   3.384  14.076 -0.5182  0.3491  0.2569
17301TIP3    H173318   2.564   3.327  14.111 -0.2119  0.7658  0.3451
17301TIP3    H273319   2.422   3.327  14.061 -0.4748  0.0765  1.0889
17302TIP3   OH273320   0.522   4.612  15.745  0.0398 -0.2675 -0.2240
17302TIP3    H173321   0.440   4.641  15.785  1.2867  1.1837  1.3661
17302TIP3    H273322   0.590   4.633  15.810  1.7277 -1.0321 -1.6776
17303TIP3   OH273323   1.701   4.904  16.943  0.3156 -0.7916 -0.6335
17303TIP3    H173324   1.751   4.876  16.866  0.1118  1.1402 -1.5048
17303TIP3    H273325   1.610   4.898  16.915  0.2002 -1.3019 -0.1236
17304TIP3   OH273326   1.238   2.259  14.299 -0.3100  0.5274 -0.2333
17304TIP3    H173327   1.254   2.340  14.251  0.0981 -0.0500 -1.0914
17304TIP3    H273328   1.321   2.240  14.343  0.8095 -1.3167 -2.9439
17305TIP3   OH273329   0.364   6.076  13.097 -0.1241 -0.2092 -0.1308
17305TIP3    H173330   0.352   6.089  13.191 -1.2585 -3.0390  0.1619
17305TIP3    H273331   0.296   6.014  13.072  2.0898 -1.8724 -2.2354
17306TIP3   OH273332   1.889   1.464   2.631 -0.2580  0.0654 -0.2036
17306TIP3    H173333   1.798   1.492   2.620 -0.2177  0.8610  1.3335
17306TIP3    H273334   1.886   1.400   2.702  0.6964  1.8993  1.5276
17307TIP3   OH273335   1.831   4.123  12.038  0.4874 -0.0433  0.0655
17307TIP3    H173336   1.914   4.113  12.083  2.2737  1.6053 -2.6778
17307TIP3    H273337   1.766   4.130  12.108  2.5196 -2.0918  2.2527
17308TIP3   OH273338   6.549   6.691  12.555 -0.4939  0.2000  0.1105
17308TIP3    H173339   6.459   6.659  12.546 -0.3484 -0.1056 -0.2474
17308TIP3    H273340   6.604   6.613  12.548 -0.1394  0.5151 -0.6963
17309TIP3   OH273341   5.418   1.300   6.513  0.1191  0.3987  0.1665
17309TIP3    H173342   5.405   1.298   6.418 -1.0197  3.2629  0.1869
17309TIP3    H273343   5.498   1.250   6.528  0.7830  0.6130 -2.3910
17310TIP3   OH273344   2.648   3.150   2.635 -0.2236 -0.1043  0.3133
17310TIP3    H173345   2.623   3.226   2.583  1.0450  0.9780  1.2551
17310TIP3    H273346   2.565   3.107   2.654 -0.7891  0.0013 -1.7756
17311TIP3   OH273347   0.362   4.495  13.425  0.1361 -0.1636 -0.1027
17311TIP3    H173348   0.267   4.492  13.417  0.0548  0.9209  0.4405
17311TIP3    H273349   0.382   4.436  13.497 -0.1686  0.0623  0.1677
17312TIP3   OH273350   0.025   1.391  13.726  0.6686 -0.4919  0.2920
17312TIP3    H173351   0.008   1.354  13.813 -0.6097  1.5468  0.9462
17312TIP3    H273352   0.109   1.436  13.736  1.0554 -1.1703  0.1526
17313TIP3   OH273353   1.501   3.249   3.407 -0.1381 -0.3754  0.2754
17313TIP3    H173354   1.503   3.253   3.503 -0.0546 -0.3833  0.2737
17313TIP3    H273355   1.584   3.289   3.380  0.3415 -1.3797  0.2342
17314TIP3   OH273356   6.519   2.797  15.186  0.0769 -0.2851  0.1016
17314TIP3    H173357   6.516   2.729  15.120 -1.2870 -0.8241  0.7012
17314TIP3    H273358   6.603   2.840  15.173  0.9375 -2.0709 -0.2870
17315TIP3   OH273359   1.042   5.124   1.102  0.1840 -1.2119 -0.6260
17315TIP3    H173360   1.035   5.123   1.198 -1.0888 -0.6016 -0.6989
17315TIP3    H273361   1.007   5.039   1.075 -2.0090 -0.3206 -0.6819
17316TIP3   OH273362   4.290   2.717  15.797  0.1893  0.2595  0.0837
17316TIP3    H173363   4.322   2.701  15.886 -1.8817  0.6762  0.9376
17316TIP3    H273364   4.360   2.686  15.740  0.8648 -1.5675  1.8458
17317TIP3   OH273365   6.753   4.566   4.301 -0.3311  0.6960  0.2698
17317TIP3    H173366   6.834   4.608   4.270  0.5496 -1.1126  0.0558
17317TIP3    H273367   6.756   4.576   4.396 -0.0853  1.0297  0.2309
17318TIP3   OH273368   1.184   0.162  15.661  0.0802 -0.0337  0.1480
17318TIP3    H173369   1.145   0.210  15.734  1.1460  2.6221 -0.9811
17318TIP3    H273370   1.137   0.194  15.584  0.5306 -1.1377 -0.5984
17319TIP3   OH273371   6.627   1.202   5.383 -0.9207 -0.4991 -0.0258
17319TIP3    H173372   6.696   1.216   5.448  0.3239 -1.2680 -1.1440
17319TIP3    H273373   6.546   1.196   5.434 -0.1129 -0.0074  1.3483
17320TIP3   OH273374   2.767   5.513  16.109 -0.1994 -0.2513 -0.7589
17320TIP3    H173375   2.757   5.606  16.089  0.5110 -0.1278 -0.5558
17320TIP3    H273376   2.833   5.511  16.179 -0.8124 -0.8477 -0.1906
17321TIP3   OH273377   5.084   1.804   1.868  0.1951 -0.0435  0.0205
17321TIP3    H173378   5.119   1.814   1.780  1.0425  0.2107  0.3814
17321TIP3    H273379   4.996   1.766   1.855 -0.2345  1.2699 -0.9894
17322TIP3   OH273380   2.995   1.353  16.166 -0.5679  0.1764 -0.2364
17322TIP3    H173381   3.030   1.323  16.250  0.1014 -0.1929 -0.6447
17322TIP3    H273382   3.067   1.340  16.104 -1.9272 -2.0425 -1.4098
17323TIP3   OH273383   0.803   6.023   3.901  0.4581 -0.1767 -0.3654
17323TIP3    H173384   0.867   6.093   3.920  1.7032 -0.9998 -1.4311
17323TIP3    H273385   0.754   6.012   3.982  0.4789  1.7054 -0.0760
17324TIP3   OH273386   3.502   0.637  16.958  0.5850 -0.3590  0.1907
17324TIP3    H173387   3.464   0.685  17.031 -0.4625  0.6611 -1.0073
17324TIP3    H273388   3.591   0.617  16.986  0.2004  0.0473  1.7256
17325TIP3   OH273389   5.966   3.311  16.821 -0.0436  0.2914  0.0562
17325TIP3    H173390   5.963   3.366  16.899  0.2613 -1.9389  1.7008
17325TIP3    H273391   5.914   3.358  16.756 -0.5645  2.0401  1.6900
17326TIP3   OH273392   1.392   2.332  11.740  0.0848  0.6773  0.6252
17326TIP3    H173393   1.407   2.416  11.783 -1.8381  1.7579 -0.7193
17326TIP3    H273394   1.317   2.295  11.787 -2.3924  2.1212 -2.0436
17327TIP3   OH273395   4.671   6.622  11.245 -0.1394  0.3229  0.4481
17327TIP3    H173396   4.671   6.698  11.187 -0.5155  0.7531  1.0096
17327TIP3    H273397   4.676   6.547  11.186 -0.1788  0.7682 -0.1265
17328TIP3   OH273398   6.140   2.158  14.131 -0.4977  0.2271 -0.0338
17328TIP3    H173399   6.096   2.079  14.098 -0.7980  0.5760 -0.4623
17328TIP3    H273400   6.181   2.196  14.053  0.9722 -0.3490  0.4211
17329TIP3   OH273401   2.248   1.374   1.885 -0.4495  0.3258 -0.4228
17329TIP3    H173402   2.323   1.388   1.943  0.2799  1.1823 -1.5467
17329TIP3    H273403   2.245   1.454   1.831 -1.8057  0.0377 -0.7862
17330TIP3   OH273404   6.226   3.359  17.223 -0.0731 -0.4942  1.0368
17330TIP3    H173405   6.257   3.286  17.170  1.0989 -0.2694  1.3939
17330TIP3    H273406   6.138   3.378  17.190 -0.4697 -2.2050  1.0909
17331TIP3   OH273407   5.356   2.677   2.230  0.4447 -0.0844 -0.1058
17331TIP3    H173408   5.353   2.661   2.324  0.1872  1.7265  0.2152
17331TIP3    H273409   5.381   2.593   2.192  2.1818 -0.4250  1.6998
17332TIP3   OH273410   4.759   3.273   4.913  0.5286 -0.5503  0.1710
17332TIP3    H173411   4.686   3.328   4.885  0.7293 -0.0853  0.5544
17332TIP3    H273412   4.788   3.311   4.996  0.1535 -1.7091  0.8485
17333TIP3   OH273413   5.110   5.718   5.280  0.0191 -0.9947 -0.3294
17333TIP3    H173414   5.017   5.696   5.288 -0.0466 -0.1458  1.5840
17333TIP3    H273415   5.156   5.638   5.304 -0.2330 -0.8071  0.8150
17334TIP3   OH273416   3.384   2.073   2.759  0.2629 -0.1070  0.2341
17334TIP3    H173417   3.330   2.042   2.832 -0.0290  2.4496  1.1393
17334TIP3    H273418   3.388   2.167   2.770  1.4758  0.1745 -2.2276
17335TIP3   OH273419   2.371   2.090  11.367 -0.6291  0.7433 -0.3203
17335TIP3    H173420   2.330   2.006  11.383 -0.8537  0.6739 -1.2874
17335TIP3    H273421   2.459   2.069  11.336 -0.1235  0.8862  0.9602
17336TIP3   OH273422   1.068   2.809  14.828  0.1072  0.2717 -0.1635
17336TIP3    H173423   0.973   2.810  14.834 -0.0380 -0.4630 -2.1148
17336TIP3    H273424   1.097   2.870  14.896 -1.7780  0.9721  0.0312
17337TIP3   OH273425   5.416   0.068   1.102 -0.0971  0.1785 -0.1091
17337TIP3    H173426   5.344   0.127   1.077 -0.0956  0.4507  0.5323
17337TIP3    H273427   5.491   0.100   1.052 -0.6238 -0.6689 -1.4960
17338TIP3   OH273428   5.732   2.320  15.908  0.8179  0.2967  0.3593
17338TIP3    H173429   5.656   2.357  15.863  0.5671  0.1456  0.6567
17338TIP3    H273430   5.778   2.270  15.841  0.3497 -0.0698  0.3068
17339TIP3   OH273431   4.965   5.750   0.156  0.5233  0.0124  0.1781
17339TIP3    H173432   5.034   5.702   0.111  1.6190  1.8561 -0.1523
17339TIP3    H273433   5.007   5.786   0.234  0.3774  2.3975 -0.7888
17340TIP3   OH273434   6.205   2.205  16.939 -0.5166  0.5021  0.1956
17340TIP3    H173435   6.198   2.301  16.946  2.5705  0.6357  3.0928
17340TIP3    H273436   6.146   2.172  17.005 -1.4872  0.3802 -0.7202
17341TIP3   OH273437   6.208   6.142  11.783 -0.0856  0.3978 -0.0143
17341TIP3    H173438   6.120   6.137  11.820  0.6765  1.8987  2.0572
17341TIP3    H273439   6.260   6.081  11.835  0.5191  0.9005 -0.0207
17342TIP3   OH273440   5.240   5.316   0.764 -0.3492  0.5338  0.1797
17342TIP3    H173441   5.283   5.288   0.845 -0.2909  0.8488  0.2592
17342TIP3    H273442   5.233   5.411   0.773 -0.1173  0.5963 -0.2974
17343TIP3   OH273443   6.243   1.385  17.194 -0.5347  0.1349 -0.0599
17343TIP3    H173444   6.283   1.415  17.276 -1.7397  1.0422  0.2276
17343TIP3    H273445   6.291   1.306  17.171  0.1632  0.1564  1.2551
17344TIP3   OH273446   5.339   1.529   1.915  0.0022 -0.4617 -0.0393
17344TIP3    H173447   5.251   1.496   1.898  0.7345 -2.6620  0.2936
17344TIP3    H273448   5.377   1.542   1.829 -1.2675  2.2788 -0.2198
17345TIP3   OH273449   2.240   1.046  16.381 -0.4388 -0.2789  0.7174
17345TIP3    H173450   2.275   0.966  16.420  0.6101 -0.2588 -0.1526
17345TIP3    H273451   2.274   1.116  16.437 -0.3020 -0.3625  0.7406
17346TIP3   OH273452   5.187   0.860  12.748  0.3693  0.1741 -0.1816
17346TIP3    H173453   5.108   0.857  12.694 -0.7392  1.9113  1.2751
17346TIP3    H273454   5.238   0.932  12.712  1.1120 -0.6886 -0.8683
17347TIP3   OH273455   1.976   3.500  16.469 -0.5809  0.5432 -0.0760
17347TIP3    H173456   1.913   3.452  16.523  1.6130 -3.0916 -0.6092
17347TIP3    H273457   2.012   3.566  16.528 -0.8950 -0.9470  1.8379
17348TIP3   OH273458   2.182   5.710  13.800 -0.0220  0.3623 -0.3641
17348TIP3    H173459   2.106   5.691  13.744  0.9842  0.9518 -1.9585
17348TIP3    H273460   2.237   5.767  13.746  0.4756  1.8169  1.6248
17349TIP3   OH273461   5.794   0.034   4.248 -0.0564  0.1532  0.5896
17349TIP3    H173462   5.811   0.029   4.153 -1.0769 -0.2397  0.4233
17349TIP3    H273463   5.880   0.052   4.286  0.3740  0.2730 -0.4101
17350TIP3   OH273464   4.594   1.846   3.914 -0.0249  0.6719 -0.0926
17350TIP3    H173465   4.631   1.882   3.833  0.9018  2.3215  1.0472
17350TIP3    H273466   4.669   1.830   3.970 -0.7520  0.7263  0.9129
17351TIP3   OH273467   5.063   6.650  14.116 -0.6022  0.5799  0.0051
17351TIP3    H173468   5.082   6.563  14.149 -1.2235  1.2078  2.0886
17351TIP3    H273469   4.986   6.638  14.060 -0.1556 -0.3306 -0.4248
17352TIP3   OH273470   2.777   5.359   1.848 -0.6817  0.4251  0.2311
17352TIP3    H173471   2.761   5.436   1.793 -2.1493  0.9596  1.3407
17352TIP3    H273472   2.792   5.395   1.935 -0.3701 -0.5003  0.5639
17353TIP3   OH273473   1.697   0.330   3.191 -0.2529  0.2028  0.5635
17353TIP3    H173474   1.657   0.415   3.172 -0.0125  0.1922 -0.0044
17353TIP3    H273475   1.697   0.285   3.107 -1.2470 -0.7224  1.0631
17354TIP3   OH273476   3.021   1.585   5.358 -0.2592  0.5221  0.0148
17354TIP3    H173477   3.018   1.661   5.301 -1.1174  0.6005  0.1666
17354TIP3    H273478   2.953   1.601   5.423  0.1777  0.0598  0.5942
17355TIP3   OH273479   0.815   6.342  16.785  0.2440 -0.5963 -0.3229
17355TIP3    H173480   0.752   6.373  16.720 -1.0847  0.2149  1.3012
17355TIP3    H273481   0.761   6.293  16.848  1.4222 -0.9253  0.4344
17356TIP3   OH273482   5.536   0.720   6.112 -0.6511  0.1638  0.6397
17356TIP3    H173483   5.598   0.647   6.113 -0.6097  0.1935  0.4008
17356TIP3    H273484   5.457   0.685   6.153 -1.3293 -0.6543 -1.2827
17357TIP3   OH273485   0.134   1.891   5.209 -0.2323 -0.5394  0.4567
17357TIP3    H173486   0.069   1.957   5.187 -0.6169 -0.4488  1.8008
17357TIP3    H273487   0.124   1.824   5.141  0.4106  0.9282 -1.1212
17358TIP3   OH273488   0.345   4.739   1.352  0.6751  0.1808  0.3761
17358TIP3    H173489   0.325   4.720   1.260  1.3817 -0.9563  0.4417
17358TIP3    H273490   0.321   4.830   1.364  0.2673  0.2394 -0.8581
17359TIP3   OH273491   1.731   5.632   1.733  0.0579  0.2721  0.1826
17359TIP3    H173492   1.708   5.541   1.751  1.3671  0.1393  1.2323
17359TIP3    H273493   1.749   5.633   1.639  0.6252 -0.7009  0.2685
17360TIP3   OH273494   0.030   2.404  16.214  0.3550  0.8926  0.0591
17360TIP3    H173495   0.112   2.395  16.164 -0.1118  0.9110 -0.7173
17360TIP3    H273496  -0.034   2.433  16.149  0.1027  2.4468  0.9757
17361TIP3   OH273497   3.743   6.341  15.916  0.3892 -0.0677 -0.0794
17361TIP3    H173498   3.826   6.376  15.948  0.6513 -0.7529 -0.0167
17361TIP3    H273499   3.718   6.400  15.845  0.6314  0.4865  0.2913
17362TIP3   OH273500   5.761   5.827  10.941 -0.4122 -0.3234  0.0686
17362TIP3    H173501   5.714   5.746  10.921 -2.5811  0.9318  0.0050
17362TIP3    H273502   5.714   5.865  11.015  0.6070  0.8739  0.1094
17363TIP3   OH273503   3.871   1.492  13.821  0.0343 -0.5865  0.2008
17363TIP3    H173504   3.816   1.522  13.893 -2.4437 -0.6162 -1.6075
17363TIP3    H273505   3.865   1.562  13.756  1.5236 -0.9655 -0.3618
17364TIP3   OH273506   0.142   3.528   5.428 -0.5433 -0.0198  0.3316
17364TIP3    H173507   0.172   3.546   5.517  2.7635  0.6487 -0.8713
17364TIP3    H273508   0.058   3.574   5.421 -0.2501  0.9130  2.6974
17365TIP3   OH273509   5.254   0.565  17.079 -0.1018 -0.0316 -0.1131
17365TIP3    H173510   5.198   0.541  17.005  1.9901 -4.3283 -0.4498
17365TIP3    H273511   5.202   0.543  17.156  0.0419 -1.3797 -0.3934
17366TIP3   OH273512   1.233   0.708  14.422 -0.1392  0.3909 -0.1545
17366TIP3    H173513   1.161   0.769  14.438  0.6293  1.4500 -0.7541
17366TIP3    H273514   1.258   0.678  14.509 -2.4651 -1.3627 -0.0190
17367TIP3   OH273515   3.620   1.635   1.545  0.5947 -0.3571 -0.5470
17367TIP3    H173516   3.527   1.653   1.532  0.5443 -0.6669 -0.6117
17367TIP3    H273517   3.630   1.629   1.640  0.5981 -0.0665 -0.5276
17368TIP3   OH273518   2.411   4.974   1.070  0.2938 -0.0096 -0.1911
17368TIP3    H173519   2.403   4.919   1.148 -0.1041 -1.2974 -1.1112
17368TIP3    H273520   2.350   5.046   1.084 -1.7422 -1.6303 -0.4436
17369TIP3   OH273521   4.901   1.703   3.635  0.3604  0.6060  0.2171
17369TIP3    H173522   4.883   1.703   3.541  0.1309  0.3504  0.2565
17369TIP3    H273523   4.827   1.655   3.672  1.3683 -0.8709  0.3478
17370TIP3   OH273524   3.641   0.415  14.017 -0.0068  0.1692 -0.0574
17370TIP3    H173525   3.684   0.456  13.942  0.2485  0.0563  0.0250
17370TIP3    H273526   3.643   0.321  13.998 -0.2767  0.1689 -0.0829
17371TIP3   OH273527   0.256   1.263  13.886 -0.9157 -0.0735 -0.1481
17371TIP3    H173528   0.227   1.238  13.973 -0.8664  1.0471  0.2008
17371TIP3    H273529   0.247   1.184  13.833 -0.1944 -0.9740  1.0626
17372TIP3   OH273530   0.171   1.775  13.708 -0.0938 -0.3270 -0.7467
17372TIP3    H173531   0.098   1.716  13.729 -0.1408  0.1920  0.6497
17372TIP3    H273532   0.248   1.733  13.747  0.0732 -0.0660 -0.7960
17373TIP3   OH273533   4.552   3.102   5.169 -0.3643  0.0968 -0.0154
17373TIP3    H173534   4.477   3.151   5.204  0.7854  1.2710  0.8247
17373TIP3    H273535   4.606   3.168   5.126  0.2544 -0.7353 -0.5224
17374TIP3   OH273536   4.922   4.997  14.000  0.1042 -0.2770 -0.0815
17374TIP3    H173537   4.997   5.030  14.050 -0.7707  2.1588 -0.3116
17374TIP3    H273538   4.855   4.981  14.066  0.9567 -2.9768  0.1901
17375TIP3   OH273539   5.338   3.220   5.602 -0.1046 -0.6202  0.3097
17375TIP3    H173540   5.354   3.314   5.592 -0.6099 -0.7358 -1.8063
17375TIP3    H273541   5.423   3.184   5.627  0.2887  0.2976  0.3283
17376TIP3   OH273542   3.592   3.691   4.752 -0.3130  0.2812  0.2637
17376TIP3    H173543   3.610   3.712   4.660 -0.3584 -1.2582 -0.1100
17376TIP3    H273544   3.498   3.707   4.762 -0.1678  1.1712  0.2453
17377TIP3   OH273545   1.537   5.646  16.188  0.4293  0.4193 -0.0778
17377TIP3    H173546   1.515   5.566  16.236  0.0947  0.3085 -0.4151
17377TIP3    H273547   1.629   5.662  16.209 -0.2428  1.5025  2.2338
17378TIP3   OH273548   3.240   5.092  12.199  0.4318 -0.2898 -0.1196
17378TIP3    H173549   3.176   5.162  12.214  1.6393  0.7833  0.0834
17378TIP3    H273550   3.289   5.121  12.122  2.1308 -0.0091  1.0299
17379TIP3   OH273551   4.392   2.413  16.290 -0.4122 -0.0485 -0.6427
17379TIP3    H173552   4.332   2.410  16.215 -1.0587  0.1971 -0.1424
17379TIP3    H273553   4.374   2.498  16.331  0.5490  0.1910 -0.7090
17380TIP3   OH273554   4.855   6.096  14.736 -0.5355 -0.3563  0.0755
17380TIP3    H173555   4.942   6.086  14.698 -0.3055  1.3517  0.1345
17380TIP3    H273556   4.871   6.104  14.830 -0.7965 -0.5009  0.1323
17381TIP3   OH273557   5.820   0.419  16.117 -0.0514  0.1792 -0.4899
17381TIP3    H173558   5.726   0.437  16.118 -0.0087  0.3946  0.6114
17381TIP3    H273559   5.833   0.360  16.043 -0.8924  0.9959 -1.2925
17382TIP3   OH273560   3.461   0.024  11.954 -0.0444 -0.0245 -0.0160
17382TIP3    H173561   3.472   0.054  12.044 -0.1902  0.4534 -0.1558
17382TIP3    H273562   3.490   0.097  11.900 -0.5074 -0.0901 -0.3611
17383TIP3   OH273563   5.166   5.112  14.663  0.1994  0.2886 -0.0533
17383TIP3    H173564   5.132   5.053  14.596 -0.7509 -0.7715  1.3264
17383TIP3    H273565   5.253   5.076  14.685 -0.4652 -0.7753  0.9385
17384TIP3   OH273566   5.718   1.603   6.563  0.7208 -0.1969  0.3369
17384TIP3    H173567   5.647   1.631   6.621  1.8904 -0.1295  1.7803
17384TIP3    H273568   5.682   1.526   6.518  0.0508 -0.7624  1.7745
17385TIP3   OH273569   0.896   0.418  17.011 -0.2070  0.1323 -0.6472
17385TIP3    H173570   0.934   0.364  16.941 -0.8796 -2.0573  0.6129
17385TIP3    H273571   0.837   0.478  16.965 -1.2971 -1.8418 -1.9439
17386TIP3   OH273572   1.643   4.198  15.655  0.0534 -0.2190  0.4855
17386TIP3    H173573   1.674   4.176  15.567  0.0497  1.3291  0.0758
17386TIP3    H273574   1.694   4.276  15.679 -1.5234  0.6850  0.9398
17387TIP3   OH273575   4.651   5.846  16.729  1.0369  0.2883 -0.3792
17387TIP3    H173576   4.653   5.858  16.634  2.0201  0.2389 -0.3739
17387TIP3    H273577   4.559   5.829  16.750  0.8287  0.2433 -1.3281
17388TIP3   OH273578   1.519   5.884   3.393 -0.2487  0.9630 -0.1744
17388TIP3    H173579   1.428   5.872   3.420  0.2317 -0.1919  0.9923
17388TIP3    H273580   1.563   5.919   3.471  0.7793 -0.6860  0.0126
17389TIP3   OH273581   2.863   4.223   2.118  0.5904 -0.6997  0.3918
17389TIP3    H173582   2.916   4.235   2.039 -2.0803 -0.5369 -1.4590
17389TIP3    H273583   2.868   4.307   2.163  2.0893 -0.7693  0.3904
17390TIP3   OH273584   3.932   1.664  14.628 -0.3974 -0.3614 -0.1035
17390TIP3    H173585   3.968   1.598  14.687  2.7483 -0.4894 -2.0573
17390TIP3    H273586   3.994   1.668  14.556 -2.7065  1.7790 -2.0731
17391TIP3   OH273587   3.450   0.792  13.113 -0.1720 -0.7320  0.1192
17391TIP3    H173588   3.357   0.770  13.112  0.2833 -2.7276 -1.1773
17391TIP3    H273589   3.463   0.844  13.033  0.1229 -1.7503 -0.4943
17392TIP3   OH273590   0.542   5.131   3.734 -0.0885  0.4073  0.4568
17392TIP3    H173591   0.637   5.134   3.743 -0.1452 -2.2487  2.8265
17392TIP3    H273592   0.510   5.128   3.825 -2.4254  1.1873 -0.3126
17393TIP3   OH273593   5.674   1.513  16.543 -0.2723  0.0240 -0.0991
17393TIP3    H173594   5.587   1.530  16.580  0.2782  0.8694  0.8571
17393TIP3    H273595   5.689   1.586  16.482  0.0503  0.2783  0.2752
17394TIP3   OH273596   3.918   4.485   4.807  0.1971 -0.0197 -0.2813
17394TIP3    H173597   3.899   4.508   4.898  0.7846  0.2638 -0.2272
17394TIP3    H273598   3.993   4.539   4.783  0.4468 -0.5504 -0.7321
17395TIP3   OH273599   4.574   4.145   3.958 -0.3548 -0.1960 -0.5312
17395TIP3    H173600   4.625   4.084   3.905 -0.3531  1.0334 -1.9572
17395TIP3    H273601   4.624   4.227   3.955 -1.2022  0.3462  0.0015
17396TIP3   OH273602   4.214   1.215  10.465  0.5533 -0.7214  0.3420
17396TIP3    H173603   4.126   1.185  10.444 -0.2204 -0.0695  2.5455
17396TIP3    H273604   4.268   1.136  10.459  0.1924 -0.7968 -2.7638
17397TIP3   OH273605   4.979   4.793   5.773 -0.1783  0.9393  0.0820
17397TIP3    H173606   5.031   4.753   5.703 -1.0829 -0.3284  0.1162
17397TIP3    H273607   4.895   4.747   5.770 -0.5772  1.5558  1.3618
17398TIP3   OH273608   5.551   0.514   1.949  0.6156 -0.1713 -0.2339
17398TIP3    H173609   5.469   0.493   1.994  0.6427 -1.7587 -0.8792
17398TIP3    H273610   5.587   0.588   1.997 -0.9124  0.1642  0.4138
17399TIP3   OH273611   5.224   3.453  12.380  0.1027  0.2660  0.4915
17399TIP3    H173612   5.183   3.535  12.406  0.5831 -0.4830  3.9120
17399TIP3    H273613   5.153   3.388  12.382  0.0353  0.3042 -0.6378
17400TIP3   OH273614   1.084   3.465   2.040 -0.1575 -0.0538 -0.0635
17400TIP3    H173615   1.079   3.435   1.950 -0.3527  0.0441 -0.0865
17400TIP3    H273616   1.051   3.555   2.037  1.1698  0.4373 -0.1228
17401TIP3   OH273617   3.951   5.077   0.836  0.1694 -0.0867  0.1414
17401TIP3    H173618   3.988   5.157   0.873 -2.5189  1.6173 -0.7543
17401TIP3    H273619   3.950   5.093   0.741  0.0126 -1.3615 -0.0795
17402TIP3   OH273620   0.216   2.454   3.246  0.1990  0.3720 -0.1496
17402TIP3    H173621   0.242   2.363   3.230  0.9647  0.4401  0.6955
17402TIP3    H273622   0.143   2.468   3.186  0.9391 -0.3813 -1.2529
17403TIP3   OH273623   6.001   3.712  11.275  0.2968  0.1348 -0.1918
17403TIP3    H173624   5.983   3.743  11.364  0.3670 -1.6666  0.4826
17403TIP3    H273625   6.075   3.765  11.246 -0.6756  1.7489  0.2647
17404TIP3   OH273626   1.673   0.635   4.015 -0.1905  0.2408 -0.0552
17404TIP3    H173627   1.760   0.610   3.984  0.3617  0.7601  1.0375
17404TIP3    H273628   1.613   0.607   3.946  0.7226 -1.2462 -0.2597
17405TIP3   OH273629   0.485   2.937   1.351  0.2760 -0.3143  0.2744
17405TIP3    H173630   0.501   3.025   1.385  0.8588 -0.6983  1.0081
17405TIP3    H273631   0.572   2.900   1.336  0.0287 -0.4849 -0.7702
17406TIP3   OH273632   0.774   5.342  12.337  0.3343 -0.1130  0.2594
17406TIP3    H173633   0.735   5.255  12.327  0.4321 -0.1072 -0.2023
17406TIP3    H273634   0.699   5.402  12.332  0.1802 -0.2169  1.3634
17407TIP3   OH273635   5.300   4.972  16.476 -0.1086  0.2656  0.4232
17407TIP3    H173636   5.238   5.028  16.431 -0.4827 -0.7293 -0.3204
17407TIP3    H273637   5.385   5.016  16.466 -0.1446 -0.0691 -1.4922
17408TIP3   OH273638   4.322   0.201  14.710 -0.1498  0.5043 -0.3942
17408TIP3    H173639   4.349   0.116  14.676  0.4243  0.8271 -0.7652
17408TIP3    H273640   4.348   0.263  14.641 -0.4443  0.9850 -0.0698
17409TIP3   OH273641   5.292   4.645  11.872 -0.1215 -0.5831 -0.1776
17409TIP3    H173642   5.305   4.659  11.779  0.5725  1.0131  0.1357
17409TIP3    H273643   5.364   4.692  11.914 -0.5711 -1.0548  1.1620
17410TIP3   OH273644   6.064   0.549   3.328  0.2266  0.5867  0.2571
17410TIP3    H173645   6.155   0.522   3.334  0.3691  0.7991 -0.9065
17410TIP3    H273646   6.030   0.506   3.250 -0.8335  0.0643  0.9796
17411TIP3   OH273647   4.131   5.706  16.651 -0.2778  0.2957  0.5380
17411TIP3    H173648   4.049   5.664  16.677  0.2440 -0.8913  0.3374
17411TIP3    H273649   4.106   5.793  16.620 -1.2102  0.7673  2.5578
17412TIP3   OH273650   1.818   3.077  11.508  0.2251 -0.4389  0.0425
17412TIP3    H173651   1.897   3.128  11.491  0.7559 -1.3244 -0.1612
17412TIP3    H273652   1.820   3.059  11.602  0.0779 -0.1554  0.1002
17413TIP3   OH273653   3.512   6.243   5.679  0.3447 -0.1310  0.2833
17413TIP3    H173654   3.571   6.260   5.753  0.2951  1.3634 -0.0025
17413TIP3    H273655   3.430   6.285   5.704 -0.3568 -1.5165  0.3223
17414TIP3   OH273656   5.687   0.447  13.094  0.0261 -1.4880  0.9183
17414TIP3    H173657   5.650   0.359  13.087  2.2463 -2.4552  0.8344
17414TIP3    H273658   5.747   0.453  13.020 -0.7867  0.4646  0.3850
17415TIP3   OH273659   3.032   2.492   6.615  0.0599  0.9223  0.2563
17415TIP3    H173660   3.050   2.561   6.550 -1.0410  2.2427  1.3190
17415TIP3    H273661   2.992   2.539   6.688 -2.7725 -1.1565  0.0868
17416TIP3   OH273662   3.155   2.801   5.345 -0.1830  0.4056  0.1148
17416TIP3    H173663   3.062   2.780   5.353 -0.0488 -0.6381 -0.8821
17416TIP3    H273664   3.199   2.741   5.405 -0.1301  0.6566  0.3256
17417TIP3   OH273665   4.668   2.636  16.313  0.1247  0.1161 -0.3054
17417TIP3    H173666   4.686   2.546  16.282 -0.8977  0.7922 -3.0348
17417TIP3    H273667   4.574   2.637  16.331  0.5797 -0.0475  2.2868
17418TIP3   OH273668   0.434   2.142  16.634 -0.4098 -0.3987  0.0864
17418TIP3    H173669   0.372   2.076  16.667 -0.2085 -0.6174  0.0299
17418TIP3    H273670   0.379   2.216  16.608 -0.7312 -0.9821 -0.9090
17419TIP3   OH273671   1.565   4.156   1.368  0.2584  0.2220  0.3757
17419TIP3    H173672   1.518   4.105   1.434 -0.0369  0.9830  0.7510
17419TIP3    H273673   1.658   4.138   1.385  0.1143 -2.0092 -0.9444
17420TIP3   OH273674   3.983   5.442   2.316  0.0037  0.2844  0.3171
17420TIP3    H173675   3.944   5.357   2.338  1.0864 -0.3174 -0.0601
17420TIP3    H273676   4.040   5.424   2.242  1.4958  1.0219  1.2691
17421TIP3   OH273677   2.119   1.173  13.244  0.5752  0.2994  0.3014
17421TIP3    H173678   2.203   1.207  13.212  0.3178  0.9850  0.3333
17421TIP3    H273679   2.056   1.199  13.177  0.2586  0.5021  0.6742
17422TIP3   OH273680   3.244   5.885   0.012 -0.2942 -0.2110  0.6118
17422TIP3    H173681   3.210   5.814   0.066  1.8392  0.5200  3.0180
17422TIP3    H273682   3.284   5.946   0.074  0.4688  1.6790 -1.6403
17423TIP3   OH273683   2.482   3.578   4.149 -0.1456  0.1555 -1.5385
17423TIP3    H173684   2.436   3.654   4.183 -1.3148 -0.2726 -2.1232
17423TIP3    H273685   2.536   3.547   4.222 -2.2738 -0.4940 -0.1913
17424TIP3   OH273686   2.354   6.615  16.766 -0.5523  0.1915 -0.4712
17424TIP3    H173687   2.261   6.627  16.788 -0.5554  2.9246 -1.7527
17424TIP3    H273688   2.399   6.686  16.813  0.8188 -0.7833 -0.2905
17425TIP3   OH273689   6.662   6.297   5.089 -0.1688 -0.0575  0.3545
17425TIP3    H173690   6.572   6.330   5.092  0.0557  0.4816  1.5987
17425TIP3    H273691   6.658   6.221   5.031 -0.8413  1.6725 -1.9285
17426TIP3   OH273692   4.321   1.165  16.831 -0.5607  0.1095 -0.4204
17426TIP3    H173693   4.306   1.207  16.916 -1.3533 -1.8934  0.4663
17426TIP3    H273694   4.404   1.202  16.801 -1.4264  2.5850  0.1098
17427TIP3   OH273695   5.677   6.121  16.266  0.0715  0.4170 -0.5643
17427TIP3    H173696   5.589   6.156  16.275  0.4416  1.3360 -0.3924
17427TIP3    H273697   5.706   6.152  16.180  0.4160  0.5597 -0.3988
17428TIP3   OH273698   3.591   3.363   1.742 -0.1704 -0.4891 -0.6184
17428TIP3    H173699   3.596   3.272   1.769  2.1913  0.0997  1.0647
17428TIP3    H273700   3.625   3.364   1.653  0.3305 -1.1919 -0.4379
17429TIP3   OH273701   5.574   3.353   4.918 -0.6408 -0.0238  0.1206
17429TIP3    H173702   5.609   3.269   4.949 -0.6084 -0.9792 -2.3151
17429TIP3    H273703   5.481   3.337   4.906 -1.0545  1.0202  1.8874
17430TIP3   OH273704   4.167   6.422   1.872  0.2127 -0.0988 -0.5041
17430TIP3    H173705   4.237   6.383   1.820  0.2789 -0.5887 -0.0394
17430TIP3    H273706   4.204   6.432   1.959 -0.5427 -1.0557 -0.0609
17431TIP3   OH273707   4.991   4.004  16.970 -0.7532  0.1083 -0.2604
17431TIP3    H173708   5.025   3.987  17.058  2.2039 -0.3996 -1.4459
17431TIP3    H273709   4.933   3.930  16.953  1.5027 -1.7723 -0.0973
17432TIP3   OH273710   2.504   3.676   5.818  0.0048  0.3710 -0.3361
17432TIP3    H173711   2.560   3.708   5.888  0.5099  1.0272 -1.0299
17432TIP3    H273712   2.420   3.659   5.860  0.3994  0.4336  0.4885
17433TIP3   OH273713   2.596   5.590  10.691 -0.5702  0.3208 -0.1791
17433TIP3    H173714   2.626   5.500  10.686  0.1544  0.5042  0.7091
17433TIP3    H273715   2.676   5.642  10.687 -0.9028  0.8840  0.3219
17434TIP3   OH273716   4.486   4.953  12.250  0.7260  0.0667  0.4566
17434TIP3    H173717   4.428   4.944  12.174 -0.2725 -0.6548  1.2879
17434TIP3    H273718   4.483   5.046  12.272 -0.0421  0.0493  0.4308
17435TIP3   OH273719   2.547   5.350   1.062  0.2651 -0.2358 -0.0365
17435TIP3    H173720   2.539   5.439   1.028  0.8947 -0.2486 -0.2323
17435TIP3    H273721   2.631   5.319   1.027  0.4753 -0.5821  0.7707
17436TIP3   OH273722   6.641   0.226   2.949  0.1398  0.0143  0.2094
17436TIP3    H173723   6.732   0.210   2.973  0.6523  1.6446 -0.5408
17436TIP3    H273724   6.637   0.206   2.855 -0.0923  0.5938  0.0913
17437TIP3   OH273725   0.635   1.634   2.506 -0.3903  0.0148 -0.3917
17437TIP3    H173726   0.648   1.651   2.413  0.5491 -1.1080 -0.4729
17437TIP3    H273727   0.641   1.539   2.514 -1.3418  0.0352  0.6866
17438TIP3   OH273728   0.310   3.298   3.355  0.0490 -0.1365  0.0935
17438TIP3    H173729   0.352   3.382   3.335 -0.9341  0.3911  0.2118
17438TIP3    H273730   0.381   3.234   3.352  0.8911  0.7781  0.5030
17439TIP3   OH273731   5.104   5.833  12.719 -0.3396  0.2903  0.5025
17439TIP3    H173732   5.072   5.784  12.795 -1.4538  1.0262  0.5255
17439TIP3    H273733   5.072   5.922  12.732  1.5899  1.0149  0.4038
17440TIP3   OH273734   5.846   3.709   4.564 -0.2728 -0.2531 -0.6082
17440TIP3    H173735   5.850   3.649   4.490 -1.5506  0.0357 -0.9290
17440TIP3    H273736   5.874   3.657   4.639  1.1032 -0.5231 -1.2949
17441TIP3   OH273737   3.956   6.456  10.725  0.0953 -0.5143 -0.4958
17441TIP3    H173738   3.986   6.419  10.641 -0.2949 -0.2107 -0.7675
17441TIP3    H273739   4.006   6.537  10.735 -0.4214 -0.1548 -0.8109
17442TIP3   OH273740   2.401   3.820  11.692 -0.0482 -0.8066 -0.9677
17442TIP3    H173741   2.408   3.843  11.600 -0.4853  0.6166 -0.6664
17442TIP3    H273742   2.441   3.894  11.738  0.0707 -1.4550 -0.0159
17443TIP3   OH273743   6.440   4.160  14.174  0.0123 -0.0553  0.0041
17443TIP3    H173744   6.444   4.183  14.266 -1.0311 -0.0264  0.0434
17443TIP3    H273745   6.412   4.069  14.172 -2.1913  0.6138 -0.3400
17444TIP3   OH273746   3.599   4.918  16.833  0.0854 -0.5438  0.3158
17444TIP3    H173747   3.555   5.001  16.816  0.7855 -0.1033  0.6609
17444TIP3    H273748   3.554   4.855  16.776 -0.0077  0.1999 -0.4366
17445TIP3   OH273749   3.100   6.326   3.460  0.3369 -0.3310  0.1953
17445TIP3    H173750   3.052   6.244   3.471 -2.0739  1.0230  0.0497
17445TIP3    H273751   3.094   6.345   3.367  0.0570  0.5098  0.3863
17446TIP3   OH273752   5.848   2.523  11.746 -0.7150  0.3886 -0.0976
17446TIP3    H173753   5.849   2.484  11.833  1.6664  0.3387 -0.1134
17446TIP3    H273754   5.843   2.617  11.762 -2.3361  0.2995  0.0221
17447TIP3   OH273755   2.636   6.754  15.308  0.0997 -0.3700  0.4709
17447TIP3    H173756   2.635   6.670  15.353  0.3744 -0.9050 -0.4961
17447TIP3    H273757   2.601   6.735  15.221 -0.3827  0.6349  0.4392
17448TIP3   OH273758   4.707   1.838   0.707  0.4041  0.3440 -0.6721
17448TIP3    H173759   4.691   1.883   0.624 -0.8225  1.6862  0.2565
17448TIP3    H273760   4.791   1.872   0.737 -0.4898  2.0212 -0.0014
17449TIP3   OH273761   5.104   0.842   3.120 -0.3118  0.1248  0.2651
17449TIP3    H173762   5.066   0.895   3.051  1.2843  0.3786 -0.4527
17449TIP3    H273763   5.131   0.761   3.076 -0.1721 -0.1120  0.7794
17450TIP3   OH273764   6.493   1.005  16.092 -0.0062 -0.2699 -0.2625
17450TIP3    H173765   6.557   1.014  16.023  0.2764  0.6639  0.1160
17450TIP3    H273766   6.412   0.978  16.047 -0.2786  1.9730 -1.1698
17451TIP3   OH273767   4.773   5.950  12.507  0.0803  0.0190 -0.3240
17451TIP3    H173768   4.821   6.019  12.554 -0.1886 -0.5095  0.7331
17451TIP3    H273769   4.682   5.961  12.533  0.4080 -2.4899  2.1012
17452TIP3   OH273770   3.870   1.275  14.802 -0.4968 -0.2795  0.3972
17452TIP3    H173771   3.875   1.210  14.872 -1.3136 -0.7128  0.0660
17452TIP3    H273772   3.914   1.352  14.837  1.1832 -1.2600  0.5029
17453TIP3   OH273773   5.711   6.493  13.562 -0.5844  0.7735 -0.4989
17453TIP3    H173774   5.734   6.410  13.604 -1.3824  0.4452 -0.7078
17453TIP3    H273775   5.789   6.548  13.574 -0.1939  0.1263 -0.0307
17454TIP3   OH273776   4.524   0.425  10.977 -0.5584 -0.4758  0.0436
17454TIP3    H173777   4.579   0.495  11.012  0.6544 -2.0009  1.3293
17454TIP3    H273778   4.434   0.454  10.990 -0.0779  0.3164  1.6807
17455TIP3   OH273779   5.507   1.293   2.023 -0.8112  0.1789  0.0470
17455TIP3    H173780   5.450   1.349   1.971 -2.0613 -2.2230 -1.2376
17455TIP3    H273781   5.447   1.241   2.077  0.2368 -1.1712 -0.0723
17456TIP3   OH273782   0.950   3.776  15.569  0.3204 -0.1671  0.0695
17456TIP3    H173783   0.912   3.705  15.517  1.8903 -0.4712 -0.6860
17456TIP3    H273784   0.937   3.749  15.660 -1.3154 -0.2279 -0.1579
17457TIP3   OH273785   0.894   0.206   3.931  0.3291  0.0310 -0.4645
17457TIP3    H173786   0.845   0.178   3.853 -0.1694  0.7544 -0.4181
17457TIP3    H273787   0.900   0.127   3.985 -0.7038 -0.0993 -0.5179
17458TIP3   OH273788   1.263   0.917   2.271  0.0428 -0.3078 -0.3960
17458TIP3    H173789   1.212   0.944   2.348  1.5011  0.2041  0.4167
17458TIP3    H273790   1.306   0.836   2.298  1.0331  0.1899 -0.4396
17459TIP3   OH273791   5.581   5.387  13.908  0.7578  0.0838  0.3958
17459TIP3    H173792   5.635   5.309  13.901  1.9493  0.8438  0.9743
17459TIP3    H273793   5.628   5.454  13.857 -0.4647  0.3168 -0.4505
17460TIP3   OH273794   6.213   2.542  15.166  0.0554 -0.9235 -0.0711
17460TIP3    H173795   6.136   2.557  15.112 -0.0645  0.9796  0.6086
17460TIP3    H273796   6.282   2.521  15.104 -0.2802  0.4162 -0.9113
17461TIP3   OH273797   4.393   0.844   0.477 -0.1826  0.4674 -0.6505
17461TIP3    H173798   4.314   0.819   0.430 -0.6750 -0.5847  0.6920
17461TIP3    H273799   4.464   0.833   0.414 -0.8880 -0.4258 -1.2870
17462TIP3   OH273800   2.074   1.314   3.220  0.9223  0.2449 -0.1362
17462TIP3    H173801   2.167   1.334   3.209  0.6406  1.3620 -0.4962
17462TIP3    H273802   2.029   1.370   3.157  0.0212 -0.5332 -0.2081
17463TIP3   OH273803   5.709   5.251   6.788  0.1609 -0.0315 -0.3255
17463TIP3    H173804   5.668   5.336   6.770 -1.2798 -0.4745  0.7266
17463TIP3    H273805   5.796   5.273   6.821 -0.1509  1.0494 -0.2035
17464TIP3   OH273806   6.338   6.701  13.444 -0.3977  0.0586 -0.1782
17464TIP3    H173807   6.432   6.701  13.426 -0.4476 -0.5687 -0.4763
17464TIP3    H273808   6.300   6.757  13.377 -0.2005  0.5656  0.1354
17465TIP3   OH273809   1.779   5.983  16.165  0.3961  0.7297 -0.5698
17465TIP3    H173810   1.827   6.042  16.223  0.0064  2.3190 -1.8344
17465TIP3    H273811   1.700   5.960  16.215  0.7044  0.9934  0.0538
17466TIP3   OH273812   3.367   3.110   3.888  0.2440 -0.3845 -0.6251
17466TIP3    H173813   3.398   3.127   3.799  0.5907  0.1901 -0.3980
17466TIP3    H273814   3.384   3.191   3.935 -1.0589 -0.2638 -0.3397
17467TIP3   OH273815   3.525   5.389   6.395  0.3385 -0.1264 -0.1500
17467TIP3    H173816   3.465   5.365   6.466  0.4509 -0.6449 -0.2257
17467TIP3    H273817   3.511   5.322   6.329  1.5224 -0.6654  0.1334
17468TIP3   OH273818   6.074   5.379   3.287 -0.5770  0.0635  0.6645
17468TIP3    H173819   6.107   5.412   3.370 -0.2732  0.2913  0.4545
17468TIP3    H273820   6.137   5.311   3.261 -1.4361 -1.0096  1.3152
17469TIP3   OH273821   2.659   1.668   1.667 -0.2939 -0.2636  0.7871
17469TIP3    H173822   2.596   1.704   1.604 -0.7112 -0.2073  1.2352
17469TIP3    H273823   2.739   1.718   1.651 -0.7137  0.5071  1.0373
17470TIP3   OH273824   2.261   2.839   2.239  0.2446  0.4243 -0.2016
17470TIP3    H173825   2.242   2.773   2.306  3.7590  0.3594  0.8548
17470TIP3    H273826   2.263   2.921   2.287  0.7372  0.6525 -0.6107
17471TIP3   OH273827   3.371   4.021   4.024  0.2608  0.1577 -0.1823
17471TIP3    H173828   3.367   4.110   4.060 -3.2562  0.4184 -1.0209
17471TIP3    H273829   3.367   3.964   4.100 -0.1764  0.7258  0.2313
17472TIP3   OH273830   3.547   3.189   0.916  0.2932  0.2164 -0.1772
17472TIP3    H173831   3.459   3.201   0.879 -0.8651  0.4375  2.5162
17472TIP3    H273832   3.532   3.137   0.995  2.2518  2.4572  1.7311
17473TIP3   OH273833   1.070   4.704   3.075 -0.0664 -0.3884  0.3310
17473TIP3    H173834   1.103   4.693   3.164 -1.1740 -0.8777  0.6877
17473TIP3    H273835   1.126   4.772   3.037  1.0316 -0.8707  1.0739
17474TIP3   OH273836   1.533   1.653   0.586  0.1724  0.1417  0.7689
17474TIP3    H173837   1.496   1.723   0.641 -0.7758  0.0883  0.2100
17474TIP3    H273838   1.620   1.684   0.563  0.2252  0.5890  1.5392
17475TIP3   OH273839   4.050   0.376   1.138  0.1903 -0.2348  0.3030
17475TIP3    H173840   3.988   0.413   1.201  1.2742 -0.3717  1.4682
17475TIP3    H273841   4.103   0.451   1.109  0.3857 -0.3518  0.3552
17476TIP3   OH273842   6.299   4.092  16.900 -0.4501  0.2827  0.0180
17476TIP3    H173843   6.383   4.062  16.867 -0.3120  2.8112 -2.1077
17476TIP3    H273844   6.234   4.045  16.849 -0.2528  1.8910 -1.7662
17477TIP3   OH273845   3.520   3.672   2.724  0.3775 -0.3474 -0.1598
17477TIP3    H173846   3.478   3.588   2.703  0.1985 -0.4301  0.5049
17477TIP3    H273847   3.449   3.735   2.727  0.3838 -0.3634  0.3334
17478TIP3   OH273848   4.096   0.912   6.563 -0.0892 -0.2280 -0.0567
17478TIP3    H173849   4.186   0.937   6.542 -0.0754 -0.5008 -0.3104
17478TIP3    H273850   4.081   0.832   6.514  0.1550 -1.2162  1.4533
17479TIP3   OH273851   1.581   4.581  11.767  0.4569  0.4270  0.9168
17479TIP3    H173852   1.542   4.541  11.844 -0.6581 -0.7117 -0.2083
17479TIP3    H273853   1.623   4.509  11.720  1.5775  1.1875  0.7054
17480TIP3   OH273854   4.380   0.121  14.984  0.7288  0.2537 -0.3432
17480TIP3    H173855   4.449   0.179  15.015 -0.2134  1.8402 -1.1044
17480TIP3    H273856   4.357   0.156  14.898 -1.9061  0.5540  0.4484
17481TIP3   OH273857   4.481   4.179   2.027  0.1629 -0.4946  0.4389
17481TIP3    H173858   4.407   4.148   1.975 -0.7124  1.6978  0.3248
17481TIP3    H273859   4.458   4.158   2.117  0.0539 -1.0925  0.2716
17482TIP3   OH273860   2.856   6.279   0.036 -0.0105 -0.4820 -0.4019
17482TIP3    H173861   2.835   6.193   0.073 -0.6810  0.3829  1.2997
17482TIP3    H273862   2.938   6.304   0.078  1.2839 -1.1457 -2.4306
17483TIP3   OH273863   5.656   1.765  15.824 -0.0351  0.1728 -0.2143
17483TIP3    H173864   5.727   1.729  15.877 -0.0177 -1.6623 -1.4339
17483TIP3    H273865   5.695   1.842  15.781  0.5447  0.4664  0.8295
17484TIP3   OH273866   3.804   1.404   3.671  0.2909 -0.3063 -0.0574
17484TIP3    H173867   3.750   1.380   3.745  2.5377 -0.0039  1.7408
17484TIP3    H273868   3.799   1.329   3.612 -1.7986 -0.3962  0.1925
17485TIP3   OH273869   3.174   0.740   5.643 -0.1908 -0.0103  0.2429
17485TIP3    H173870   3.249   0.750   5.701  0.1874  3.5565 -0.7894
17485TIP3    H273871   3.205   0.683   5.572 -0.2032 -3.1123  2.6067
17486TIP3   OH273872   1.995   4.483  16.488 -0.4014 -0.1805 -0.4030
17486TIP3    H173873   1.961   4.551  16.430 -0.5760 -0.8380 -1.0880
17486TIP3    H273874   2.051   4.529  16.550  0.8203  0.3970 -1.8887
17487TIP3   OH273875   5.794   1.204  14.337  0.1310 -0.1096  0.0531
17487TIP3    H173876   5.760   1.128  14.291 -1.2237 -0.5046  1.6614
17487TIP3    H273877   5.889   1.198  14.327 -0.1283 -0.2079 -2.6080
17488TIP3   OH273878   3.035   4.600   1.655  0.2192 -0.4488  0.2377
17488TIP3    H173879   3.071   4.557   1.577  0.4079  0.1484 -0.0090
17488TIP3    H273880   3.013   4.528   1.714  0.2508 -0.8967 -0.2925
17489TIP3   OH273881   0.684   1.883   3.645 -0.0352 -0.8075  0.1026
17489TIP3    H173882   0.765   1.838   3.668  0.4490 -0.0175 -0.0401
17489TIP3    H273883   0.641   1.900   3.729  1.0353  0.7784  0.3531
17490TIP3   OH273884   0.458   0.220   4.489 -0.4934  0.7576  0.4013
17490TIP3    H173885   0.486   0.177   4.409 -0.2106  0.8922  0.4265
17490TIP3    H273886   0.486   0.161   4.559 -1.6878  0.1275  0.3521
17491TIP3   OH273887   4.734   3.678  13.039 -0.7485  0.2007  0.2883
17491TIP3    H173888   4.826   3.704  13.041 -0.5800 -0.2885 -0.5331
17491TIP3    H273889   4.712   3.661  13.130 -0.0439  0.3996  0.5021
17492TIP3   OH273890   5.141   5.625   2.573 -0.4952  0.3664  0.5501
17492TIP3    H173891   5.132   5.634   2.668  2.3865 -0.5039  0.9553
17492TIP3    H273892   5.219   5.677   2.551  0.5160 -1.6668 -0.8938
17493TIP3   OH273893   3.466   2.912   2.929  0.7152  0.4343 -0.3271
17493TIP3    H173894   3.523   2.909   3.006  0.0801 -0.7639  0.1147
17493TIP3    H273895   3.445   2.820   2.911 -1.2316  0.8607 -0.3556
17494TIP3   OH273896   1.598   3.895  11.400 -0.0601  0.9937 -0.5839
17494TIP3    H173897   1.680   3.897  11.350  0.6491 -0.6188  0.4937
17494TIP3    H273898   1.530   3.882  11.333  0.8615 -0.9635 -1.1751
17495TIP3   OH273899   1.384   5.017  17.127 -0.2689  0.1619 -0.4922
17495TIP3    H173900   1.356   4.981  17.043 -0.2945 -1.8651  0.3623
17495TIP3    H273901   1.349   5.106  17.128 -1.5101 -0.2937 -2.0123
17496TIP3   OH273902   4.486   4.596   3.426  0.1892 -0.5987  0.2161
17496TIP3    H173903   4.463   4.678   3.469  0.3719 -0.2056 -0.4236
17496TIP3    H273904   4.432   4.530   3.469 -0.3522 -0.0598  0.3656
17497TIP3   OH273905   2.678   1.113   2.859  0.0840 -0.3626  0.2247
17497TIP3    H173906   2.705   1.114   2.768 -0.0449 -1.2542  0.1760
17497TIP3    H273907   2.708   1.029   2.893 -0.4572 -0.3214  0.8260
17498TIP3   OH273908   4.527   2.583  13.800  0.0657 -0.2280 -0.4566
17498TIP3    H173909   4.599   2.575  13.738 -1.2353  0.4470 -2.0669
17498TIP3    H273910   4.484   2.497  13.799 -0.2213 -0.0788 -0.8092
17499TIP3   OH273911   3.269   3.559   4.414  0.0131  0.2640  0.3236
17499TIP3    H173912   3.199   3.496   4.399  0.0600  0.5244 -1.0454
17499TIP3    H273913   3.305   3.535   4.499 -0.2777 -1.2567  0.0326
17500TIP3   OH273914   1.978   1.601   5.079  0.1032  0.8513 -0.0422
17500TIP3    H173915   1.955   1.678   5.131  0.2071  1.0192 -0.2399
17500TIP3    H273916   1.907   1.539   5.094 -0.9433  1.7040 -1.3569
17501TIP3   OH273917   4.227   5.026  15.442 -0.4065 -0.3844 -0.3473
17501TIP3    H173918   4.174   5.105  15.434 -0.3846 -0.1857  1.3454
17501TIP3    H273919   4.256   5.008  15.353  0.0254  1.8124 -0.6842
17502TIP3   OH273920   5.216   5.553   1.299  0.1148  0.4349  0.6039
17502TIP3    H173921   5.201   5.459   1.282  0.4541  0.6659 -1.0873
17502TIP3    H273922   5.280   5.554   1.369  0.3198 -0.6124  0.4489
17503TIP3   OH273923   2.927   0.857  13.999  0.4457  0.3355  0.2725
17503TIP3    H173924   2.851   0.897  13.957 -0.4761 -0.8366  0.7707
17503TIP3    H273925   2.893   0.776  14.037  2.1916 -0.7467 -0.4354
17504TIP3   OH273926   3.799   5.252   3.076 -0.4869 -0.5448  0.1099
17504TIP3    H173927   3.798   5.333   3.024  0.1246 -0.2829  0.4949
17504TIP3    H273928   3.871   5.201   3.040 -0.1350 -0.4139  0.6123
17505TIP3   OH273929   2.464   3.386   5.365  0.1799  0.2553  0.1290
17505TIP3    H173930   2.421   3.313   5.410 -0.2996 -0.9879 -2.2417
17505TIP3    H273931   2.542   3.346   5.324  1.0904  1.5296  0.6005
17506TIP3   OH273932   6.445   4.015  13.545 -0.0434 -0.2669  0.2544
17506TIP3    H173933   6.375   4.080  13.538  0.7445  0.3847 -2.1419
17506TIP3    H273934   6.408   3.935  13.508  0.2827 -0.0626 -0.5320
17507TIP3   OH273935   0.284   3.828  14.507  0.1091 -0.0133  0.2364
17507TIP3    H173936   0.374   3.852  14.527  1.0141 -1.9290 -1.3801
17507TIP3    H273937   0.278   3.735  14.529 -1.1547 -0.1860 -0.7581
17508TIP3   OH273938   5.628   3.113   4.096 -0.6908 -0.3077  0.0848
17508TIP3    H173939   5.561   3.086   4.034 -0.2417  1.0397 -0.9960
17508TIP3    H273940   5.650   3.033   4.144  0.3492 -1.8215 -2.7893
17509TIP3   OH273941   3.261   4.160  16.431 -0.4719  0.1272  0.0047
17509TIP3    H173942   3.244   4.175  16.524  1.0221 -1.7939  0.6220
17509TIP3    H273943   3.313   4.235  16.404 -0.3741  0.3849  0.8860
17510TIP3   OH273944   5.031   2.012   2.723 -0.4825 -0.3964  0.1885
17510TIP3    H173945   5.092   2.072   2.680  2.3036 -1.0687  3.0472
17510TIP3    H273946   4.978   1.977   2.651  2.6244  0.0462 -2.4368
17511TIP3   OH273947   3.556   6.503   2.755  0.2040 -0.3854 -0.3226
17511TIP3    H173948   3.594   6.470   2.674 -0.3309 -1.9361  0.0248
17511TIP3    H273949   3.464   6.519   2.734  0.2640  0.0264 -0.2582
17512TIP3   OH273950   4.252   5.842   5.947 -0.7062  0.3591  0.2447
17512TIP3    H173951   4.221   5.931   5.933  0.2435  0.6072 -0.2967
17512TIP3    H273952   4.292   5.843   6.035 -1.0712  0.3610  0.4100
17513TIP3   OH273953   4.784   3.236  13.006 -0.6717  0.4145  0.2618
17513TIP3    H173954   4.718   3.303  12.988 -0.0215  1.4794  1.7225
17513TIP3    H273955   4.753   3.194  13.087 -0.3252 -0.0915  0.1352
17514TIP3   OH273956   2.213   2.438  16.634 -0.1774 -0.0585 -0.0943
17514TIP3    H173957   2.308   2.430  16.632 -0.2003 -0.6976  0.8516
17514TIP3    H273958   2.196   2.532  16.633  0.4270  0.0381 -1.3563
17515TIP3   OH273959   2.495   0.589  13.788 -0.0766 -0.0068 -0.5184
17515TIP3    H173960   2.451   0.531  13.726  0.4449 -0.2254 -0.6932
17515TIP3    H273961   2.437   0.591  13.864 -1.5089  1.5475 -1.6256
17516TIP3   OH273962   6.387   5.494   3.342  0.3553 -0.0310 -0.3259
17516TIP3    H173963   6.325   5.496   3.415 -0.0391  0.5825 -0.6810
17516TIP3    H273964   6.333   5.493   3.263  0.7763 -0.9687 -0.6150
17517TIP3   OH273965   3.131   4.057  11.585  0.2909  0.2045 -0.6678
17517TIP3    H173966   3.045   4.097  11.602 -0.3883 -0.9835 -1.2613
17517TIP3    H273967   3.125   3.969  11.622  2.0928  0.9144  1.4091
17518TIP3   OH273968   2.592   0.408   2.179 -0.3360  0.0680  0.4072
17518TIP3    H173969   2.652   0.353   2.229  0.6356  0.1390 -0.6701
17518TIP3    H273970   2.542   0.347   2.125  0.2762  0.1809 -0.2935
17519TIP3   OH273971   2.915   0.112  15.811  0.2417  0.3764 -0.0165
17519TIP3    H173972   2.945   0.031  15.770  0.4159  1.1854 -1.5174
17519TIP3    H273973   2.820   0.107  15.807  0.2569  0.3904 -0.3868
17520TIP3   OH273974   2.429   5.821  15.407 -0.5370  0.2628  0.1235
17520TIP3    H173975   2.378   5.842  15.485 -0.7525  0.5335 -0.0928
17520TIP3    H273976   2.520   5.828  15.436 -0.6148  0.5594  0.2991
17521TIP3   OH273977   5.740   1.588   1.963 -0.2971 -0.2437  0.3523
17521TIP3    H173978   5.731   1.682   1.973  2.5778  0.1023  0.1000
17521TIP3    H273979   5.812   1.577   1.900  0.4033 -2.5970  1.4987
17522TIP3   OH273980   5.538   4.155   2.330 -0.2667 -0.2941 -0.3514
17522TIP3    H173981   5.568   4.241   2.302  0.8977 -1.1058 -1.6994
17522TIP3    H273982   5.606   4.124   2.390 -0.2391 -0.6231 -0.5487
17523TIP3   OH273983   1.760   4.160   3.967  0.0194 -0.1630  0.3006
17523TIP3    H173984   1.845   4.191   3.997 -0.4026  0.7249  0.6017
17523TIP3    H273985   1.717   4.237   3.930 -0.5735 -0.6462 -0.0411
17524TIP3   OH273986   4.398   1.900   1.587  0.3060  0.0647 -0.1750
17524TIP3    H173987   4.458   1.888   1.660  0.2878 -1.9800 -0.4797
17524TIP3    H273988   4.354   1.816   1.577 -1.5766  1.0997 -0.8793
17525TIP3   OH273989   2.842   4.800   3.188 -0.1330  0.1800  0.3938
17525TIP3    H173990   2.873   4.742   3.258  1.9856  0.0036 -0.6364
17525TIP3    H273991   2.808   4.877   3.234  1.3282  0.1085  1.6536
17526TIP3   OH273992   1.308   4.043  14.665 -0.3046 -0.3898 -0.1634
17526TIP3    H173993   1.253   4.005  14.734 -1.5836  0.3195 -0.7940
17526TIP3    H273994   1.265   4.020  14.583  2.1200 -2.6989 -0.8630
17527TIP3   OH273995   3.752   2.429  11.869 -0.0624 -0.2499  0.1093
17527TIP3    H173996   3.773   2.342  11.902 -1.7036 -0.0518  1.7309
17527TIP3    H273997   3.775   2.488  11.940  2.0756  0.7900 -1.3877
17528TIP3   OH273998   4.157   0.519   0.257 -0.1932  0.4162 -0.0048
17528TIP3    H173999   4.071   0.513   0.215 -0.6350 -0.4810  0.9860
17528TIP3    H274000   4.219   0.491   0.189 -0.9864 -1.9557  0.1819
17529TIP3   OH274001   1.904   1.965  16.974 -0.5227  0.2345  0.1388
17529TIP3    H174002   1.948   1.895  16.927 -0.7068 -0.0945  0.4592
17529TIP3    H274003   1.840   1.999  16.911  0.0696  0.6108 -0.2681
17530TIP3   OH274004   4.075   6.514  11.640 -0.2576  0.6381  0.5572
17530TIP3    H174005   4.142   6.455  11.605  0.1971  0.2308  2.0697
17530TIP3    H274006   3.996   6.461  11.643 -0.0573  0.3747  1.1070
17531TIP3   OH274007   1.006   6.708   0.067 -0.4094 -0.3304  0.2014
17531TIP3    H174008   0.963   6.750  -0.008 -0.8158 -2.0450 -0.5447
17531TIP3    H274009   0.991   6.769   0.140 -0.4820  1.0934 -0.9763
17532TIP3   OH274010   0.759   3.700   0.714  0.4445 -0.4919 -0.0138
17532TIP3    H174011   0.703   3.724   0.788  1.2952  1.2656  0.0770
17532TIP3    H274012   0.702   3.705   0.637  1.0213  3.7322 -0.2425
17533TIP3   OH274013   2.896   3.104   2.877  0.3671 -0.4401 -0.3561
17533TIP3    H174014   2.911   3.195   2.852  0.8533 -0.1478  0.9462
17533TIP3    H274015   2.842   3.109   2.956 -0.6694 -1.3211 -0.9905
17534TIP3   OH274016   6.276   0.752   1.661 -0.2007 -0.5006 -0.1948
17534TIP3    H174017   6.245   0.750   1.571 -1.8881 -1.1959  0.3620
17534TIP3    H274018   6.371   0.741   1.655 -0.3951 -1.4298 -1.8269
17535TIP3   OH274019   0.666   3.673  14.316  0.9616  0.7606 -0.0271
17535TIP3    H174020   0.602   3.640  14.253  0.3769  2.4222 -0.3368
17535TIP3    H274021   0.643   3.630  14.399  1.3910 -1.0109 -0.7994
17536TIP3   OH274022   0.084   0.052   2.351 -0.0810  0.3066 -0.0243
17536TIP3    H174023   0.103  -0.022   2.294  0.6743  0.9198 -0.5909
17536TIP3    H274024  -0.010   0.047   2.368 -0.2242 -0.1493 -0.9472
17537TIP3   OH274025   2.815   5.280  13.858 -0.1116  0.3251  0.0062
17537TIP3    H174026   2.891   5.305  13.911  1.3219  0.0460 -1.8826
17537TIP3    H274027   2.810   5.347  13.790  0.1833 -1.2717 -1.5966
17538TIP3   OH274028   2.884   0.891  16.953 -0.0681 -0.3528 -0.3266
17538TIP3    H174029   2.837   0.952  16.897 -1.7069 -1.5460 -0.2872
17538TIP3    H274030   2.822   0.868  17.021  0.9691 -1.0660  0.3935
17539TIP3   OH274031   4.232   0.533  15.277  0.1678 -0.2775 -0.5654
17539TIP3    H174032   4.309   0.588  15.266 -0.5984  1.6672  3.1520
17539TIP3    H274033   4.261   0.459  15.331 -0.6976  0.8695  1.5182
17540TIP3   OH274034   3.082   4.528   5.065 -0.4628 -0.2220  0.0664
17540TIP3    H174035   3.164   4.496   5.102 -0.6766 -0.9875 -0.1122
17540TIP3    H274036   3.060   4.604   5.118 -0.1501 -0.6004  0.7482
17541TIP3   OH274037   4.115   1.094   5.108 -0.2097  0.5443 -0.4617
17541TIP3    H174038   4.021   1.083   5.124  0.0631  1.3088  2.0096
17541TIP3    H274039   4.153   1.009   5.129 -0.1791  0.7205  0.2208
17542TIP3   OH274040   5.134   5.138   2.803  0.0800 -0.4554 -0.0625
17542TIP3    H174041   5.106   5.074   2.738 -0.8684 -0.3683  0.2557
17542TIP3    H274042   5.210   5.181   2.762  0.9356 -1.9834 -0.1384
17543TIP3   OH274043   6.537   6.473  15.133  0.4879  0.0336  0.5678
17543TIP3    H174044   6.612   6.454  15.078  1.2365 -0.3700  1.7013
17543TIP3    H274045   6.532   6.398  15.193 -0.3171  0.4493  1.0369
17544TIP3   OH274046   1.772   6.260   4.274 -0.0501 -0.0427  0.2986
17544TIP3    H174047   1.792   6.353   4.286 -0.9151  0.1175  0.4746
17544TIP3    H274048   1.699   6.259   4.212  1.5164 -0.6993 -1.5786
17545TIP3   OH274049   3.235   3.477   3.277  0.1486  0.0925 -0.4088
17545TIP3    H174050   3.324   3.510   3.288  0.1050  0.4577 -1.1482
17545TIP3    H274051   3.178   3.551   3.298 -0.0446 -0.7390  2.2082
17546TIP3   OH274052   1.210   1.313   3.943 -0.1063  0.3310 -0.1711
17546TIP3    H174053   1.133   1.365   3.965  0.6068  1.1127  0.5055
17546TIP3    H274054   1.175   1.227   3.919 -1.3331  1.2575 -1.8191
17547TIP3   OH274055   4.134   2.080  17.006 -0.3672 -0.7989 -0.4880
17547TIP3    H174056   4.226   2.051  17.006 -0.0229  0.2996 -1.4534
17547TIP3    H274057   4.138   2.174  17.021 -1.3490 -0.7567 -0.4388
17548TIP3   OH274058   2.918   1.275   4.453  0.0320  0.0543  0.7859
17548TIP3    H174059   2.860   1.334   4.405  0.7806 -1.4649 -2.0530
17548TIP3    H274060   2.913   1.192   4.406  1.7980 -1.1337  2.5978
17549TIP3   OH274061   1.616   1.060  12.252  0.2438 -0.3537  0.0168
17549TIP3    H174062   1.611   1.151  12.222  2.5553  0.1072  0.8689
17549TIP3    H274063   1.692   1.059  12.311 -1.5871 -2.1728  2.4518
17550TIP3   OH274064   1.616   2.189   0.084 -0.1709 -0.6746  0.1944
17550TIP3    H174065   1.633   2.263   0.141  2.1179 -1.9347  1.2273
17550TIP3    H274066   1.650   2.216  -0.002  2.9673 -1.4312  1.1595
17551TIP3   OH274067   1.322   0.769  14.178 -0.0929  0.7764 -0.0851
17551TIP3    H174068   1.282   0.750  14.263  0.5160  1.0168  0.2562
17551TIP3    H274069   1.380   0.695  14.161 -0.0044  0.8629 -0.1647
17552TIP3   OH274070   1.299   0.339  13.304 -0.0251 -0.0265 -0.0207
17552TIP3    H174071   1.277   0.432  13.300 -0.7780 -0.1630  0.7667
17552TIP3    H274072   1.295   0.317  13.397  0.0802 -0.8572 -0.2060
17553TIP3   OH274073   0.297   4.172  15.890 -0.0390 -0.1207 -0.0465
17553TIP3    H174074   0.391   4.165  15.871 -0.2719 -1.4269 -0.7597
17553TIP3    H274075   0.273   4.259  15.859  0.7392 -0.1313 -0.6994
17554TIP3   OH274076   2.237   6.550   5.735  0.3302  0.0192 -0.3873
17554TIP3    H174077   2.189   6.607   5.675  0.2409  1.0334  0.6330
17554TIP3    H274078   2.177   6.477   5.750  0.3392 -0.2344 -1.4958
17555TIP3   OH274079   3.054   4.701   1.331  0.0131  0.0234  0.6272
17555TIP3    H174080   3.090   4.741   1.411  0.4588 -0.4676  0.6730
17555TIP3    H274081   3.080   4.609   1.336  0.0511 -0.0054 -0.0912
17556TIP3   OH274082   2.908   4.933   3.572 -0.6913 -0.1058 -0.3895
17556TIP3    H174083   2.847   4.885   3.628  0.4328  0.0451  0.9850
17556TIP3    H274084   2.890   5.025   3.591  1.2910 -0.0847  1.4881
17557TIP3   OH274085   1.316   3.974   2.243 -0.5332  0.2060 -0.1955
17557TIP3    H174086   1.306   3.975   2.148  0.4651 -2.5586 -0.3699
17557TIP3    H274087   1.410   3.971   2.258 -0.7339 -1.4792  0.8313
17558TIP3   OH274088   3.765   6.349   2.885 -0.2392 -0.2763  0.1187
17558TIP3    H174089   3.698   6.374   2.822 -0.7386  1.3494  1.2438
17558TIP3    H274090   3.847   6.382   2.847 -0.5655  0.8870  0.3964
17559TIP3   OH274091   1.986   2.187  10.712  0.0052 -0.0585 -0.1794
17559TIP3    H174092   2.018   2.256  10.655 -1.2092 -0.3977 -1.2827
17559TIP3    H274093   1.993   2.224  10.800  1.7258  0.5226 -0.5365
17560TIP3   OH274094   0.987   4.495   6.744 -0.5239 -0.3705  0.7779
17560TIP3    H174095   0.946   4.519   6.661 -0.4164  0.9538  1.1009
17560TIP3    H274096   1.072   4.459   6.718 -0.9386 -1.0056  0.2554
17561TIP3   OH274097   3.107   5.652   2.602 -0.3031  0.7510 -0.7179
17561TIP3    H174098   3.117   5.557   2.602  0.5459  0.8139 -3.7502
17561TIP3    H274099   3.159   5.681   2.678  0.0308 -1.1250 -0.1943
17562TIP3   OH274100   6.055   6.437   5.592 -0.1110  0.3697 -0.2661
17562TIP3    H174101   6.001   6.373   5.639  0.1670 -0.9657 -1.7113
17562TIP3    H274102   6.048   6.517   5.643 -2.1190 -0.2597  0.4718
17563TIP3   OH274103   6.359   1.058  14.812 -0.3844 -0.0238 -0.1425
17563TIP3    H174104   6.278   1.008  14.810  0.1632 -0.9017 -0.2894
17563TIP3    H274105   6.346   1.128  14.749 -0.4951 -0.9868 -1.1940
17564TIP3   OH274106   5.725   0.379  14.124  1.1010 -0.5754  0.6486
17564TIP3    H174107   5.754   0.291  14.146 -0.6841 -1.3795 -0.1511
17564TIP3    H274108   5.736   0.385  14.029 -0.2916 -0.5153  0.4794
17565TIP3   OH274109   1.910   2.340   0.819  0.0682 -0.5822 -0.4378
17565TIP3    H174110   1.967   2.361   0.745  2.0392 -1.3839  0.7950
17565TIP3    H274111   1.962   2.360   0.897 -2.1579  0.7522  0.7662
17566TIP3   OH274112   6.663   1.802   3.102  0.2785  0.1826 -0.2506
17566TIP3    H174113   6.669   1.898   3.107  0.4769  0.2189 -1.1454
17566TIP3    H274114   6.578   1.785   3.062  0.3692 -0.0136 -0.3617
17567TIP3   OH274115   6.478   5.689   0.472  0.4513  0.3403  0.4078
17567TIP3    H174116   6.475   5.674   0.377  0.2874 -0.9998  0.6107
17567TIP3    H274117   6.532   5.617   0.505 -2.0980 -1.0639  1.6702
17568TIP3   OH274118   5.754   3.335  14.497  0.0510 -0.0233  0.3653
17568TIP3    H174119   5.779   3.415  14.452  0.7242  0.1318  1.0069
17568TIP3    H274120   5.660   3.325  14.479 -0.0179  0.8641  0.2244
17569TIP3   OH274121   2.623   5.104   2.772 -0.3780 -0.2220  0.1701
17569TIP3    H174122   2.702   5.118   2.825  0.7117 -1.3171 -1.1290
17569TIP3    H274123   2.551   5.107   2.836  0.7044  0.7700  1.3724
17570TIP3   OH274124   0.810   3.066  11.213 -0.2589 -0.4514  0.2529
17570TIP3    H174125   0.871   3.095  11.282 -0.1440 -1.0194  0.3939
17570TIP3    H274126   0.834   3.119  11.137  0.1578 -0.3966  0.4181
17571TIP3   OH274127   4.040   3.956  15.050  0.2112 -0.0370  0.4287
17571TIP3    H174128   4.059   4.043  15.086 -0.0460 -0.6507  2.0588
17571TIP3    H274129   3.971   3.972  14.985 -1.3018  0.7229  2.1769
17572TIP3   OH274130   1.413   0.672  17.099  0.1010  0.1275  0.2651
17572TIP3    H174131   1.360   0.676  17.179 -0.3237  0.7843 -0.0424
17572TIP3    H274132   1.359   0.620  17.038  0.6906 -0.8957  0.5945
17573TIP3   OH274133   2.894   0.446   1.140 -0.3286  0.1213  0.0537
17573TIP3    H174134   2.976   0.467   1.096 -0.6349  1.8904  0.2780
17573TIP3    H274135   2.847   0.389   1.079  0.6722 -0.1574 -0.4601
17574TIP3   OH274136   5.501   6.082   3.046 -0.3289 -0.3714  0.5799
17574TIP3    H174137   5.463   6.169   3.059 -1.4633 -0.9355  1.0248
17574TIP3    H274138   5.594   6.094   3.067 -0.1242  1.1338 -1.0721
17575TIP3   OH274139   6.705   4.986   4.490  0.1228 -0.0220  0.0203
17575TIP3    H174140   6.653   4.922   4.539 -0.2860  0.2484 -0.0526
17575TIP3    H274141   6.641   5.052   4.463  0.2819 -0.3625 -1.2038
17576TIP3   OH274142   5.656   6.659   3.659 -0.6597  0.1327  0.1971
17576TIP3    H174143   5.644   6.753   3.647 -2.0287 -0.0503  0.0586
17576TIP3    H274144   5.588   6.634   3.722 -0.6554 -0.8588 -0.1854
17577TIP3   OH274145   1.311   0.457  15.954 -0.3323 -0.2960  0.1063
17577TIP3    H174146   1.397   0.461  15.912 -0.3293 -0.5340  0.0892
17577TIP3    H274147   1.317   0.382  16.014  0.4405  1.4369  2.2533
17578TIP3   OH274148   4.435   4.844  12.535  0.0363 -0.4729  0.6339
17578TIP3    H174149   4.504   4.910  12.543 -0.3674  0.2253 -1.3550
17578TIP3    H274150   4.446   4.789  12.612  1.4499  0.9139  1.4635
17579TIP3   OH274151   5.807   6.569  11.397  0.0924  0.5521  0.3174
17579TIP3    H174152   5.769   6.485  11.424 -1.5984  1.2163  0.0721
17579TIP3    H274153   5.735   6.614  11.352  1.3129  1.6751 -0.5222
17580TIP3   OH274154   3.039   3.841  14.432  0.1877  0.1184  0.0249
17580TIP3    H174155   3.049   3.904  14.360 -1.5253 -2.1727 -2.2952
17580TIP3    H274156   2.945   3.825  14.436  0.7016 -3.2037 -0.2608
17581TIP3   OH274157   0.534   1.113   4.820 -0.3042  0.2822  0.2283
17581TIP3    H174158   0.608   1.106   4.881 -1.0560  0.1974  1.1344
17581TIP3    H274159   0.457   1.113   4.876 -1.0321 -0.5048 -0.7756
17582TIP3   OH274160   0.949   4.436   0.025 -0.1118 -0.0733  0.2565
17582TIP3    H174161   0.913   4.487  -0.048 -1.8415 -1.6059 -0.0089
17582TIP3    H274162   0.874   4.385   0.057  0.2515  1.6524  4.0785
17583TIP3   OH274163   3.601   0.023   4.465  0.5543 -0.1343 -0.2411
17583TIP3    H174164   3.672   0.031   4.401  1.3273 -0.0467  0.6181
17583TIP3    H274165   3.539  -0.037   4.423  0.7754  0.3668 -1.3182
17584TIP3   OH274166   0.020   4.321   1.807  0.1045  0.1976 -0.0179
17584TIP3    H174167   0.077   4.272   1.866 -1.3735 -1.0823  0.3879
17584TIP3    H274168   0.070   4.330   1.726  0.3237 -2.2275 -0.1748
17585TIP3   OH274169   2.753   3.887  13.981  0.0472 -0.1296 -0.9704
17585TIP3    H174170   2.679   3.916  13.928  0.4709  2.9108 -0.0182
17585TIP3    H274171   2.714   3.832  14.049 -1.2509  0.8517 -0.8988
17586TIP3   OH274172   3.618   6.398  12.916 -0.1366 -0.3344 -0.1541
17586TIP3    H174173   3.700   6.439  12.887 -0.5303  0.2499 -0.4408
17586TIP3    H274174   3.549   6.452  12.879 -0.6614 -0.5988  0.4210
17587TIP3   OH274175   3.848   4.706  12.511 -0.5603  0.4085 -0.0508
17587TIP3    H174176   3.784   4.716  12.441  1.1582 -0.7637 -1.8515
17587TIP3    H274177   3.821   4.627  12.557 -0.6180  0.1104 -0.5901
17588TIP3   OH274178   5.993   0.410   0.843  0.0105  0.0961  0.4855
17588TIP3    H174179   5.937   0.465   0.899 -0.2437  2.8704 -2.3475
17588TIP3    H274180   5.935   0.380   0.774  0.8558 -1.3452  0.3903
17589TIP3   OH274181   5.566   4.717   4.400 -0.5562 -0.2054 -0.2567
17589TIP3    H174182   5.489   4.772   4.386 -0.1169  0.4932  0.0120
17589TIP3    H274183   5.534   4.644   4.452 -1.1579 -0.2192 -0.6452
17590TIP3   OH274184   2.965   5.714   2.302 -0.4936  0.0247  0.0016
17590TIP3    H174185   2.918   5.704   2.384  0.8371 -2.9651  0.4454
17590TIP3    H274186   3.011   5.797   2.311 -0.1720 -0.3834  2.3717
17591TIP3   OH274187   1.785   1.377   2.871 -0.3078 -1.1011  0.3218
17591TIP3    H174188   1.707   1.420   2.835  0.1507  0.9804  1.7555
17591TIP3    H274189   1.750   1.304   2.923 -1.2612 -0.7529  0.1809
17592TIP3   OH274190   0.701   4.553   3.995  0.3008 -0.5167  0.4998
17592TIP3    H174191   0.741   4.526   3.913 -0.6700  0.7765 -0.4389
17592TIP3    H274192   0.617   4.507   3.998  0.6983 -1.2022  1.1745
17593TIP3   OH274193   6.278   6.067   1.025  0.2963 -0.0513 -0.3051
17593TIP3    H174194   6.276   6.147   1.077  3.1545 -1.6022  2.3486
17593TIP3    H274195   6.324   6.092   0.945  0.0033  1.2316 -0.0954
17594TIP3   OH274196   4.803   5.016  11.326  0.6480 -0.0957  0.3338
17594TIP3    H174197   4.866   5.060  11.270 -1.5112  1.3279 -1.0684
17594TIP3    H274198   4.747   4.967  11.266  0.5746 -1.5759  1.5702
17595TIP3   OH274199   1.313   1.490   2.607 -0.1390  0.5291 -0.1856
17595TIP3    H174200   1.238   1.471   2.663 -0.1835 -0.1834 -0.4863
17595TIP3    H274201   1.327   1.584   2.617 -1.3662  0.7482 -0.5090
17596TIP3   OH274202   1.532   6.039  12.931  0.2335 -0.3131 -0.4016
17596TIP3    H174203   1.480   6.097  12.988  0.2031  1.4148 -2.1395
17596TIP3    H274204   1.620   6.042  12.969 -0.0866 -0.2654  0.3568
17597TIP3   OH274205   4.279   1.071  13.940 -0.5313 -0.2866  0.1493
17597TIP3    H174206   4.299   1.152  13.893  1.2350  0.3630  1.9371
17597TIP3    H274207   4.361   1.021  13.939 -0.6387 -0.5594  1.8874
17598TIP3   OH274208   5.630   0.754   2.088 -0.6559  0.7644 -0.0370
17598TIP3    H174209   5.567   0.826   2.090 -0.1003  1.2980 -0.9409
17598TIP3    H274210   5.697   0.783   2.026 -2.0124 -1.8233 -2.9039
17599TIP3   OH274211   5.352   6.228   4.554  0.2959  0.4421 -0.0926
17599TIP3    H174212   5.334   6.263   4.466  0.5554 -0.1977 -0.4059
17599TIP3    H274213   5.265   6.221   4.594  0.2512  1.5018 -0.0029
17600TIP3   OH274214   1.965   0.218  12.708  0.0391  0.9915  0.3228
17600TIP3    H174215   2.031   0.151  12.692 -0.0476  0.7108  1.1093
17600TIP3    H274216   1.888   0.170  12.737 -0.6333  1.2918 -0.9386
17601TIP3   OH274217   1.575   6.212  16.979  0.1725  0.3801  0.4257
17601TIP3    H174218   1.659   6.182  16.944  0.1445  0.3528  0.3814
17601TIP3    H274219   1.520   6.223  16.901 -0.0689 -0.2309  0.5125
17602TIP3   OH274220   6.505   2.878  12.947 -0.5341  0.5725 -0.1799
17602TIP3    H174221   6.588   2.842  12.917  0.1865  1.4392  0.7303
17602TIP3    H274222   6.464   2.913  12.868 -0.7494 -1.2366 -0.8851
17603TIP3   OH274223   3.456   5.223   6.188 -0.0129  0.3238 -0.0200
17603TIP3    H174224   3.408   5.157   6.238  1.0523  0.0674  0.6721
17603TIP3    H274225   3.504   5.173   6.122  1.3642  0.3035  0.9592
17604TIP3   OH274226   6.228   0.421  11.263  0.4518  0.2295  0.4123
17604TIP3    H174227   6.146   0.399  11.308  1.2502 -0.9364  1.3167
17604TIP3    H274228   6.206   0.414  11.170 -0.6336  0.5082  0.6327
17605TIP3   OH274229   1.377   0.178  12.741 -0.8193  0.3627  0.2865
17605TIP3    H174230   1.402   0.136  12.659 -0.6955 -0.1130  0.5667
17605TIP3    H274231   1.455   0.224  12.770 -0.3705 -0.7988  0.9600
17606TIP3   OH274232   5.104   0.649  10.764  0.2005 -0.2594 -0.0144
17606TIP3    H174233   5.141   0.579  10.708 -0.7185 -0.7507 -0.0192
17606TIP3    H274234   5.084   0.720  10.703  1.9320  0.3583  0.1059
17607TIP3   OH274235   4.013   5.218   2.646 -0.6137 -0.6887 -0.3609
17607TIP3    H174236   3.922   5.248   2.647 -0.2448  0.4319  0.2167
17607TIP3    H274237   4.058   5.279   2.588  0.0959 -0.2451  0.6310
17608TIP3   OH274238   6.192   0.480   4.898  0.3640 -0.0265 -0.3286
17608TIP3    H174239   6.139   0.451   4.824  2.0993  1.3383 -2.1760
17608TIP3    H274240   6.173   0.574   4.905 -1.2156 -0.4815  2.2062
17609TIP3   OH274241   5.662   6.046  12.350  0.4271 -0.3930  0.5262
17609TIP3    H174242   5.735   5.999  12.389  0.6018 -0.4824  0.1037
17609TIP3    H274243   5.618   6.089  12.423  1.2590  0.1609  0.6996
17610TIP3   OH274244   1.607   4.593  15.733 -0.5078 -0.0710 -0.5220
17610TIP3    H174245   1.612   4.671  15.789  1.4760 -0.9374  0.5282
17610TIP3    H274246   1.679   4.538  15.761 -1.3176 -1.8936 -1.9110
17611TIP3   OH274247   5.370   1.261  11.253  0.2151  0.0542 -0.0272
17611TIP3    H174248   5.307   1.222  11.193  1.1740 -2.0533  0.2825
17611TIP3    H274249   5.336   1.243  11.340  0.9835 -0.6820  0.1314
17612TIP3   OH274250   4.908   5.464  13.049 -0.4063  0.3778 -0.1143
17612TIP3    H174251   4.966   5.509  12.989 -1.5661  1.7032 -0.2574
17612TIP3    H274252   4.966   5.411  13.104  0.7882  0.4701 -1.2755
17613TIP3   OH274253   2.216   6.446  14.488 -0.5756  0.6773 -0.3780
17613TIP3    H174254   2.142   6.466  14.546 -1.1598 -2.4173  0.0085
17613TIP3    H274255   2.291   6.489  14.530 -1.8957  2.7460 -0.0807
17614TIP3   OH274256   2.190   6.222  16.020  0.3646 -0.5121  0.2670
17614TIP3    H174257   2.149   6.238  16.105 -0.1326  2.8266 -0.5328
17614TIP3    H274258   2.129   6.165  15.974 -1.7083  1.4937  0.4377
17615TIP3   OH274259   3.784   4.202  15.283 -0.0357  0.5069 -0.0851
17615TIP3    H174260   3.863   4.211  15.230  0.0677 -0.9093 -0.2043
17615TIP3    H274261   3.713   4.199  15.219 -0.3351  3.1452  0.0870
17616TIP3   OH274262   4.247   0.358   2.969  0.9988  0.0860 -0.4615
17616TIP3    H174263   4.327   0.338   2.921  2.2522 -0.0529  1.6417
17616TIP3    H274264   4.236   0.452   2.959  1.3125  0.0801 -0.8827
17617TIP3   OH274265   6.424   4.125   2.040  0.4434  0.3761  0.0340
17617TIP3    H174266   6.383   4.155   1.959  0.5864  0.2996 -0.0675
17617TIP3    H274267   6.501   4.181   2.051 -0.0631  0.9666  0.5823
17618TIP3   OH274268   0.899   4.758   5.451  0.6282  0.0467 -0.2982
17618TIP3    H174269   0.929   4.845   5.476 -0.5979  0.3153  0.2728
17618TIP3    H274270   0.958   4.732   5.379  0.9797  1.3509 -0.4955
17619TIP3   OH274271   2.978   2.312  12.161 -0.2129 -0.2252 -0.6724
17619TIP3    H174272   3.009   2.347  12.077 -1.4563  2.5619 -0.0126
17619TIP3    H274273   2.883   2.314  12.154 -0.4404  3.0067  1.8776
17620TIP3   OH274274   6.291   0.337  15.463 -0.2872  0.5579  0.2615
17620TIP3    H174275   6.338   0.279  15.404  1.9386  1.1802  1.3251
17620TIP3    H274276   6.287   0.290  15.546  0.3297  1.3357  0.7505
17621TIP3   OH274277   5.144   6.237  10.796  0.1250  0.2188  0.4218
17621TIP3    H174278   5.220   6.180  10.813 -1.9536 -2.7678  0.1054
17621TIP3    H274279   5.092   6.232  10.877 -0.8222  0.4800 -0.1634
17622TIP3   OH274280   3.924   2.700  15.894  0.5957  0.0417 -0.2748
17622TIP3    H174281   3.884   2.690  15.981 -1.0791  0.0231 -1.0282
17622TIP3    H274282   3.904   2.618  15.849 -1.1510  1.2019 -1.6955
17623TIP3   OH274283   6.232   5.257   2.281  0.1890 -0.4575 -0.1846
17623TIP3    H174284   6.250   5.170   2.246  0.5044 -0.2374 -0.5548
17623TIP3    H274285   6.219   5.313   2.205  2.1987  0.3148  0.0093
17624TIP3   OH274286   0.460   5.835  16.556  0.2507 -0.1020  0.2204
17624TIP3    H174287   0.498   5.753  16.585  0.3605  0.2978  1.2060
17624TIP3    H274288   0.525   5.902  16.577 -0.0006  0.2947 -0.2226
17625TIP3   OH274289   3.047   5.043   1.204 -0.1943 -0.1898 -0.0023
17625TIP3    H174290   3.060   5.004   1.290  0.8515 -1.6995 -0.8000
17625TIP3    H274291   3.128   5.092   1.188 -1.0838  1.4848  0.5664
17626TIP3   OH274292   0.438   6.723   2.172 -0.2701  0.2480 -0.5900
17626TIP3    H174293   0.473   6.714   2.260 -0.4410  1.1068 -0.4284
17626TIP3    H274294   0.368   6.658   2.167  1.3798 -1.5581 -0.9485
17627TIP3   OH274295   3.868   5.672  12.806  0.2796 -0.9423  0.1042
17627TIP3    H174296   3.906   5.698  12.889  0.7341  0.6359 -0.5847
17627TIP3    H274297   3.785   5.720  12.801 -0.0871 -1.5729 -0.0512
17628TIP3   OH274298   4.777   3.080   2.858 -0.4601  0.3028  0.0179
17628TIP3    H174299   4.754   3.134   2.782 -2.2938 -0.3323  0.1035
17628TIP3    H274300   4.780   3.141   2.931 -0.1913  0.6676 -0.2920
17629TIP3   OH274301   1.754   2.771   3.516 -0.0376  0.4587 -0.2005
17629TIP3    H174302   1.687   2.704   3.519 -1.9176  2.3103  0.0107
17629TIP3    H274303   1.826   2.736   3.569 -0.7378 -1.6062 -0.5899
17630TIP3   OH274304   3.647   4.646   5.344  0.5655  0.0940  0.3291
17630TIP3    H174305   3.652   4.740   5.359  2.5920  0.1617 -0.5286
17630TIP3    H274306   3.737   4.615   5.359  0.5669 -1.2285 -2.0944
17631TIP3   OH274307   1.819   5.106  14.456 -0.3183  0.0783 -0.1515
17631TIP3    H174308   1.863   5.043  14.399  0.5011  0.8826 -0.4187
17631TIP3    H274309   1.732   5.068  14.470 -0.5584 -0.1091 -1.9972
17632TIP3   OH274310   1.038   4.183   6.211  0.0448  0.4947 -0.1548
17632TIP3    H174311   0.973   4.139   6.156  0.0676 -1.1982  1.1375
17632TIP3    H274312   0.989   4.251   6.257 -0.5926 -0.0760  0.0078
17633TIP3   OH274313   0.199   3.786  16.151 -0.1126 -0.5487  0.0255
17633TIP3    H174314   0.170   3.817  16.237  1.2612 -1.3279  0.8028
17633TIP3    H274315   0.161   3.848  16.089 -1.6506 -0.3417  1.1481
17634TIP3   OH274316   4.971   4.563   2.995  0.2861  0.1329 -0.1917
17634TIP3    H174317   4.910   4.584   2.923 -0.3569 -0.0179  0.3026
17634TIP3    H274318   5.042   4.627   2.986 -0.3890  0.8876 -0.2353
17635TIP3   OH274319   3.328   1.596  14.580  0.6934  0.1457  0.2041
17635TIP3    H174320   3.288   1.682  14.572 -0.6781 -0.4152  0.7336
17635TIP3    H274321   3.253   1.536  14.584  1.6323 -1.1262 -0.7957
17636TIP3   OH274322   5.548   1.556   2.240 -0.1699 -0.4033 -0.1012
17636TIP3    H174323   5.543   1.629   2.179  0.6317  0.4855  0.8882
17636TIP3    H274324   5.582   1.594   2.321  1.2627 -2.0666  0.1084
17637TIP3   OH274325   5.987   0.267  14.539  0.3050  0.4435  0.5203
17637TIP3    H174326   6.063   0.289  14.485  0.2264  1.1600  0.7029
17637TIP3    H274327   6.011   0.297  14.627 -0.1685  0.6293  0.5864
17638TIP3   OH274328   1.808   5.340   5.438  0.3953  0.2292  0.0394
17638TIP3    H174329   1.819   5.301   5.351 -1.2829  0.0576 -0.1285
17638TIP3    H274330   1.877   5.301   5.491 -0.0457 -1.5206 -0.6250
17639TIP3   OH274331   4.366   6.199  14.159  0.4516  0.4249  0.2315
17639TIP3    H174332   4.386   6.109  14.183  0.2954  0.2739 -0.1925
17639TIP3    H274333   4.366   6.199  14.063 -0.8630  0.5699  0.2203
17640TIP3   OH274334   0.238   5.456   4.029 -0.1927 -0.5539  0.7615
17640TIP3    H174335   0.310   5.482   3.972  0.5548  1.2700  2.4609
17640TIP3    H274336   0.159   5.486   3.983  0.3506  0.2366  0.3295
17641TIP3   OH274337   0.766   6.300  16.010 -0.5275  0.0193 -0.8131
17641TIP3    H174338   0.701   6.239  16.045  1.6894 -2.1087 -0.3171
17641TIP3    H274339   0.778   6.273  15.919  0.4711 -0.2832 -0.5930
17642TIP3   OH274340   5.402   5.965  15.322 -0.0464  0.1614  0.3066
17642TIP3    H174341   5.327   6.021  15.302 -0.3587 -0.3479  0.0306
17642TIP3    H274342   5.472   5.999  15.267 -0.0589  0.6781  0.6081
17643TIP3   OH274343   6.612   0.826   5.356 -0.0640  0.3586  0.3400
17643TIP3    H174344   6.550   0.780   5.299 -0.1561  0.6073  0.2358
17643TIP3    H274345   6.568   0.909   5.376  1.1301  1.4655 -1.4655
17644TIP3   OH274346   5.016   6.535   2.451  0.5188 -0.8445 -0.4924
17644TIP3    H174347   5.013   6.453   2.401  0.8325 -0.2179 -1.5473
17644TIP3    H274348   5.107   6.564   2.445  0.7449 -1.1536  1.1105
17645TIP3   OH274349   5.931   3.181   1.041 -0.1328  0.0628  0.0550
17645TIP3    H174350   5.927   3.087   1.020  0.1617 -0.1147  0.7871
17645TIP3    H274351   6.013   3.191   1.090 -0.0550  0.7437 -0.2079
17646TIP3   OH274352   0.471   1.991  16.087  0.2295  0.6475 -0.1443
17646TIP3    H174353   0.469   2.030  16.174  0.2164  0.7067 -0.1716
17646TIP3    H274354   0.382   2.003  16.053  0.3685  1.0719 -0.3637
17647TIP3   OH274355   1.108   5.463   1.217 -0.6876 -0.2860 -0.1392
17647TIP3    H174356   1.094   5.547   1.259  0.3404 -0.2374  0.1276
17647TIP3    H274357   1.027   5.414   1.234 -1.6420  0.9401 -1.0497
17648TIP3   OH274358   1.926   5.226   4.954 -0.1298 -0.1159  0.0553
17648TIP3    H174359   1.981   5.304   4.950 -1.0007  0.5045 -0.1880
17648TIP3    H274360   1.984   5.153   4.933  0.2224  0.7103 -1.8823
17649TIP3   OH274361   4.147   4.688   0.407 -0.7370  0.2985 -0.3812
17649TIP3    H174362   4.086   4.643   0.466  1.6029 -1.4873  0.7598
17649TIP3    H274363   4.172   4.767   0.454  0.4918 -0.7200  0.7440
17650TIP3   OH274364   2.158   0.816  13.885  0.0745  0.3459 -0.3241
17650TIP3    H174365   2.152   0.885  13.819  1.3808  1.3937  0.6148
17650TIP3    H274366   2.232   0.843  13.941  0.4589 -1.6969  0.1848
17651TIP3   OH274367   0.552   6.668  11.930 -0.5575  0.0970 -0.5754
17651TIP3    H174368   0.542   6.702  12.019  1.7435  0.2521 -0.3490
17651TIP3    H274369   0.574   6.745  11.878  1.2115 -0.4771 -0.6960
17652TIP3   OH274370   1.942   0.445   4.381 -0.5674 -0.1117  0.1918
17652TIP3    H174371   1.996   0.368   4.395  1.1020  0.8520 -0.7795
17652TIP3    H274372   1.942   0.491   4.465 -2.2560 -1.5500  1.0224
17653TIP3   OH274373   2.672   3.005  15.386 -0.3059  0.1437  0.7313
17653TIP3    H174374   2.597   2.960  15.346  0.3362 -1.4452  1.2665
17653TIP3    H274375   2.725   3.033  15.311  0.5838 -2.2875  0.4014
17654TIP3   OH274376   2.811   4.926   1.116 -0.1303 -0.4980  0.5108
17654TIP3    H174377   2.890   4.976   1.138 -0.2479 -0.7030  1.4049
17654TIP3    H274378   2.774   4.972   1.040  0.8764 -0.4423  0.0474
17655TIP3   OH274379   4.708   1.802   4.208 -0.0033 -0.0428  0.1089
17655TIP3    H174380   4.721   1.805   4.303  0.5800  0.0666  0.0311
17655TIP3    H274381   4.791   1.833   4.172 -0.0147 -0.6451 -0.4501
17656TIP3   OH274382   5.696   1.541  11.312  0.6414 -0.1379  0.0787
17656TIP3    H174383   5.730   1.503  11.393 -0.0066 -0.4428  0.2105
17656TIP3    H274384   5.692   1.468  11.250  1.2922  0.1267 -0.2887
17657TIP3   OH274385   5.997   4.523  12.059 -0.4097  0.8771  0.1103
17657TIP3    H174386   5.954   4.450  12.103  1.7510 -0.3143  0.3137
17657TIP3    H274387   6.034   4.485  11.979  2.1433  1.3222  1.0168
17658TIP3   OH274388   4.712   4.679   5.787 -0.1489  0.1305  0.2190
17658TIP3    H174389   4.721   4.597   5.836 -0.1773  0.1804  0.3098
17658TIP3    H274390   4.618   4.700   5.793 -0.4478 -0.7517 -1.3105
17659TIP3   OH274391   6.231   3.344  11.384 -0.3049  0.0269 -0.1809
17659TIP3    H174392   6.288   3.348  11.307  0.0834 -2.2306 -0.0660
17659TIP3    H274393   6.256   3.419  11.438  1.4561 -0.0492 -0.8825
17660TIP3   OH274394   6.679   4.561  16.629  0.0640 -0.1940  0.3230
17660TIP3    H174395   6.627   4.600  16.559  0.3951  0.7861  0.6113
17660TIP3    H274396   6.752   4.518  16.584 -0.2809 -0.4370 -0.0013
17661TIP3   OH274397   1.835   6.432  11.298 -0.1379  0.1698 -0.3758
17661TIP3    H174398   1.839   6.370  11.226 -2.2561  1.7905 -1.9819
17661TIP3    H274399   1.742   6.458  11.301 -0.0478  0.2721  2.8165
17662TIP3   OH274400   1.301   6.463   3.187 -0.4018  0.2149 -0.1430
17662TIP3    H174401   1.359   6.387   3.179 -1.7368 -0.5565 -3.0228
17662TIP3    H274402   1.245   6.443   3.262  0.3501 -0.8696  0.1435
17663TIP3   OH274403   1.031   2.442  15.125  0.6005  0.7415 -0.0164
17663TIP3    H174404   0.958   2.393  15.164  2.2904 -0.5565  1.6204
17663TIP3    H274405   1.062   2.386  15.054  0.5438  0.9011 -0.1664
17664TIP3   OH274406   0.329   0.563   3.761 -0.3575  0.1621 -0.2412
17664TIP3    H174407   0.312   0.652   3.730 -1.6668 -0.1481 -0.4338
17664TIP3    H274408   0.424   0.561   3.777 -0.4454  1.8334  0.5685
17665TIP3   OH274409   0.327   5.915  14.134  0.2878  0.1114 -0.3264
17665TIP3    H174410   0.310   5.992  14.187  0.4540 -0.6656  0.8753
17665TIP3    H274411   0.244   5.866  14.134 -0.1914  0.8750 -2.0976
17666TIP3   OH274412   4.658   5.061   0.049  0.1811 -0.7948 -0.0633
17666TIP3    H174413   4.613   5.121   0.109  0.2786 -1.3185  0.5451
17666TIP3    H274414   4.660   5.107  -0.035 -0.9848 -0.5381  0.0505
17667TIP3   OH274415   0.177   5.896  16.084  0.5346 -0.5020  0.3128
17667TIP3    H174416   0.223   5.951  16.021  0.3881 -1.7901 -0.9234
17667TIP3    H274417   0.240   5.882  16.155  1.3985 -0.7341 -0.5045
17668TIP3   OH274418   1.263   1.892   5.319 -0.0577 -0.0338  0.3743
17668TIP3    H174419   1.334   1.942   5.279 -0.7904 -0.1504 -1.0798
17668TIP3    H274420   1.190   1.901   5.258 -1.1763 -0.2485  1.6594
17669TIP3   OH274421   4.711   0.218  11.171 -0.2830 -0.4363 -0.3056
17669TIP3    H174422   4.631   0.271  11.179 -0.5375 -0.5783 -1.7727
17669TIP3    H274423   4.687   0.147  11.111  0.9314 -0.5118 -0.7184
17670TIP3   OH274424   2.327   2.507  13.283 -0.2273 -0.1211  0.4043
17670TIP3    H174425   2.285   2.482  13.201 -0.0225  0.4675  0.1244
17670TIP3    H274426   2.342   2.601  13.276 -1.2352  0.1451  1.5743
17671TIP3   OH274427   6.620   2.117  12.890  0.4710 -0.6052 -0.8322
17671TIP3    H174428   6.543   2.153  12.934  1.0839 -0.5470  0.2139
17671TIP3    H274429   6.634   2.175  12.815 -0.7965 -0.9158 -1.3253
17672TIP3   OH274430   5.050   1.860   5.985  0.4284 -0.1076  0.1695
17672TIP3    H174431   5.028   1.943   6.028  2.4818  0.0814  0.9195
17672TIP3    H274432   5.055   1.882   5.892  2.1417  0.9113  0.4779
17673TIP3   OH274433   5.302   4.198   4.437  0.3296  0.1559  0.0997
17673TIP3    H174434   5.353   4.118   4.423 -0.0051  0.5020 -3.6358
17673TIP3    H274435   5.212   4.172   4.420  0.2703  1.3697 -1.6121
17674TIP3   OH274436   0.915   4.637   0.609 -0.3984  0.3759 -0.4035
17674TIP3    H174437   0.913   4.641   0.514  1.2998 -1.6252 -0.5666
17674TIP3    H274438   1.008   4.642   0.631 -0.4116 -3.0883  0.8741
17675TIP3   OH274439   0.660   0.446  16.266  0.4556  0.1850 -0.0238
17675TIP3    H174440   0.565   0.459  16.266  0.3253 -0.6391  1.7737
17675TIP3    H274441   0.681   0.420  16.355  2.5248  1.3110 -0.1479
17676TIP3   OH274442   5.205   0.273  12.211 -0.1669  0.4496 -0.4720
17676TIP3    H174443   5.238   0.341  12.151 -1.3573  1.9182  0.5175
17676TIP3    H274444   5.162   0.210  12.153  0.2331  0.9384 -1.3258
17677TIP3   OH274445   1.776   0.160   2.955 -0.1570  0.2051  0.0112
17677TIP3    H174446   1.833   0.092   2.918 -0.0575  0.0126  0.5167
17677TIP3    H274447   1.708   0.173   2.889  1.0390  1.1711 -1.0613
17678TIP3   OH274448   2.808   6.516   3.552 -0.1041  0.2297  0.6968
17678TIP3    H174449   2.827   6.441   3.495  0.1990 -0.1246  1.2631
17678TIP3    H274450   2.846   6.591   3.506  0.1886 -0.0592  0.4617
17679TIP3   OH274451   5.409   4.853   2.374  0.5414  0.0067 -0.5977
17679TIP3    H174452   5.337   4.867   2.313  0.2072  0.5679 -0.0792
17679TIP3    H274453   5.404   4.761   2.398  0.7543 -0.2476 -1.5231
17680TIP3   OH274454   5.219   1.400  13.210  0.2659 -0.0705 -0.3826
17680TIP3    H174455   5.177   1.315  13.217 -0.5770  0.2797 -1.0200
17680TIP3    H274456   5.292   1.397  13.272  0.6453 -1.4808 -0.8820
17681TIP3   OH274457   0.813   0.504  12.588 -0.6461  0.0404  0.4172
17681TIP3    H174458   0.774   0.542  12.509 -0.8827 -0.8145  0.1226
17681TIP3    H274459   0.899   0.546  12.594 -1.4177  1.6314  0.8470
17682TIP3   OH274460   2.815   6.518   3.809  0.5175 -0.3098 -0.3850
17682TIP3    H174461   2.817   6.613   3.823  1.1127 -0.2110 -1.0939
17682TIP3    H274462   2.802   6.508   3.715 -2.8657 -0.9689  0.0954
17683TIP3   OH274463   3.770   2.735   4.881 -0.8850  0.8071  0.3550
17683TIP3    H174464   3.760   2.643   4.853 -2.1428  0.3113  2.3231
17683TIP3    H274465   3.860   2.757   4.858 -0.3877 -1.1011  0.3225
17684TIP3   OH274466   4.246   0.182   3.551 -0.1242 -0.1930 -0.6690
17684TIP3    H174467   4.201   0.197   3.634  0.6113 -1.1543 -0.0940
17684TIP3    H274468   4.284   0.095   3.559  1.3090  0.3560 -1.4013
17685TIP3   OH274469   5.133   3.812   3.680  0.1594 -0.2153 -0.1447
17685TIP3    H174470   5.198   3.788   3.614 -0.4682 -1.4148 -0.3325
17685TIP3    H274471   5.052   3.825   3.630 -0.0818 -0.1280  0.2694
17686TIP3   OH274472   0.365   6.705   1.875 -0.1665  0.2519 -0.4915
17686TIP3    H174473   0.400   6.699   1.964 -1.1143  0.1165 -0.1261
17686TIP3    H274474   0.312   6.784   1.875 -2.0030 -0.9628 -0.2890
17687TIP3   OH274475   3.195   4.855   3.463 -0.7356 -0.1165  0.2914
17687TIP3    H174476   3.172   4.895   3.380 -1.2868 -1.4396 -0.2142
17687TIP3    H274477   3.112   4.828   3.501 -0.3735 -0.9827  0.4941
17688TIP3   OH274478   4.373   6.606  15.744  0.0240  0.4631 -0.8051
17688TIP3    H174479   4.366   6.640  15.655 -0.5136  2.3516 -0.0654
17688TIP3    H274480   4.383   6.684  15.799  0.5919 -0.6873  0.7717
17689TIP3   OH274481   2.808   4.989   0.581  0.1323  0.0101  0.7594
17689TIP3    H174482   2.802   4.907   0.532 -0.5429 -0.1972  1.1809
17689TIP3    H274483   2.841   5.052   0.517  2.2386 -0.9382  0.8790
17690TIP3   OH274484   3.937   3.121   4.927 -0.5386 -0.5813  0.0674
17690TIP3    H174485   3.883   3.181   4.874  1.9405  1.6404 -0.0363
17690TIP3    H274486   3.902   3.130   5.016 -2.7732 -2.0464 -0.6377
17691TIP3   OH274487   5.246   0.517   3.256  0.3829  0.2102  0.2402
17691TIP3    H174488   5.276   0.440   3.207  1.9824  1.0685 -0.1682
17691TIP3    H274489   5.206   0.572   3.189  1.6681  0.9353  0.0603
17692TIP3   OH274490   1.382   6.743   3.756  0.1007 -0.6254 -0.1100
17692TIP3    H174491   1.383   6.810   3.687 -0.5397 -1.2220 -0.7140
17692TIP3    H274492   1.430   6.669   3.718  1.0462 -0.4078  0.6611
17693TIP3   OH274493   5.483   3.663  11.865  0.4689  0.1854 -0.0616
17693TIP3    H174494   5.419   3.733  11.872 -0.2344 -0.6032  1.8505
17693TIP3    H274495   5.535   3.670  11.945  1.9587  0.0239 -0.9920
17694TIP3   OH274496   2.659   4.799   5.273  0.1557  0.1672  0.1035
17694TIP3    H174497   2.716   4.865   5.312 -0.0742  2.1914 -2.8799
17694TIP3    H274498   2.571   4.837   5.280  0.0824  0.4318 -2.0785
17695TIP3   OH274499   4.468   0.937  15.774 -0.4999 -0.5872 -0.0443
17695TIP3    H174500   4.526   0.879  15.726  0.4587  1.0711 -0.9323
17695TIP3    H274501   4.380   0.911  15.747 -0.0699 -1.4582 -0.6140
17696TIP3   OH274502   5.288   2.059  13.637 -0.3284 -0.2014  0.3887
17696TIP3    H174503   5.377   2.088  13.617 -0.3011 -1.8174 -1.9584
17696TIP3    H274504   5.292   1.964  13.630 -3.2549 -0.0791 -4.2314
17697TIP3   OH274505   0.152   4.654  17.098 -0.8281  0.1105 -0.0806
17697TIP3    H174506   0.101   4.581  17.132 -0.7697 -0.3231 -0.9126
17697TIP3    H274507   0.164   4.713  17.173  0.1497 -1.3089  0.9031
17698TIP3   OH274508   4.251   1.077   5.605 -0.4077 -0.0952  0.0430
17698TIP3    H174509   4.186   1.056   5.538  0.7370 -3.1358 -0.1977
17698TIP3    H274510   4.335   1.071   5.559  0.3883 -2.2014  1.6585
17699TIP3   OH274511   0.135   4.682   6.415  0.3941  0.0426  0.0295
17699TIP3    H174512   0.223   4.659   6.384  0.5370 -0.5176  0.8190
17699TIP3    H274513   0.125   4.774   6.393  1.5797  0.3830  0.8323
17700TIP3   OH274514   5.097   4.983  13.761  0.2300  0.1050 -0.7395
17700TIP3    H174515   5.119   5.030  13.842 -3.9193  0.5249  0.2262
17700TIP3    H274516   5.022   5.030  13.725  2.0207 -0.0325 -4.9758
17701TIP3   OH274517   2.734   1.791  12.371  0.0447 -0.0024  0.5516
17701TIP3    H174518   2.741   1.848  12.448  0.0686  0.6987  0.0332
17701TIP3    H274519   2.658   1.824  12.324 -1.4835 -1.9858  1.5430
17702TIP3   OH274520   2.928   3.903  16.197  0.1806 -0.0396  0.1588
17702TIP3    H174521   2.867   3.849  16.147  0.7880 -1.2252  0.6952
17702TIP3    H274522   3.013   3.891  16.154  0.6357 -0.7842  1.2571
17703TIP3   OH274523   4.866   1.235   5.154  0.3021  0.2727 -0.2479
17703TIP3    H174524   4.857   1.286   5.235 -0.5837 -0.5116  0.1570
17703TIP3    H274525   4.934   1.280   5.105 -0.3108  1.7226  0.2068
17704TIP3   OH274526   3.836   1.758  15.398 -0.0853  0.5357  0.2214
17704TIP3    H174527   3.806   1.705  15.472 -1.9630 -0.6896 -1.3600
17704TIP3    H274528   3.901   1.704  15.354  0.4971  0.9630  0.5502
17705TIP3   OH274529   0.373   1.935   4.286  0.0281  0.5726  0.0907
17705TIP3    H174530   0.284   1.960   4.262  0.5615  2.2985 -0.1598
17705TIP3    H274531   0.416   1.918   4.203  0.1718  0.5474  0.1711
17706TIP3   OH274532   4.945   0.628  16.311 -0.0141 -0.2598  0.2039
17706TIP3    H174533   4.923   0.582  16.230  0.9559 -0.7567  0.2138
17706TIP3    H274534   4.869   0.683  16.328 -0.7321 -1.0343 -0.4065
17707TIP3   OH274535   3.405   3.989  12.291 -0.1748 -0.0817  0.0141
17707TIP3    H174536   3.395   4.070  12.341  0.3403  0.3053 -0.5034
17707TIP3    H274537   3.454   4.015  12.213 -0.5428 -0.7712 -0.4550
17708TIP3   OH274538   3.426   1.931  14.971 -0.1589 -0.3780 -0.0285
17708TIP3    H174539   3.504   1.942  14.917  1.0251  0.1270  1.7482
17708TIP3    H274540   3.418   1.836  14.982  0.0516 -0.4431 -0.4162
17709TIP3   OH274541   3.937   2.728  16.629 -0.2463 -0.4430  0.0702
17709TIP3    H174542   3.903   2.642  16.651 -2.5389  0.9313  2.0451
17709TIP3    H274543   3.860   2.783  16.619  1.2119  1.5644 -0.5246
17710TIP3   OH274544   3.248   5.721  14.044 -0.3372  0.1010  0.3162
17710TIP3    H174545   3.308   5.712  13.971 -0.2404  0.5077  0.3405
17710TIP3    H274546   3.235   5.632  14.077 -0.2278 -0.0571 -0.0718
17711TIP3   OH274547   4.885   6.166  13.162  0.2827  0.1356  0.1357
17711TIP3    H174548   4.802   6.160  13.115 -0.4205  0.2530  1.3344
17711TIP3    H274549   4.889   6.257  13.191  0.6551  0.0393  0.3849
17712TIP3   OH274550   5.989   0.786   2.412 -0.4876  0.3706 -0.4518
17712TIP3    H174551   5.947   0.704   2.438 -1.1028  1.0123  0.6268
17712TIP3    H274552   6.082   0.769   2.420 -0.6132 -0.2223 -0.1917
17713TIP3   OH274553   3.851   0.123   1.020 -0.6960 -0.4133 -0.4054
17713TIP3    H174554   3.793   0.107   1.094  0.6410  0.9930  1.0006
17713TIP3    H274555   3.931   0.158   1.060  1.6731 -3.5569 -2.1607
17714TIP3   OH274556   2.226   3.552   2.133 -0.3643  0.6372 -0.0564
17714TIP3    H174557   2.155   3.488   2.130 -0.3192  0.6344 -1.4222
17714TIP3    H274558   2.183   3.634   2.156 -0.3096 -0.0126  2.4856
17715TIP3   OH274559   2.046   4.444  11.796 -0.5399 -0.0922 -0.0983
17715TIP3    H174560   1.990   4.473  11.724 -0.1162 -2.5528 -1.4851
17715TIP3    H274561   2.132   4.483  11.777 -1.0094  1.2299  0.4138
17716TIP3   OH274562   6.490   1.473  12.734 -0.4387  0.3128  0.1248
17716TIP3    H174563   6.547   1.485  12.810 -0.6152 -0.5979  0.4145
17716TIP3    H274564   6.496   1.555  12.685  0.5355  0.5004  0.5485
17717TIP3   OH274565   0.534   0.699  10.678 -0.3795 -0.2394  0.2620
17717TIP3    H174566   0.610   0.742  10.718 -0.9587  0.6876  0.3875
17717TIP3    H274567   0.495   0.767  10.623 -2.7545  0.1799  2.3867
17718TIP3   OH274568   1.454   3.438  13.523  0.0158  0.2396  0.3402
17718TIP3    H174569   1.422   3.456  13.612  0.4105 -1.8444  0.9386
17718TIP3    H274570   1.491   3.521  13.493  2.6285  0.2106  3.2950
17719TIP3   OH274571   4.248   0.538  11.048 -0.8457 -0.5615 -0.4711
17719TIP3    H174572   4.287   0.587  11.120 -2.3375 -0.4888  0.3155
17719TIP3    H274573   4.153   0.550  11.060 -1.3047 -4.5964  0.4287
17720TIP3   OH274574   1.991   5.410   1.774  1.1281  0.2209  0.0238
17720TIP3    H174575   2.018   5.446   1.858  2.4248 -0.4876 -0.0771
17720TIP3    H274576   2.019   5.318   1.776 -2.0269 -0.8187  0.2286
17721TIP3   OH274577   2.379   0.959   0.815  0.3092 -0.4268  0.2663
17721TIP3    H174578   2.446   0.972   0.749  1.7956  0.4973  1.9247
17721TIP3    H274579   2.396   0.871   0.850 -0.2837 -0.7903 -0.3429
17722TIP3   OH274580   2.243   4.405   1.950  0.1999 -0.1426  0.5838
17722TIP3    H174581   2.212   4.452   1.873  0.6223 -1.4973 -0.4371
17722TIP3    H274582   2.164   4.373   1.992  0.0397 -0.8462 -0.2356
17723TIP3   OH274583   3.316   5.493  12.180 -0.0540 -0.2374  0.1263
17723TIP3    H174584   3.283   5.563  12.125  0.9871  2.6557  3.0578
17723TIP3    H274585   3.241   5.467  12.234  0.0471 -0.0828  0.3419
17724TIP3   OH274586   2.228   0.405   1.818 -0.4909 -0.1140  0.5774
17724TIP3    H174587   2.150   0.399   1.763 -1.3788 -1.7274  1.9519
17724TIP3    H274588   2.294   0.352   1.774 -0.4060  0.6033 -0.1749
17725TIP3   OH274589   6.776   2.248   5.537  0.3119  0.1358 -0.5326
17725TIP3    H174590   6.689   2.215   5.511  0.3806  0.0964 -0.7140
17725TIP3    H274591   6.837   2.198   5.483  0.5724 -1.2212  0.9715
17726TIP3   OH274592   1.566   1.212   2.712 -0.2005 -0.0475 -0.0288
17726TIP3    H174593   1.488   1.184   2.760  0.3846 -0.1629  0.8633
17726TIP3    H274594   1.546   1.301   2.684 -1.0665 -0.4445 -0.6991
17727TIP3   OH274595   2.069   0.068  11.404 -0.7474  0.3037  0.4016
17727TIP3    H174596   1.985   0.023  11.409 -0.2266 -0.5147  1.8730
17727TIP3    H274597   2.135  -0.001  11.413  0.0685  1.1533  1.1198
17728TIP3   OH274598   3.720   1.188   4.755  0.3991 -0.2825 -0.4703
17728TIP3    H174599   3.684   1.166   4.669 -0.6792 -0.5460  0.0356
17728TIP3    H274600   3.664   1.258   4.788  2.6822  2.0141 -1.2687
17729TIP3   OH274601   2.651   6.581   0.547 -0.0157  0.0204  0.0795
17729TIP3    H174602   2.588   6.616   0.610  0.2790  0.6088  0.0490
17729TIP3    H274603   2.733   6.628   0.566 -0.1912  0.9721 -1.4442
17730TIP3   OH274604   5.335   4.179  16.586  0.4088 -0.6791  0.2713
17730TIP3    H174605   5.364   4.097  16.625 -1.1397 -1.0268  0.7157
17730TIP3    H274606   5.295   4.227  16.659 -0.3634 -0.3272 -0.3838
17731TIP3   OH274607   4.331   1.975  16.817 -0.8335 -0.2010  0.2012
17731TIP3    H174608   4.290   1.945  16.736 -0.5292 -0.2316  0.0536
17731TIP3    H274609   4.319   2.070  16.817  0.4829 -0.0120 -0.6346
17732TIP3   OH274610   4.758   6.598   2.276  0.0836 -0.1287 -0.2448
17732TIP3    H174611   4.777   6.690   2.293  0.5019 -0.2596  0.0097
17732TIP3    H274612   4.831   6.550   2.317  0.4640 -0.5072 -1.3216
17733TIP3   OH274613   2.585   4.572   3.752  0.0582 -0.4585 -0.5240
17733TIP3    H174614   2.571   4.527   3.669 -1.5748 -1.5862  0.3306
17733TIP3    H274615   2.497   4.595   3.782  0.3944 -2.2988  2.0778
17734TIP3   OH274616   1.118   0.368   1.980  0.1167 -0.4816 -0.5276
17734TIP3    H174617   1.210   0.361   2.005  0.0090  0.5721  0.1885
17734TIP3    H274618   1.075   0.297   2.027  0.1063  0.7858  1.4354
17735TIP3   OH274619   1.742   4.789   3.150  0.1411  0.3373 -0.3992
17735TIP3    H174620   1.837   4.795   3.138  0.2667 -0.5414  0.1161
17735TIP3    H274621   1.718   4.871   3.193  0.7166  0.4278 -0.2462
17736TIP3   OH274622   2.231   1.935  16.452 -0.3650 -0.4027 -0.4050
17736TIP3    H174623   2.163   1.982  16.403  0.8051  2.2634  0.4414
17736TIP3    H274624   2.195   1.928  16.541  0.1899  0.5034 -0.0980
17737TIP3   OH274625   6.439   6.754   2.843 -0.2704 -0.0095  0.3793
17737TIP3    H174626   6.453   6.825   2.781 -0.1257 -0.3242  0.0463
17737TIP3    H274627   6.512   6.694   2.827 -1.6683 -1.4078 -1.0114
17738TIP3   OH274628   3.566   3.810  13.521  0.2668  0.5631 -0.3798
17738TIP3    H174629   3.626   3.883  13.537  1.0423 -0.2867  0.6516
17738TIP3    H274630   3.509   3.810  13.598  0.2763  0.0816 -0.3744
17739TIP3   OH274631   0.472   6.613   5.329  0.2084  0.7581 -0.0829
17739TIP3    H174632   0.492   6.661   5.410 -0.0542  1.5937 -0.5095
17739TIP3    H274633   0.546   6.553   5.318 -1.2451 -1.5821  2.4198
17740TIP3   OH274634   0.364   2.550  11.183  0.1294 -0.2086 -0.0933
17740TIP3    H174635   0.455   2.535  11.159  0.0550 -1.6575  0.4992
17740TIP3    H274636   0.333   2.615  11.120  1.4503 -0.0062 -0.5445
17741TIP3   OH274637   2.708   5.982   3.139 -0.1397 -0.1883 -0.4587
17741TIP3    H174638   2.666   5.943   3.216  0.6145 -0.1902 -0.0392
17741TIP3    H274639   2.658   5.948   3.064 -0.4803 -0.6958 -0.0063
17742TIP3   OH274640   4.702   2.307  10.697 -0.3973  0.4080  0.4978
17742TIP3    H174641   4.689   2.340  10.786 -0.3173  0.2519  0.5676
17742TIP3    H274642   4.725   2.215  10.708 -4.4855 -0.7340  0.1083
17743TIP3   OH274643   1.870   6.284  14.602 -0.0359 -0.2429 -0.0884
17743TIP3    H174644   1.929   6.359  14.600  1.3091 -1.2215  1.5709
17743TIP3    H274645   1.790   6.316  14.642  0.3154  0.4479  0.0576
17744TIP3   OH274646   4.238   5.289  16.380 -0.6964  0.1421  0.1021
17744TIP3    H174647   4.163   5.347  16.390 -1.8895 -1.4918  0.8867
17744TIP3    H274648   4.219   5.216  16.439  2.2334  0.4142  1.4391
17745TIP3   OH274649   0.867   1.604  12.144  0.0345 -0.6134  0.1101
17745TIP3    H174650   0.772   1.606  12.151 -0.0597 -0.8110 -1.0487
17745TIP3    H274651   0.887   1.519  12.103  0.7105 -0.5828  0.3567
17746TIP3   OH274652   3.476   3.181  15.511 -0.3636  0.1970  0.6780
17746TIP3    H174653   3.503   3.112  15.571 -0.3383  1.4378  2.1429
17746TIP3    H274654   3.439   3.135  15.436 -0.5265 -1.3952  1.7151
17747TIP3   OH274655   1.866   0.917   1.507 -0.1156 -0.6056  0.0842
17747TIP3    H174656   1.772   0.901   1.508 -0.1208 -0.7290 -1.1679
17747TIP3    H274657   1.905   0.831   1.492  0.1831 -0.4970  0.2282
17748TIP3   OH274658   6.095   5.625  13.237 -0.0610 -0.5157 -0.1702
17748TIP3    H174659   6.053   5.543  13.266  0.4419 -0.1306  1.6950
17748TIP3    H274660   6.061   5.691  13.296  2.9094 -0.1339  1.1440
17749TIP3   OH274661   4.318   2.884   3.456  0.5199 -0.2849  0.1339
17749TIP3    H174662   4.400   2.933   3.464  0.9930 -0.9046 -0.8609
17749TIP3    H274663   4.315   2.856   3.365 -2.5954  2.8439 -0.8299
17750TIP3   OH274664   2.200   0.184  11.676  0.2442 -0.0151 -0.1636
17750TIP3    H174665   2.251   0.238  11.616 -1.0307  0.0373 -1.2155
17750TIP3    H274666   2.193   0.099  11.632 -1.2583  0.2212 -0.4108
17751TIP3   OH274667   4.327   0.266   2.155 -0.5091 -0.3082 -0.4275
17751TIP3    H174668   4.258   0.240   2.094  0.1625 -0.1216 -1.2863
17751TIP3    H274669   4.390   0.194   2.152 -0.1319  0.0220 -0.4927
17752TIP3   OH274670   6.601   2.968  13.915  0.1565 -0.0246 -0.2200
17752TIP3    H174671   6.550   2.934  13.989  0.3615 -0.5563 -0.3192
17752TIP3    H274672   6.556   2.934  13.838  0.1539  0.2309 -0.3321
17753TIP3   OH274673   0.974   2.301  16.690 -0.0403  0.5217 -0.5387
17753TIP3    H174674   0.913   2.346  16.749  0.5471  1.7385 -0.8464
17753TIP3    H274675   1.060   2.323  16.724  0.2554 -0.6558 -0.5018
17754TIP3   OH274676   3.530   0.910  12.886  0.4526 -0.0662 -0.3426
17754TIP3    H174677   3.599   0.846  12.905  0.9419  0.3016 -0.8535
17754TIP3    H274678   3.560   0.990  12.927 -0.0834 -0.1206  0.1600
17755TIP3   OH274679   1.652   0.703   4.285  0.0659  0.0953  0.7749
17755TIP3    H174680   1.685   0.687   4.197 -0.3364  0.4362  0.5581
17755TIP3    H274681   1.684   0.790   4.308 -0.3052  0.2449  0.7358
17756TIP3   OH274682   1.965   1.055   4.720  0.1916 -0.3764  0.2473
17756TIP3    H174683   1.940   1.137   4.763  0.6732 -0.0346 -0.1174
17756TIP3    H274684   2.025   1.082   4.651  0.3906 -1.0458  0.1577
17757TIP3   OH274685   0.057   5.662  10.720  0.2762  0.0606  0.4941
17757TIP3    H174686   0.104   5.677  10.638  1.8179  0.3913  1.4186
17757TIP3    H274687   0.071   5.569  10.739 -0.6123 -0.1623  0.0547
17758TIP3   OH274688   2.711   4.450   2.498  0.1111 -0.0305 -0.3906
17758TIP3    H174689   2.686   4.515   2.432 -1.4959  0.0893  0.3128
17758TIP3    H274690   2.709   4.498   2.581  2.7079 -0.0346 -0.2997
17759TIP3   OH274691   3.456   3.550   1.162 -0.3375 -0.3466 -0.1777
17759TIP3    H174692   3.376   3.512   1.197 -0.6367  0.2046 -0.2653
17759TIP3    H274693   3.525   3.489   1.188 -0.6371 -0.2440  0.8720
17760TIP3   OH274694   1.274   5.494   3.325 -0.3415 -0.2579 -0.5662
17760TIP3    H174695   1.304   5.423   3.268  1.1057  1.3204 -1.8304
17760TIP3    H274696   1.207   5.539   3.274 -1.1399 -0.5895  0.1718
17761TIP3   OH274697   0.717   2.668   2.795  0.3103  0.1106  0.1048
17761TIP3    H174698   0.798   2.679   2.744  0.4274  2.3486  0.7372
17761TIP3    H274699   0.647   2.686   2.732  0.2224 -2.6797 -0.6697
17762TIP3   OH274700   2.042   3.726  16.975  0.2140  0.5810 -0.3762
17762TIP3    H174701   2.044   3.699  17.067  0.0023  0.8097 -0.3041
17762TIP3    H274702   1.951   3.717  16.949  0.2214  0.7947 -0.4820
17763TIP3   OH274703   1.492   4.172   6.248 -0.6599 -0.0859  0.3730
17763TIP3    H174704   1.576   4.217   6.258 -0.7796  0.0417  0.7873
17763TIP3    H274705   1.478   4.128   6.332 -0.8827 -0.3212  0.2145
17764TIP3   OH274706   2.398   2.026   2.777  0.5765  0.4968 -0.7696
17764TIP3    H174707   2.462   2.095   2.764  2.3612 -0.8674  0.4092
17764TIP3    H274708   2.444   1.945   2.753 -1.5792 -0.2833 -2.5360
17765TIP3   OH274709   4.520   2.993  14.970 -0.0791  0.6848  0.2776
17765TIP3    H174710   4.570   2.923  14.929  0.0465  0.9200  0.0230
17765TIP3    H274711   4.567   3.011  15.052 -0.5553 -0.0500  0.7182
17766TIP3   OH274712   2.722   0.068  13.167 -0.3250 -0.2998 -0.9431
17766TIP3    H174713   2.761  -0.008  13.124  0.0039 -1.6838  1.6478
17766TIP3    H274714   2.639   0.082  13.122  1.5821  0.5412 -4.3025
17767TIP3   OH274715   3.358   5.741  11.264  0.0279  0.2229 -0.9048
17767TIP3    H174716   3.400   5.827  11.261  0.1912  0.2273  1.0755
17767TIP3    H274717   3.392   5.700  11.344 -1.0027 -1.2031 -1.1724
17768TIP3   OH274718   1.780   1.738   0.119  0.4136  0.0349 -0.4785
17768TIP3    H174719   1.793   1.811   0.179 -0.2178 -1.3041  1.3047
17768TIP3    H274720   1.729   1.776   0.047 -1.4918  0.9569  1.3052
17769TIP3   OH274721   5.704   2.044  12.819  0.4061  0.0243 -0.3726
17769TIP3    H174722   5.615   2.055  12.784 -0.1009 -2.2251  0.1179
17769TIP3    H274723   5.730   1.957  12.789  2.1181  0.3323  0.2131
17770TIP3   OH274724   3.686   4.489  12.601 -0.3157 -0.0254  0.2814
17770TIP3    H174725   3.642   4.528  12.526  2.1002 -2.5418 -2.5476
17770TIP3    H274726   3.648   4.402  12.610  1.8901 -1.1013 -0.3507
17771TIP3   OH274727   5.759   4.434   1.832  0.0858  0.1668  0.3914
17771TIP3    H174728   5.698   4.492   1.878 -0.2906 -0.6950  0.9990
17771TIP3    H274729   5.823   4.409   1.898 -1.0095 -1.8530  0.7426
17772TIP3   OH274730   1.384   1.141  12.962  0.2144  0.1109  0.5155
17772TIP3    H174731   1.388   1.160  13.055 -0.9422  1.4211  0.3285
17772TIP3    H274732   1.384   1.227  12.920 -2.9573 -0.2881 -0.4845
17773TIP3   OH274733   4.431   4.094  15.688  0.2874  0.3305 -0.0610
17773TIP3    H174734   4.358   4.040  15.717  0.4875 -1.0250 -2.0464
17773TIP3    H274735   4.392   4.181  15.677 -0.2442  0.4291  2.1747
17774TIP3   OH274736   3.480   1.876   5.638 -0.6900 -0.0710  0.7972
17774TIP3    H174737   3.470   1.791   5.595 -0.7839  1.0244 -1.3856
17774TIP3    H274738   3.462   1.858   5.731  1.4466 -2.8526  0.7384
17775TIP3   OH274739   5.603   3.098  12.132  0.1162 -0.3349 -0.3148
17775TIP3    H174740   5.683   3.128  12.089  0.6038 -1.0270  0.1151
17775TIP3    H274741   5.534   3.116  12.068  0.3726  1.8267 -0.0323
17776TIP3   OH274742   2.692   5.090   5.709 -0.1456 -0.2116  0.7343
17776TIP3    H174743   2.621   5.122   5.765  0.3638  0.4412  1.0109
17776TIP3    H274744   2.767   5.080   5.768 -0.0982 -1.2262  0.5124
17777TIP3   OH274745   4.802   3.236  11.804  0.1794 -0.2008 -0.0916
17777TIP3    H174746   4.897   3.228  11.812 -0.0771 -0.9193  2.3724
17777TIP3    H274747   4.771   3.251  11.893 -2.0284  0.0774 -0.8764
17778TIP3   OH274748   2.219   4.202   2.974 -0.0524 -0.7109 -0.3495
17778TIP3    H174749   2.152   4.245   3.027  0.8588  0.4227 -0.0935
17778TIP3    H274750   2.288   4.178   3.037  0.1243 -1.1961 -0.7207
17779TIP3   OH274751   3.157   5.510   1.582  0.2803 -0.3835 -0.4068
17779TIP3    H174752   3.211   5.573   1.534  0.9102  0.4126  1.3128
17779TIP3    H274753   3.207   5.490   1.661 -0.8687 -1.4551  0.0687
17780TIP3   OH274754   3.048   0.716   2.769  0.2991  0.0408 -0.5594
17780TIP3    H174755   3.102   0.675   2.835  1.5255  2.0663 -0.2793
17780TIP3    H274756   3.110   0.755   2.707 -0.8336  0.4358 -1.4754
17781TIP3   OH274757   5.500   1.317  13.055  0.5818  0.5198 -0.1886
17781TIP3    H174758   5.410   1.295  13.029  0.6563  0.0906 -0.0939
17781TIP3    H274759   5.549   1.235  13.044  1.0744  0.8786 -0.7251
17782TIP3   OH274760   3.672   0.958   1.052  0.2032 -0.2443 -0.2822
17782TIP3    H174761   3.653   0.895   1.122  0.8315 -0.5042 -0.3383
17782TIP3    H274762   3.756   0.997   1.078  0.5591 -0.5163 -1.0107
17783TIP3   OH274763   5.261   5.157  14.298  0.1074 -0.6660  0.0819
17783TIP3    H174764   5.269   5.076  14.247 -1.0748 -0.6844 -0.0803
17783TIP3    H274765   5.346   5.200  14.287  0.4559 -1.4869 -0.5080
17784TIP3   OH274766   1.732   1.182   3.047  0.5558  1.0499 -0.4864
17784TIP3    H174767   1.665   1.123   3.011  0.8011 -0.2065  1.0594
17784TIP3    H274768   1.815   1.138   3.029  0.8411  1.6580 -0.6573
17785TIP3   OH274769   1.128   6.653   2.366 -0.6495  0.2820 -0.0919
17785TIP3    H174770   1.130   6.604   2.448 -0.7325  2.1219  1.0333
17785TIP3    H274771   1.217   6.687   2.357 -0.7151  0.3170 -0.6182
17786TIP3   OH274772   3.413   5.046   5.020 -0.0914  0.3538  0.4618
17786TIP3    H174773   3.443   5.124   4.975  1.5107  1.3404  3.1059
17786TIP3    H274774   3.470   4.976   4.988  0.4398  0.8708  0.2646
17787TIP3   OH274775   3.388   4.740   5.574 -0.0083  0.2191 -0.0588
17787TIP3    H174776   3.384   4.792   5.493 -2.3835  0.7636  0.3926
17787TIP3    H274777   3.390   4.649   5.543  0.4564  0.4520 -0.7449
17788TIP3   OH274778   0.526   3.192   2.266 -0.3895 -0.4766  0.5791
17788TIP3    H174779   0.589   3.239   2.321 -2.1716  1.3211  1.1451
17788TIP3    H274780   0.516   3.107   2.308  1.7367 -0.8389  0.4081
17789TIP3   OH274781   5.907   4.576  14.429 -0.8201  0.5235 -0.0615
17789TIP3    H174782   5.862   4.503  14.472  1.8518 -1.8931 -1.1757
17789TIP3    H274783   5.964   4.612  14.497  1.2606 -1.4558 -0.6636
17790TIP3   OH274784   0.801   5.383  16.433  0.3430  0.1874  0.3648
17790TIP3    H174785   0.853   5.362  16.510  0.9331 -0.4500 -0.1988
17790TIP3    H274786   0.800   5.479  16.429 -0.6931  0.2509  1.8309
17791TIP3   OH274787   1.190   3.975  11.207  0.0478  0.2427 -0.4959
17791TIP3    H174788   1.282   3.952  11.197  0.3423  2.4162 -3.5394
17791TIP3    H274789   1.144   3.913  11.149 -0.1261  0.9178 -1.0834
17792TIP3   OH274790   3.187   0.954  13.088 -0.0156 -0.3269  0.6831
17792TIP3    H174791   3.143   1.026  13.044  1.4625 -1.2756 -2.5209
17792TIP3    H274792   3.242   0.996  13.154 -0.3649  1.3937 -0.0936
17793TIP3   OH274793   3.120   2.338  14.017 -0.3878 -0.1123  0.0284
17793TIP3    H174794   3.115   2.244  14.030  0.3412 -0.0538  0.7565
17793TIP3    H274795   3.202   2.351  13.969 -0.8829  0.0805 -0.7790
17794TIP3   OH274796   3.671   6.374   0.382  0.1189 -0.1980  0.3352
17794TIP3    H174797   3.743   6.318   0.409  0.9933  0.5627 -0.3904
17794TIP3    H274798   3.593   6.320   0.394  0.5335 -0.1864  3.4921
17795TIP3   OH274799   5.046   0.214  13.690 -0.2662 -0.7240  0.3684
17795TIP3    H174800   5.131   0.236  13.727 -0.7772  2.3144 -0.1668
17795TIP3    H274801   4.982   0.246  13.754 -1.0742  1.2176 -1.3559
17796TIP3   OH274802   5.343   0.016  16.694 -0.3002 -0.2028  0.0605
17796TIP3    H174803   5.268  -0.015  16.746 -1.1468 -0.3978 -1.2474
17796TIP3    H274804   5.325  -0.015  16.605  1.0137  0.3230 -0.3986
17797TIP3   OH274805   0.227   1.135  10.194 -0.4708 -0.0262 -0.1545
17797TIP3    H174806   0.190   1.200  10.254  1.5326  1.5430 -0.5456
17797TIP3    H274807   0.261   1.066  10.252 -1.6165 -0.2024  0.3259
17798TIP3   OH274808   3.753   0.369  12.336 -0.2900 -0.1508 -0.0412
17798TIP3    H174809   3.679   0.416  12.296 -0.0413  0.5855  0.3565
17798TIP3    H274810   3.765   0.411  12.421  0.3878 -0.4774  0.0256
17799TIP3   OH274811   1.264   3.416  12.238 -0.2706 -0.4299 -0.3768
17799TIP3    H174812   1.182   3.402  12.285  0.0101 -2.1380 -0.3577
17799TIP3    H274813   1.240   3.468  12.162 -1.3039 -0.5475 -0.1304
17800TIP3   OH274814   4.903   6.350   6.285 -0.5330  0.3740  0.1596
17800TIP3    H174815   4.842   6.421   6.266 -1.1112 -0.0645  0.3331
17800TIP3    H274816   4.989   6.389   6.276 -0.8453  1.1020  0.2782
17801TIP3   OH274817   6.550   0.866  15.492 -0.4727  0.1715  0.0532
17801TIP3    H174818   6.616   0.915  15.540 -1.2531 -0.7362  2.1394
17801TIP3    H274819   6.520   0.926  15.424 -0.0771  1.8867  1.3579
17802TIP3   OH274820   0.842   3.297   0.809  0.0870 -0.0471 -0.4121
17802TIP3    H174821   0.750   3.320   0.823 -0.2413 -1.3513 -0.3963
17802TIP3    H274822   0.889   3.338   0.882 -0.6572 -0.5164  0.3314
17803TIP3   OH274823   2.365   4.938   5.045  0.5449  0.3802 -0.2829
17803TIP3    H174824   2.356   4.925   5.140 -1.2430  0.0343 -0.4700
17803TIP3    H274825   2.360   4.850   5.008  1.1201  0.5253 -0.7127
17804TIP3   OH274826   3.466   6.737   0.020  0.6813  0.2546  0.1505
17804TIP3    H174827   3.561   6.746   0.010  0.6654  0.0327 -0.2005
17804TIP3    H274828   3.455   6.686   0.101  0.8640  0.1393  0.1032
17805TIP3   OH274829   1.470   3.632   3.777 -0.2272 -0.1296  0.2165
17805TIP3    H174830   1.412   3.707   3.782 -1.4072 -0.9850 -0.3577
17805TIP3    H274831   1.536   3.656   3.712  0.8855  1.3701  1.8407
17806TIP3   OH274832   2.242   2.690   1.919 -0.2264 -0.4347 -0.4578
17806TIP3    H174833   2.243   2.599   1.948 -0.9924  0.3614  2.1854
17806TIP3    H274834   2.150   2.716   1.925  0.0517  0.6296 -0.7729
17807TIP3   OH274835   1.283   3.079   2.629  0.6079  0.1923  0.3125
17807TIP3    H174836   1.345   3.049   2.562 -0.4995  0.8258 -1.0140
17807TIP3    H274837   1.227   3.004   2.646  2.3958 -0.7373  2.3270
17808TIP3   OH274838   3.255   0.095   0.213 -0.1070 -0.0673 -0.0145
17808TIP3    H174839   3.301   0.058   0.138  2.4692  1.8110  0.5683
17808TIP3    H274840   3.243   0.020   0.273  1.7307 -0.7289 -0.4277
17809TIP3   OH274841   4.568   5.443  16.817 -0.5074 -0.7319  0.0177
17809TIP3    H174842   4.480   5.454  16.852 -0.7356  1.9253 -1.2619
17809TIP3    H274843   4.623   5.498  16.873 -0.7156  2.7492 -3.0184
17810TIP3   OH274844   0.972   4.400   0.946 -0.0476 -0.1632  0.1736
17810TIP3    H174845   0.974   4.308   0.919 -1.5583  0.2103 -1.2491
17810TIP3    H274846   0.971   4.397   1.042  0.3091 -1.6149  0.1369
17811TIP3   OH274847   5.269   4.331  14.533 -0.6979 -0.0228 -0.4332
17811TIP3    H174848   5.294   4.246  14.495 -0.2993  0.5089 -1.3940
17811TIP3    H274849   5.175   4.338  14.516 -0.6076  0.0101 -0.9295
17812TIP3   OH274850   1.986   2.755   4.335 -0.4100  0.1700  0.0363
17812TIP3    H174851   1.943   2.800   4.263  0.6287  1.8012  0.4106
17812TIP3    H274852   2.025   2.825   4.387  0.7354 -1.1312  0.9556
17813TIP3   OH274853   6.609   0.903   1.761  0.2977 -0.4960  0.0825
17813TIP3    H174854   6.577   0.993   1.764  1.5598 -0.0403  0.0120
17813TIP3    H274855   6.629   0.887   1.669 -0.3741 -1.0165  0.0212
17814TIP3   OH274856   1.707   2.225  15.326  0.6750 -0.1534 -0.1423
17814TIP3    H174857   1.745   2.178  15.252  0.0252 -0.3654 -0.3406
17814TIP3    H274858   1.664   2.157  15.378 -2.3739  0.4801 -1.6974
17815TIP3   OH274859   3.329   4.147  14.153  0.3190 -0.3554  0.1798
17815TIP3    H174860   3.320   4.204  14.077  0.3476  0.1306  0.5406
17815TIP3    H274861   3.395   4.083  14.127  1.7388  0.9609  0.4681
17816TIP3   OH274862   0.509   4.857   1.902 -0.4780 -0.1550 -0.4514
17816TIP3    H174863   0.465   4.939   1.923  1.5948  1.2472 -1.4969
17816TIP3    H274864   0.491   4.842   1.810  0.8210  0.1952 -0.7749
17817TIP3   OH274865   2.472   2.364   3.001 -0.4678 -0.0767  0.2511
17817TIP3    H174866   2.524   2.444   3.006 -2.1584  1.0114  0.8230
17817TIP3    H274867   2.425   2.361   3.085 -0.8475 -1.3662 -0.0019
17818TIP3   OH274868   1.395   2.360   4.874  0.0077 -0.1952 -0.0551
17818TIP3    H174869   1.424   2.322   4.791 -0.1577  2.0203 -1.1787
17818TIP3    H274870   1.473   2.402   4.909 -0.2123 -0.0951  0.3112
17819TIP3   OH274871   3.771   0.862   0.398 -0.5430  0.6476 -0.5751
17819TIP3    H174872   3.816   0.874   0.314  0.9334  0.5734  0.1834
17819TIP3    H274873   3.824   0.911   0.461 -1.8511  1.0245  0.2530
17820TIP3   OH274874   5.633   4.525   0.286 -0.1328 -0.1449  0.9714
17820TIP3    H174875   5.686   4.555   0.212 -1.8809  0.3013 -0.1333
17820TIP3    H274876   5.640   4.595   0.351 -1.3451  1.0782 -0.1781
17821TIP3   OH274877   4.550   5.624   1.193 -0.4785 -0.0672 -0.0700
17821TIP3    H174878   4.540   5.651   1.284  1.0509  0.5161 -0.0668
17821TIP3    H274879   4.481   5.672   1.146 -0.3870  0.6933  0.5672
17822TIP3   OH274880   0.398   3.366   4.407 -0.5228  0.1619  0.3814
17822TIP3    H174881   0.313   3.402   4.378 -0.8618 -2.0484 -1.5665
17822TIP3    H274882   0.459   3.392   4.337 -0.1183 -0.3813  0.5366
17823TIP3   OH274883   3.164   0.235   3.722  0.0291 -0.0018 -0.3499
17823TIP3    H174884   3.125   0.273   3.644 -0.6383 -2.0472 -1.0520
17823TIP3    H274885   3.089   0.204   3.773  0.5890 -1.2020 -0.2473
17824TIP3   OH274886   0.727   2.013  12.734 -0.0584  0.5768  0.1245
17824TIP3    H174887   0.667   2.063  12.679 -2.6965 -0.7039  1.7213
17824TIP3    H274888   0.814   2.047  12.713 -1.1974  1.5490 -3.2475
17825TIP3   OH274889   5.119   5.990  16.319  0.1045 -0.2526  0.2581
17825TIP3    H174890   5.151   6.055  16.256  0.2908 -0.2186  0.3863
17825TIP3    H274891   5.180   5.996  16.392  0.0062 -0.4363  0.3534
17826TIP3   OH274892   4.709   5.662  16.909  0.0854 -0.1319  0.6016
17826TIP3    H174893   4.698   5.725  16.838 -0.3612 -1.4417 -0.4994
17826TIP3    H274894   4.731   5.716  16.985 -3.4828  1.6385  0.4439
17827TIP3   OH274895   0.064   1.168   2.363  0.0284 -0.4368 -0.6173
17827TIP3    H174896   0.092   1.138   2.277 -0.4258 -1.1250 -0.5221
17827TIP3    H274897  -0.032   1.168   2.359  0.0077  0.5356 -0.4582
17828TIP3   OH274898   4.523   4.833   0.092  0.7662 -0.0536 -0.2262
17828TIP3    H174899   4.567   4.917   0.080 -1.4308  0.9777 -1.4286
17828TIP3    H274900   4.440   4.856   0.135 -0.5658 -1.3971 -2.0069
17829TIP3   OH274901   5.405   5.814  16.397 -0.5817  0.7040 -0.8846
17829TIP3    H174902   5.396   5.852  16.309 -1.4992  0.9345 -0.6928
17829TIP3    H274903   5.349   5.737  16.395 -0.4761  0.6195 -0.5446
17830TIP3   OH274904   3.491   1.984   1.315 -0.4283 -0.5448 -0.6451
17830TIP3    H174905   3.460   2.061   1.362 -1.3389 -0.3735 -1.5060
17830TIP3    H274906   3.512   2.016   1.227  2.5581 -0.5844 -0.0118
17831TIP3   OH274907   0.750   3.554  12.358  0.6967 -0.2407  0.0960
17831TIP3    H174908   0.759   3.478  12.415 -0.7404  0.2327  0.9949
17831TIP3    H274909   0.764   3.521  12.269 -0.3207 -1.6240  0.4447
17832TIP3   OH274910   3.959   3.619   3.562 -0.5352 -0.2136  0.0034
17832TIP3    H174911   3.979   3.692   3.621  0.1852  0.3028 -0.8608
17832TIP3    H274912   4.003   3.543   3.602  1.7584  0.5679 -0.9660
17833TIP3   OH274913   6.744   1.476   1.878  0.2442 -0.0446 -0.6014
17833TIP3    H174914   6.758   1.551   1.935  0.5883  0.7261 -1.6732
17833TIP3    H274915   6.759   1.400   1.933 -0.7135  0.6695  0.6586
17834TIP3   OH274916   4.122   2.902   4.157  0.0261  0.3080  0.0230
17834TIP3    H174917   4.142   2.844   4.230  1.7572  2.1041  1.0135
17834TIP3    H274918   4.130   2.847   4.079 -2.4784 -1.7815  1.1893
17835TIP3   OH274919   3.539   5.156   0.372 -0.4205  0.2650  0.0690
17835TIP3    H174920   3.576   5.120   0.291  0.9820  1.5242  0.1439
17835TIP3    H274921   3.544   5.083   0.434  2.0757  0.4367  0.1155
17836TIP3   OH274922   1.893   3.757   5.936 -0.0331  0.2579 -0.7018
17836TIP3    H174923   1.822   3.809   5.899 -0.1887  0.1405 -0.5714
17836TIP3    H274924   1.951   3.820   5.978 -1.3716  0.1317  1.3831
17837TIP3   OH274925   3.039   3.403   4.406 -0.1829  0.2575  0.9203
17837TIP3    H174926   3.045   3.359   4.321  2.1785 -1.4648  1.9109
17837TIP3    H274927   2.968   3.358   4.451  2.3180 -2.8861  1.9984
17838TIP3   OH274928   2.278   5.825   2.619 -0.4449  0.5051 -0.5392
17838TIP3    H174929   2.249   5.771   2.693 -0.9083  0.4782 -0.7366
17838TIP3    H274930   2.304   5.908   2.659  0.6662 -0.0024 -0.1879
17839TIP3   OH274931   5.962   2.919   0.186 -0.6944 -0.0921 -0.4827
17839TIP3    H174932   5.911   3.000   0.188  0.2948  0.5162 -0.0039
17839TIP3    H274933   5.947   2.879   0.272 -0.6583 -0.1109 -0.4853
17840TIP3   OH274934   2.630   3.901   5.333  0.1061 -0.1471 -0.4817
17840TIP3    H174935   2.639   3.871   5.242 -1.4269  0.3051 -0.7964
17840TIP3    H274936   2.638   3.822   5.386 -1.8966 -0.8619 -1.1901
17841TIP3   OH274937   1.547   0.072   1.650 -0.2033 -0.9060 -0.3064
17841TIP3    H174938   1.497   0.120   1.583  1.4886  0.1574 -0.8663
17841TIP3    H274939   1.487   0.005   1.681 -1.8707  0.1240 -1.1677
17842TIP3   OH274940   4.474   2.985   2.193  0.0806  0.1640 -0.2253
17842TIP3    H174941   4.392   3.005   2.239 -0.4219 -0.7619 -0.7003
17842TIP3    H274942   4.542   3.008   2.256 -0.5285  1.2823  0.0489
17843TIP3   OH274943   1.885   0.525  14.864  0.4097  0.6021 -0.0779
17843TIP3    H174944   1.851   0.462  14.928 -1.0477 -0.1870 -1.5993
17843TIP3    H274945   1.938   0.472  14.805 -2.9894  0.2222 -2.9772
17844TIP3   OH274946   2.555   3.631   4.512 -0.0909  0.0016 -0.0040
17844TIP3    H174947   2.553   3.726   4.507  0.6309  0.1605  1.9764
17844TIP3    H274948   2.616   3.604   4.443  0.0563  1.0018 -0.2654
17845TIP3   OH274949   5.339   4.359  10.533 -0.1857 -0.1246 -0.2187
17845TIP3    H174950   5.277   4.306  10.582 -1.2907  2.7549  1.6036
17845TIP3    H274951   5.288   4.395  10.461  0.1176 -0.0996 -0.4239
17846TIP3   OH274952   2.250   1.342   4.962 -0.0381  0.6344  0.6474
17846TIP3    H174953   2.268   1.250   4.947  1.6918  0.9036  0.9543
17846TIP3    H274954   2.219   1.346   5.053 -0.0496  0.3699  0.6550
17847TIP3   OH274955   1.073   3.618  11.454  0.4629 -0.7055 -0.1692
17847TIP3    H174956   1.062   3.639  11.547  0.8830  0.6156 -0.4165
17847TIP3    H274957   1.041   3.528  11.447 -3.4201  0.5252  0.4993
17848TIP3   OH274958   6.370   4.685  16.981 -0.4127  0.0048 -0.3793
17848TIP3    H174959   6.382   4.730  16.898 -1.5553  1.3245  0.1405
17848TIP3    H274960   6.276   4.663  16.983 -0.3386 -0.2516  0.4236
17849TIP3   OH274961   5.033   6.261   3.236  0.2704  0.1028 -0.1107
17849TIP3    H174962   5.114   6.303   3.264  0.0704  0.8047 -0.5602
17849TIP3    H274963   4.971   6.277   3.308  0.2877  0.3007 -0.1401
17850TIP3   OH274964   2.230   5.690   3.218  0.2074 -0.4876  0.7963
17850TIP3    H174965   2.245   5.648   3.133  0.2708  0.2492  0.4391
17850TIP3    H274966   2.153   5.645   3.253 -2.4403  1.9656 -1.5226
17851TIP3   OH274967   0.871   0.771   4.860 -0.2812  0.1146 -0.0758
17851TIP3    H174968   0.782   0.746   4.837 -0.2105  0.0461 -0.2789
17851TIP3    H274969   0.914   0.689   4.884 -0.2871  0.1539  0.0691
17852TIP3   OH274970   4.684   0.051  16.523 -0.0892 -0.2272  0.2744
17852TIP3    H174971   4.726  -0.034  16.540  1.3832  0.6260  1.0106
17852TIP3    H274972   4.673   0.053  16.428 -1.5168 -1.8704  0.3745
17853TIP3   OH274973   6.658   5.801  10.863 -0.2781 -0.0089  0.1979
17853TIP3    H174974   6.722   5.745  10.818 -0.7523 -0.6508  0.3049
17853TIP3    H274975   6.573   5.763  10.839 -0.5897  0.5120  0.4879
17854TIP3   OH274976   5.469   0.047   2.086  0.0257  0.5387  0.1595
17854TIP3    H174977   5.519   0.016   2.162  1.6562 -1.0057 -1.4959
17854TIP3    H274978   5.437   0.133   2.112  1.1339  0.3234  2.3472
17855TIP3   OH274979   1.621   3.520  12.616 -0.5427 -0.2869  0.7756
17855TIP3    H174980   1.618   3.469  12.535  1.1127 -0.4055  0.7701
17855TIP3    H274981   1.531   3.551  12.628 -1.1788 -1.7206 -0.1697
17856TIP3   OH274982   4.521   2.351  11.635  0.1882  0.5807 -0.6079
17856TIP3    H174983   4.480   2.397  11.562  0.0098  1.3699 -0.0241
17856TIP3    H274984   4.462   2.367  11.709  0.6290  0.2159 -0.1740
17857TIP3   OH274985   1.878   2.253  14.894 -0.2186  0.0379  0.4536
17857TIP3    H174986   1.945   2.311  14.928  0.4226 -1.0638  1.1145
17857TIP3    H274987   1.879   2.267  14.799  1.1328 -0.1646  0.4295
17858TIP3   OH274988   2.927   4.906  11.757  0.4504 -0.2351  0.2268
17858TIP3    H174989   2.844   4.867  11.730 -0.0107  0.1104  1.1236
17858TIP3    H274990   2.941   4.979  11.698  0.7667 -1.0862 -0.7587
17859TIP3   OH274991   3.764   4.703   2.476 -0.3804 -0.0978  0.2188
17859TIP3    H174992   3.842   4.648   2.472  0.9776  1.6384  1.8238
17859TIP3    H274993   3.793   4.783   2.519 -3.2463  0.2370  1.6815
17860TIP3   OH274994   2.372   4.411   1.578 -0.2221  0.3393 -0.2328
17860TIP3    H174995   2.408   4.344   1.636 -1.0394  1.2043  1.3215
17860TIP3    H274996   2.373   4.491   1.631 -0.0140  1.3793 -1.7774
17861TIP3   OH274997   1.448   3.205  14.358  0.1728  0.2474  0.2386
17861TIP3    H174998   1.490   3.272  14.305 -0.9521  0.5576 -0.2885
17861TIP3    H274999   1.454   3.239  14.448  1.1997  0.1913  0.1913
17862TIP3   OH275000   1.273   3.642  10.993 -0.8527 -0.1944 -0.5993
17862TIP3    H175001   1.334   3.572  10.966 -3.4266 -2.0369 -1.8315
17862TIP3    H275002   1.284   3.710  10.926  1.5076  0.5400  0.4837
17863TIP3   OH275003   3.901   4.029  11.914  0.1875  0.5381  0.5069
17863TIP3    H175004   3.910   4.114  11.957  0.1498  1.8904 -2.0810
17863TIP3    H275005   3.971   4.028  11.848  0.5255 -1.6732  0.8635
17864TIP3   OH275006   4.406   4.634   3.184  0.3748  0.2987 -0.1814
17864TIP3    H175007   4.476   4.581   3.145 -0.1599 -0.9373  0.5066
17864TIP3    H275008   4.434   4.647   3.275 -0.0555  0.2109 -0.0365
17865TIP3   OH275009   5.680   5.204   5.980  0.1165  0.3641 -0.3497
17865TIP3    H175010   5.594   5.247   5.982 -0.0352  0.0964 -1.0498
17865TIP3    H275011   5.664   5.117   6.018  0.9346  1.7876  3.4794
17866TIP3   OH275012   4.870   6.235   5.501 -0.3353  0.2311 -0.3708
17866TIP3    H175013   4.817   6.259   5.425  0.7166 -1.3760 -1.6547
17866TIP3    H275014   4.820   6.267   5.576 -1.6690  1.3561 -1.6982
17867TIP3   OH275015   4.622   5.153   3.640  0.0902 -0.2545  0.1653
17867TIP3    H175016   4.678   5.228   3.620 -0.0675 -0.3844 -0.7604
17867TIP3    H275017   4.545   5.192   3.682 -0.3133  0.1707 -0.9670
17868TIP3   OH275018   4.494   1.974  12.553 -0.3252 -0.4436 -0.5642
17868TIP3    H175019   4.410   1.977  12.507  0.1817 -0.1732 -1.4856
17868TIP3    H275020   4.485   2.039  12.623 -1.2253 -1.1070 -0.0413
17869TIP3   OH275021   6.579   4.444   3.250 -0.3264 -0.2935  0.0102
17869TIP3    H175022   6.537   4.382   3.190  0.5690 -1.4980  0.6152
17869TIP3    H275023   6.672   4.422   3.246 -0.0010  1.0141  0.2309
17870TIP3   OH275024   1.419   1.398  13.969  0.8500  0.0516  0.2702
17870TIP3    H175025   1.376   1.313  13.963 -2.7682  1.7124  1.0025
17870TIP3    H275026   1.419   1.432  13.880 -0.5634  0.5661  0.4530
17871TIP3   OH275027   4.830   3.564  10.691 -0.0728 -0.1766  0.2537
17871TIP3    H175028   4.849   3.475  10.723  0.5269 -0.9428 -2.1557
17871TIP3    H275029   4.914   3.608  10.690  0.2062 -0.7139 -1.8697
17872TIP3   OH275030   2.488   2.498   6.784  0.4529 -0.7084  0.1140
17872TIP3    H175031   2.556   2.509   6.850  0.8281  0.2868 -0.4457
17872TIP3    H275032   2.535   2.492   6.701 -0.0155 -2.0193 -0.0772
17873TIP3   OH275033   5.960   4.463  14.736 -0.1731  0.3163 -0.2523
17873TIP3    H175034   6.047   4.483  14.702 -1.0212  2.6827 -1.1973
17873TIP3    H275035   5.938   4.538  14.792 -1.2543 -0.6432  0.6318
17874TIP3   OH275036   4.246   6.719  13.591  0.0577  0.6096 -0.6479
17874TIP3    H175037   4.264   6.704  13.499  1.3920  0.9643 -0.4453
17874TIP3    H275038   4.324   6.688  13.637 -2.0734 -3.2233  0.6970
17875TIP3   OH275039   4.224   2.604  14.489 -0.6218  0.2839  0.3675
17875TIP3    H175040   4.218   2.692  14.452 -2.5827 -0.0238 -0.0742
17875TIP3    H275041   4.244   2.548  14.413  0.3936  0.3067  0.6096
17876TIP3   OH275042   1.495   1.189   0.453  1.0443 -0.3005  0.3486
17876TIP3    H175043   1.515   1.097   0.472 -0.3706 -0.3848  1.5119
17876TIP3    H275044   1.489   1.231   0.539  0.3998  0.6112 -0.1341
17877TIP3   OH275045   5.224   3.226  17.185  0.2924  0.3847 -0.1165
17877TIP3    H175046   5.242   3.210  17.278 -1.1283  2.6729  0.5688
17877TIP3    H275047   5.299   3.278  17.155  0.7056 -0.2771 -0.2638
17878TIP3   OH275048   4.424   3.018  11.437  0.0190 -0.1426 -0.2853
17878TIP3    H175049   4.492   2.972  11.486  0.6241  0.3189 -0.6971
17878TIP3    H275050   4.431   3.109  11.465 -0.7435 -0.1709  0.0260
17879TIP3   OH275051   2.912   5.422  16.943  0.5561  0.5119  0.1780
17879TIP3    H175052   2.826   5.391  16.914 -0.5740  2.1818  1.6673
17879TIP3    H275053   2.901   5.517  16.954  2.6586  0.7817  0.1411
17880TIP3   OH275054   3.010   3.718  13.915 -0.2511 -0.3026  0.1327
17880TIP3    H175055   2.956   3.643  13.889  0.0929 -0.3816 -0.3463
17880TIP3    H275056   2.948   3.778  13.957 -0.4193 -1.1270  1.0829
17881TIP3   OH275057   5.111   3.338  12.973 -0.2927 -0.2334 -0.6493
17881TIP3    H175058   5.069   3.333  12.887 -0.9111  0.3907 -0.3877
17881TIP3    H275059   5.197   3.374  12.955 -0.3891 -0.1859 -1.0235
17882TIP3   OH275060   1.809   6.742  12.937  0.3330 -0.2687 -0.2344
17882TIP3    H175061   1.775   6.660  12.901  0.7859 -1.0556  1.0934
17882TIP3    H275062   1.806   6.804  12.863 -1.0171 -1.1732 -0.9568
17883TIP3   OH275063   1.755   4.987   1.951 -0.0193  0.0009 -0.2647
17883TIP3    H175064   1.699   5.064   1.936 -2.2503 -1.3031  1.0913
17883TIP3    H275065   1.757   4.977   2.046  0.5986 -1.3723 -0.4081
17884TIP3   OH275066   2.558   0.520   1.671  0.1710 -0.3999 -0.0887
17884TIP3    H175067   2.643   0.557   1.648  0.0443 -0.7092 -1.0736
17884TIP3    H275068   2.558   0.516   1.766  0.4977  1.4112  0.0027
17885TIP3   OH275069   0.808   4.841  14.312  0.2683  0.0360 -0.7983
17885TIP3    H175070   0.758   4.808  14.238  0.2088  0.3089 -0.8835
17885TIP3    H275071   0.773   4.796  14.388  1.2296 -1.2334 -1.0966
17886TIP3   OH275072   6.358   4.911  16.583 -0.1602 -0.1301  0.2723
17886TIP3    H175073   6.274   4.926  16.627 -0.8009 -1.0385 -0.6200
17886TIP3    H275074   6.418   4.888  16.654 -1.2521 -1.9056  0.6620
17887TIP3   OH275075   2.459   4.799  14.484  0.1855 -0.1044 -0.2409
17887TIP3    H175076   2.467   4.881  14.531  0.3958 -0.1749 -0.1548
17887TIP3    H275077   2.403   4.745  14.541  0.0102 -0.0037 -0.3194
17888TIP3   OH275078   4.383   1.214   4.585 -0.1540 -0.5252  0.4992
17888TIP3    H175079   4.335   1.263   4.652 -0.7857 -3.1841  2.0629
17888TIP3    H275080   4.471   1.206   4.619  0.6849  1.7253 -0.9842
17889TIP3   OH275081   1.884   3.668  13.468  0.5156  0.3479 -0.7410
17889TIP3    H175082   1.976   3.671  13.445  0.9928 -2.1088  0.5602
17889TIP3    H275083   1.839   3.641  13.388  0.8807  1.9304 -1.4753
17890TIP3   OH275084   2.294   5.535  16.662 -0.0739  0.1449 -0.1853
17890TIP3    H175085   2.232   5.580  16.603  0.7411  0.5154 -0.7678
17890TIP3    H275086   2.379   5.576  16.643  0.5056 -0.9777 -0.0151
17891TIP3   OH275087   0.348   1.925   3.965  0.4126 -0.2115 -0.1665
17891TIP3    H175088   0.371   1.866   3.893 -0.0367  0.9895 -1.3068
17891TIP3    H275089   0.253   1.936   3.957  0.7281  2.0973 -1.0852
17892TIP3   OH275090   4.370   1.515   2.020 -0.4073  0.9506  0.8027
17892TIP3    H175091   4.405   1.426   2.021  0.3283  1.2075 -0.4273
17892TIP3    H275092   4.309   1.518   2.093  1.3960  0.1781  2.3946
17893TIP3   OH275093   2.296   3.064  16.554  0.0967  0.7678 -0.1140
17893TIP3    H175094   2.280   3.155  16.578  2.1306  1.2683 -0.5414
17893TIP3    H275095   2.335   3.025  16.632  1.9276  1.0553 -0.8474
17894TIP3   OH275096   4.867   1.939   4.028  0.1567 -0.1844  0.1383
17894TIP3    H175097   4.924   1.978   3.961  0.5413  0.8394  1.0516
17894TIP3    H275098   4.849   2.010   4.089 -0.2649 -1.0902  1.0860
17895TIP3   OH275099   2.938   0.251  17.036 -1.0913 -0.1479  0.9707
17895TIP3    H175100   2.941   0.324  17.099 -1.1677  0.1212  0.6671
17895TIP3    H275101   2.980   0.286  16.957 -1.6916 -0.2262  0.6155
17896TIP3   OH275102   2.783   3.547  13.866  0.2071  0.3099  0.4617
17896TIP3    H175103   2.693   3.574  13.887  0.5846 -0.4146  3.1723
17896TIP3    H275104   2.773   3.461  13.824 -0.3435  0.2096  0.7972
17897TIP3   OH275105   2.200   3.329   1.756  0.3082  0.4703  0.0743
17897TIP3    H175106   2.283   3.297   1.793  0.6707  0.7639 -0.4811
17897TIP3    H275107   2.227   3.387   1.684 -0.3284  1.8903  0.9430
17898TIP3   OH275108   1.813   6.761   5.007  0.8044  0.5325  0.0747
17898TIP3    H175109   1.743   6.782   4.946 -0.2667 -1.2955  0.6362
17898TIP3    H275110   1.822   6.839   5.062  0.2331  1.3207 -0.9283
17899TIP3   OH275111   1.072   1.308   4.800  0.1631 -0.4882  0.4968
17899TIP3    H175112   1.116   1.229   4.769 -1.3841 -0.7085 -1.2859
17899TIP3    H275113   1.125   1.380   4.767 -0.5430 -0.7539 -1.2698
17900TIP3   OH275114   3.518   0.136  14.669  0.2616  0.2031  0.0229
17900TIP3    H175115   3.535   0.109  14.759  3.5389  0.3855 -0.4786
17900TIP3    H275116   3.552   0.225  14.664 -2.3106  1.1806 -0.7268
17901TIP3   OH275117   1.670   0.852   2.851 -0.5442 -0.1841  0.1426
17901TIP3    H175118   1.591   0.892   2.888 -1.0285 -1.3608  0.4261
17901TIP3    H275119   1.705   0.797   2.921  0.6519  0.4937  0.0825
17902TIP3   OH275120   0.626   5.917   2.294 -0.3036  0.4005  0.0061
17902TIP3    H175121   0.546   5.891   2.340  0.2961 -1.4536  0.0708
17902TIP3    H275122   0.649   5.840   2.241 -0.5816  2.2163 -2.8512
17903TIP3   OH275123   3.602   5.102  12.120 -0.3060 -0.1023 -0.1451
17903TIP3    H175124   3.598   5.194  12.092 -1.1784 -0.1508 -0.1915
17903TIP3    H275125   3.680   5.098  12.176  1.0078  0.1913 -1.8714
17904TIP3   OH275126   1.407   0.213  14.171  0.2174  0.2292  0.6277
17904TIP3    H175127   1.334   0.208  14.232  1.4269  0.5491  2.1425
17904TIP3    H275128   1.484   0.188  14.223  1.4773  1.8586 -0.3806
17905TIP3   OH275129   2.798   0.227  12.723  0.4567 -0.1203 -0.2834
17905TIP3    H175130   2.785   0.321  12.735  0.1322 -0.3425  1.2261
17905TIP3    H275131   2.779   0.211  12.630 -0.7050  1.1006 -0.2640
17906TIP3   OH275132   5.112   5.064   0.086 -0.1640 -0.6119  0.0733
17906TIP3    H175133   5.042   5.001   0.099 -1.7410  0.3866 -2.9971
17906TIP3    H275134   5.141   5.049  -0.004  1.2705  1.2462  0.1822
17907TIP3   OH275135   5.277   0.841   0.798  0.0689 -0.1924 -0.0069
17907TIP3    H175136   5.289   0.847   0.704  0.2238 -0.2677  0.0076
17907TIP3    H275137   5.185   0.863   0.813  0.7348  2.7415  0.0880
17908TIP3   OH275138   1.983   6.392  15.439 -0.9353 -0.1341 -0.3007
17908TIP3    H175139   1.901   6.430  15.407  0.3954  0.9232 -2.4854
17908TIP3    H275140   2.002   6.320  15.378  0.6162  0.6801 -0.8010
17909TIP3   OH275141   1.690   4.401  14.826  0.4442  0.3414 -0.5367
17909TIP3    H175142   1.602   4.440  14.826  0.9153  1.4260  0.0498
17909TIP3    H275143   1.676   4.311  14.854 -0.7548 -0.1530 -2.5724
17910TIP3   OH275144   2.163   1.541  11.356  0.0799 -0.1300  0.3810
17910TIP3    H175145   2.084   1.516  11.308  0.8720  2.4518 -2.3735
17910TIP3    H275146   2.235   1.511  11.301  1.0102  2.1980  0.2885
17911TIP3   OH275147   6.278   6.560  16.320  0.0359 -0.1281  0.3688
17911TIP3    H175148   6.211   6.498  16.349  0.0473  0.0951  0.8887
17911TIP3    H275149   6.313   6.597  16.401  1.2933 -0.7644  0.1340
17912TIP3   OH275150   4.378   3.326   2.257 -0.5843  0.0093 -0.4113
17912TIP3    H175151   4.284   3.318   2.270 -0.5390 -0.4262 -0.3530
17912TIP3    H275152   4.388   3.404   2.202 -0.8720  0.9749  0.8675
17913TIP3   OH275153   5.079   6.561  16.402 -0.1279 -0.3806  0.3674
17913TIP3    H175154   5.054   6.535  16.314  2.2695 -0.9354 -0.2034
17913TIP3    H275155   5.104   6.479  16.445  0.5716  0.1074  0.9107
17914TIP3   OH275156   2.413   4.902  12.217  0.1358  0.2248  0.0606
17914TIP3    H175157   2.352   4.888  12.144 -0.0878  2.0111 -0.1047
17914TIP3    H275158   2.398   4.827  12.274 -0.9704 -0.2675 -0.8526
17915TIP3   OH275159   5.957   1.272   4.452  0.0331 -0.0580 -0.0987
17915TIP3    H175160   6.012   1.203   4.416  0.7748  0.4137  0.1118
17915TIP3    H275161   5.906   1.229   4.521  1.9020 -0.0074  1.3868
17916TIP3   OH275162   1.328   3.621  13.084 -0.3278  0.0792  0.3966
17916TIP3    H175163   1.358   3.641  13.173 -1.9750 -0.2423  1.0501
17916TIP3    H275164   1.335   3.526  13.077 -1.8502 -0.0849  0.8308
17917TIP3   OH275165   5.728   4.538   3.925  0.2703 -0.3076  0.2700
17917TIP3    H175166   5.648   4.489   3.902  0.2591  0.5443 -1.5613
17917TIP3    H275167   5.766   4.563   3.841  1.3647  1.0947  1.1638
17918TIP3   OH275168   2.689   6.750  12.059  0.1945 -0.1614 -0.4177
17918TIP3    H175169   2.615   6.760  12.000 -0.8184 -0.1954  0.8276
17918TIP3    H275170   2.662   6.681  12.120  1.6168 -0.8218 -0.5000
17919TIP3   OH275171   5.550   4.813  12.519  0.1864 -0.0042 -0.2400
17919TIP3    H175172   5.518   4.816  12.609  2.2872 -2.4297  0.6469
17919TIP3    H275173   5.498   4.744  12.477 -0.6565  0.9880 -0.8430
17920TIP3   OH275174   6.364   4.098  15.452  0.1637 -0.2833  0.0109
17920TIP3    H175175   6.362   4.186  15.489  1.0776  0.1591 -0.9547
17920TIP3    H275176   6.347   4.110  15.359  1.6093 -0.9737 -0.3576
17921TIP3   OH275177   0.597   2.806   4.211 -0.1456  0.4724 -0.5231
17921TIP3    H175178   0.570   2.794   4.302 -0.0804  0.8528 -0.4552
17921TIP3    H275179   0.540   2.875   4.178 -1.0896 -0.5881 -1.1629
17922TIP3   OH275180   0.490   5.447   2.127  0.4369 -0.4425  0.5235
17922TIP3    H175181   0.407   5.476   2.088  0.4713  0.0376  0.8087
17922TIP3    H275182   0.517   5.372   2.073 -0.2179 -0.6445  0.4709
17923TIP3   OH275183   0.217   3.646   6.051 -0.2137 -0.3127 -0.0204
17923TIP3    H175184   0.221   3.732   6.009  1.3020 -0.2412  0.2336
17923TIP3    H275185   0.129   3.615   6.034 -1.1681  1.8073  0.8826
17924TIP3   OH275186   5.109   1.671   0.420 -0.5482 -0.1224  0.0886
17924TIP3    H175187   5.022   1.646   0.452 -1.0096 -1.1988 -1.9196
17924TIP3    H275188   5.126   1.611   0.347  1.3225  0.9408 -0.3917
17925TIP3   OH275189   3.514   1.059  15.111 -0.4092  0.2253  0.4190
17925TIP3    H175190   3.546   1.139  15.068  0.3537  0.1372  0.8087
17925TIP3    H275191   3.573   1.047  15.186 -1.3221  0.0134  1.1114
17926TIP3   OH275192   2.097   6.542   6.026 -0.3158  0.5705  0.1340
17926TIP3    H175193   2.039   6.511   6.095 -0.1109  1.1126  0.5592
17926TIP3    H275194   2.171   6.581   6.073 -0.1197  0.8453 -0.3947
17927TIP3   OH275195   3.722   2.040   3.464 -0.3614  0.3353  0.2183
17927TIP3    H175196   3.747   2.101   3.533 -1.1542  0.2947  0.5387
17927TIP3    H275197   3.793   1.975   3.462 -1.3162 -0.8101  2.3544
17928TIP3   OH275198   3.449   0.248   4.574  0.0374  0.0000 -0.3481
17928TIP3    H175199   3.355   0.253   4.559  0.2572  1.0706 -1.4820
17928TIP3    H275200   3.476   0.167   4.530 -0.2513  0.0215 -0.5664
17929TIP3   OH275201   3.399   1.926  12.500  0.2165 -0.6059  0.0302
17929TIP3    H175202   3.401   1.836  12.469 -1.3639 -0.1889 -1.3895
17929TIP3    H275203   3.446   1.975  12.432  0.2397 -0.2336  0.3134
17930TIP3   OH275204   1.789   5.682   5.733 -0.4360  0.1545  0.7093
17930TIP3    H175205   1.710   5.727   5.763 -0.6752 -1.1357  2.0706
17930TIP3    H275206   1.810   5.621   5.804  1.2728 -0.1391 -0.0392
17931TIP3   OH275207   5.766   6.139   4.082  0.3373 -0.3627  0.0362
17931TIP3    H175208   5.771   6.084   4.160 -1.6066 -0.8772 -0.1786
17931TIP3    H275209   5.801   6.084   4.011  3.5614  0.6308  0.7440
17932TIP3   OH275210   4.246   3.196  11.818  0.4335  0.0769  0.0709
17932TIP3    H175211   4.339   3.181  11.837  0.7207 -0.2912 -1.5528
17932TIP3    H275212   4.203   3.115  11.844  0.3203  0.8583  2.3935
17933TIP3   OH275213   6.705   5.957  11.062 -0.1871 -0.2402  0.2004
17933TIP3    H175214   6.619   5.944  11.103 -0.8675 -0.1877 -1.2031
17933TIP3    H275215   6.708   5.893  10.991  0.1153  1.1108 -1.0306
17934TIP3   OH275216   6.472   4.362  15.501 -0.2393 -0.1815  0.3558
17934TIP3    H175217   6.502   4.334  15.587  0.0220 -1.1998 -0.0512
17934TIP3    H275218   6.545   4.342  15.442 -0.6257 -0.0268 -0.1901
17935TIP3   OH275219   6.010   4.265  15.417  1.1032 -0.1222 -0.3257
17935TIP3    H175220   6.092   4.309  15.396  1.4234 -0.8869 -0.6849
17935TIP3    H275221   5.943   4.317  15.372  1.8320 -2.0791 -3.8193
17936TIP3   OH275222   5.588   1.398   4.892  0.0519 -0.0657 -0.4191
17936TIP3    H175223   5.505   1.410   4.937  0.5335 -1.0715  0.7634
17936TIP3    H275224   5.652   1.387   4.962  1.1238  0.3170 -1.3206
17937TIP3   OH275225   0.436   6.699   3.015 -0.6793  0.3251  0.3503
17937TIP3    H175226   0.439   6.643   3.093 -1.5787 -1.4494 -0.8569
17937TIP3    H275227   0.344   6.725   3.009 -1.0540 -1.2693 -1.2782
17938TIP3   OH275228   1.527   2.762   1.271  0.0994  0.3306  0.0961
17938TIP3    H175229   1.471   2.802   1.338  1.5439 -0.9500  2.1317
17938TIP3    H275230   1.610   2.747   1.316  1.3737  0.1801 -2.2518
17939TIP3   OH275231   2.303   4.879  13.088  0.0790  0.7434  0.0864
17939TIP3    H175232   2.310   4.885  12.993  0.0718 -0.0265  0.0296
17939TIP3    H275233   2.305   4.785  13.106  1.7292  0.9079  0.9597
17940TIP3   OH275234   4.498   2.882   4.993  0.3852 -0.1159  0.2264
17940TIP3    H175235   4.506   2.950   5.061 -1.3471 -1.8005  2.1653
17940TIP3    H275236   4.446   2.924   4.924  1.5339  1.3621  0.2110
17941TIP3   OH275237   6.335   1.573   0.934  0.2224  0.5286 -0.2316
17941TIP3    H175238   6.372   1.558   1.021  1.1542 -0.0231 -0.7065
17941TIP3    H275239   6.293   1.659   0.939  1.7139  1.2389  0.2956
17942TIP3   OH275240   4.795   0.345   0.692  0.7455 -0.5489 -0.1133
17942TIP3    H175241   4.823   0.412   0.630  1.0168 -0.0037  0.5922
17942TIP3    H275242   4.743   0.284   0.640  0.1618  0.4273 -0.6810
17943TIP3   OH275243   0.568   5.492  16.321 -0.3647  0.6479 -0.2286
17943TIP3    H175244   0.583   5.577  16.279  0.3899  0.3883 -0.4970
17943TIP3    H275245   0.650   5.445  16.310 -0.7356 -0.0741  0.0322
17944TIP3   OH275246   6.099   2.968  12.547 -0.3967  0.2320  0.5128
17944TIP3    H175247   6.014   2.991  12.586 -1.4122  0.6713 -1.8831
17944TIP3    H275248   6.127   3.048  12.502  1.2090  0.0309  1.1458
17945TIP3   OH275249   3.134   4.916  15.469 -0.8597  0.0657  0.0440
17945TIP3    H175250   3.052   4.896  15.424 -2.1086  2.4038  1.1981
17945TIP3    H275251   3.135   4.858  15.545 -2.9579  2.1111  1.6962
17946TIP3   OH275252   3.168   4.846  14.593  0.4617 -0.1371 -0.1981
17946TIP3    H175253   3.139   4.903  14.664 -2.3594 -0.6972 -0.8748
17946TIP3    H275254   3.188   4.763  14.637  0.2731  0.0016  0.1545
17947TIP3   OH275255   3.215   0.111   6.226  0.2356 -0.4640 -0.0410
17947TIP3    H175256   3.253   0.111   6.138  0.8106  0.2029  0.2015
17947TIP3    H275257   3.123   0.134   6.212  0.5357  0.5673 -0.3934
17948TIP3   OH275258   5.292   3.528  13.613 -0.2710 -0.3037 -0.2747
17948TIP3    H175259   5.283   3.465  13.542  2.7519 -0.9030 -0.1803
17948TIP3    H275260   5.333   3.604  13.572  2.6619 -1.1274  1.0543
17949TIP3   OH275261   1.263   0.272   4.658 -0.2067 -0.5438  0.0859
17949TIP3    H175262   1.338   0.273   4.599 -1.5057 -1.9952 -1.6674
17949TIP3    H275263   1.247   0.179   4.674 -0.7620 -0.2029  1.6111
17950TIP3   OH275264   5.763   1.402  15.742 -0.3796  0.3781  0.0475
17950TIP3    H175265   5.856   1.379  15.737 -0.5838 -0.5550  0.5229
17950TIP3    H275266   5.754   1.478  15.684  0.6056  0.2477 -0.2836
17951TIP3   OH275267   2.683   0.722  15.810  0.1360 -0.2456 -0.2365
17951TIP3    H175268   2.769   0.764  15.819 -0.3721  0.7592  0.0768
17951TIP3    H275269   2.689   0.643  15.864  0.3426  0.6503  1.0861
17952TIP3   OH275270   5.946   5.362  11.238  0.2125 -0.2135  0.0970
17952TIP3    H175271   6.023   5.403  11.198 -0.6695  0.5606 -0.8313
17952TIP3    H275272   5.873   5.387  11.181 -0.8447 -0.2832  1.3878
17953TIP3   OH275273   0.644   5.963  13.507 -0.2527 -0.8608  1.1899
17953TIP3    H175274   0.667   5.872  13.486  1.3823 -0.1541 -0.2141
17953TIP3    H275275   0.611   5.998  13.425  0.5256  0.2449  1.3491
17954TIP3   OH275276   1.704   0.343   5.682  0.1117  0.6389 -0.8975
17954TIP3    H175277   1.675   0.384   5.601 -1.0511 -0.5117 -1.0684
17954TIP3    H275278   1.656   0.390   5.751 -0.0459  0.6071 -0.9851
17955TIP3   OH275279   0.772   5.152  16.311 -0.2681 -0.2080 -0.1889
17955TIP3    H175280   0.860   5.133  16.279 -1.2463 -0.0019 -3.0745
17955TIP3    H275281   0.781   5.235  16.358  1.0239 -0.0938 -0.6271
17956TIP3   OH275282   4.558   2.685   6.805  0.3148  0.1882  0.7522
17956TIP3    H175283   4.540   2.624   6.876 -2.0442  0.5059  0.4578
17956TIP3    H275284   4.616   2.636   6.746  0.1044 -1.0337  1.5353
17957TIP3   OH275285   0.446   3.391  15.554 -0.4425 -0.3202  0.5087
17957TIP3    H175286   0.467   3.449  15.481 -1.4758  1.2391  1.4357
17957TIP3    H275287   0.491   3.429  15.629  1.1213 -2.2623  0.5934
17958TIP3   OH275288   3.557   2.265   1.412  0.5314  0.2017 -0.0496
17958TIP3    H175289   3.579   2.196   1.475  0.3313  0.6348  0.4963
17958TIP3    H275290   3.596   2.345   1.450 -0.2698  0.6059 -0.0792
17959TIP3   OH275291   0.231   0.197  17.107 -0.7250 -0.8950  0.4075
17959TIP3    H175292   0.230   0.271  17.047  0.5109 -1.3323 -0.1765
17959TIP3    H275293   0.173   0.132  17.066 -0.8755 -0.7049  0.3207
17960TIP3   OH275294   6.034   5.191  11.475 -0.5162  0.5322 -0.3467
17960TIP3    H175295   6.007   5.271  11.430  0.9580  0.4235 -1.4762
17960TIP3    H275296   6.081   5.141  11.408 -0.7611 -0.9418  0.5525
17961TIP3   OH275297   2.353   4.900   6.349  0.1917  0.3233 -0.2029
17961TIP3    H175298   2.322   4.944   6.270  1.4734 -2.2006 -2.1858
17961TIP3    H275299   2.411   4.964   6.392  0.5366  1.2419 -2.0162
17962TIP3   OH275300   1.479   0.503  16.307  0.4433 -0.2605 -0.4832
17962TIP3    H175301   1.452   0.582  16.259 -0.3311  0.6955  1.4580
17962TIP3    H275302   1.566   0.483  16.273 -0.9182 -0.8875 -3.7996
17963TIP3   OH275303   4.004   5.481  15.490 -0.1333  0.4144  0.0679
17963TIP3    H175304   4.003   5.491  15.586 -0.4002  0.1733  0.0943
17963TIP3    H275305   4.051   5.557  15.458 -0.3076  0.6538  0.3757
17964TIP3   OH275306   4.416   6.786   5.617  0.7537  0.3566  0.5392
17964TIP3    H175307   4.389   6.781   5.709  1.5280  0.5074  0.7795
17964TIP3    H275308   4.480   6.857   5.615  0.4096  0.6485 -0.2019
17965TIP3   OH275309   6.132   1.286  13.713  0.3416  0.1301  0.0003
17965TIP3    H175310   6.082   1.225  13.659  0.3062  0.2009 -0.0467
17965TIP3    H275311   6.075   1.362  13.724  1.4066  1.2964 -2.1788
17966TIP3   OH275312   4.286   6.568  16.389  0.0995  0.0191 -0.3059
17966TIP3    H175313   4.214   6.629  16.375 -0.3095 -0.0524  1.3453
17966TIP3    H275314   4.364   6.614  16.359 -0.1016  1.6712  1.6324
17967TIP3   OH275315   6.599   3.300  16.158  0.4441  0.0665  0.1031
17967TIP3    H175316   6.638   3.373  16.206 -1.0913  2.0805 -1.6275
17967TIP3    H275317   6.553   3.249  16.225  2.6254 -0.1057  1.5363
17968TIP3   OH275318   4.415   3.652  17.026 -0.1006 -0.4890  0.2303
17968TIP3    H175319   4.416   3.695  16.940 -0.4634  0.3969  0.6605
17968TIP3    H275320   4.496   3.680  17.068  0.7268 -1.9859 -0.3216
17969TIP3   OH275321   6.534   5.109   2.444 -0.8112 -0.5145  0.1863
17969TIP3    H175322   6.441   5.116   2.464 -1.0453  0.8447 -1.2697
17969TIP3    H275323   6.537   5.075   2.354  0.0746 -0.0796  0.0417
17970TIP3   OH275324   0.636   1.425  17.009 -0.0373 -0.3418  0.1086
17970TIP3    H175325   0.663   1.373  17.085 -2.2088  0.6333  1.5786
17970TIP3    H275326   0.715   1.475  16.985  1.9329 -3.7782 -0.9717
17971TIP3   OH275327   2.081   2.422  15.037 -0.4613  0.2218 -0.2068
17971TIP3    H175328   2.159   2.446  15.086  0.3274 -0.8235 -0.9466
17971TIP3    H275329   2.009   2.440  15.097  0.3594  0.8601  0.5973
17972TIP3   OH275330   4.348   5.100   1.329 -0.4543 -0.1228 -0.4965
17972TIP3    H175331   4.333   5.113   1.422 -0.0862 -1.2457 -0.2731
17972TIP3    H275332   4.410   5.026   1.324 -0.3623  0.0102 -1.6154
17973TIP3   OH275333   6.210   6.164  13.838 -0.6486 -0.1920 -0.1741
17973TIP3    H175334   6.118   6.188  13.850 -0.4702 -0.4051  1.8508
17973TIP3    H275335   6.255   6.246  13.819 -0.8895  0.2694  1.2258
17974TIP3   OH275336   2.246   4.188   3.379 -0.2214  0.5786 -0.1781
17974TIP3    H175337   2.282   4.129   3.313  1.1325 -0.5099  1.4895
17974TIP3    H275338   2.209   4.260   3.328  0.2708 -0.5006 -2.1470
17975TIP3   OH275339   2.757   4.790   0.392  0.0247 -0.1777 -0.1483
17975TIP3    H175340   2.720   4.830   0.313  0.5402  0.0010 -0.3028
17975TIP3    H275341   2.685   4.739   0.429  0.1841 -1.4374 -1.5249
17976TIP3   OH275342   3.751   3.833   2.745  0.2399 -1.0071 -0.1709
17976TIP3    H175343   3.687   3.762   2.752  0.6426 -1.3526 -0.0020
17976TIP3    H275344   3.709   3.897   2.687  0.1183 -1.6501 -0.8064
17977TIP3   OH275345   4.478   0.390  14.550  0.4443  0.2421  0.2294
17977TIP3    H175346   4.509   0.375  14.461  1.2316  1.5337  0.2752
17977TIP3    H275347   4.428   0.471  14.545 -0.9218 -0.5583  0.6421
17978TIP3   OH275348   6.424   1.234  12.184  0.1543 -0.4982  0.2574
17978TIP3    H175349   6.449   1.320  12.218 -0.3048 -0.8590  1.5382
17978TIP3    H275350   6.329   1.239  12.174  0.4756  0.2112 -2.7472
17979TIP3   OH275351   2.043   3.583  11.354  0.3124  0.4605 -0.3072
17979TIP3    H175352   1.968   3.561  11.298  0.6166  0.7753 -0.8482
17979TIP3    H275353   2.006   3.593  11.441 -0.1434 -0.2405 -0.4151
17980TIP3   OH275354   6.538   3.397   5.928  0.2847  0.0821 -0.3803
17980TIP3    H175355   6.455   3.445   5.928 -0.2668 -0.7615 -2.7564
17980TIP3    H275356   6.548   3.365   6.017 -1.9442  0.2288 -0.0539
17981TIP3   OH275357   1.830   2.697  14.061  0.2459 -0.2581  0.5603
17981TIP3    H175358   1.880   2.739  13.991 -0.4926 -0.1538  0.0829
17981TIP3    H275359   1.756   2.656  14.015  0.5877 -1.4846  1.1070
17982TIP3   OH275360   3.418   1.778   2.760 -0.1237 -0.0720 -0.1032
17982TIP3    H175361   3.467   1.860   2.757  0.2675 -0.2921  0.2720
17982TIP3    H275362   3.459   1.728   2.830 -0.5793 -0.4525 -0.1062
17983TIP3   OH275363   4.075   5.889   3.635 -0.6310 -0.3248 -0.2812
17983TIP3    H175364   3.993   5.851   3.668  0.4134 -2.8091 -0.4355
17983TIP3    H275365   4.124   5.912   3.714 -1.0707  0.2769 -0.1806
17984TIP3   OH275366   0.461   0.479  15.955 -0.0883 -0.0327 -0.3734
17984TIP3    H175367   0.450   0.388  15.925 -0.6606  0.3084 -1.2345
17984TIP3    H275368   0.371   0.510  15.968  0.0116  1.1747 -2.4353
17985TIP3   OH275369   6.720   5.228  16.505  0.1462  0.5216 -0.0170
17985TIP3    H175370   6.772   5.308  16.513 -1.9663  1.9970 -0.8301
17985TIP3    H275371   6.631   5.254  16.527 -0.4452 -1.7669  0.4141
17986TIP3   OH275372   2.505   4.664   2.633 -0.2323 -0.4523 -0.4422
17986TIP3    H175373   2.434   4.613   2.594 -1.2814  0.5893  0.1019
17986TIP3    H275374   2.494   4.753   2.599  0.8307 -0.2786 -0.3815
17987TIP3   OH275375   3.055   5.022  16.381  0.7028  0.5485  0.0279
17987TIP3    H175376   3.079   5.064  16.464 -0.9631  1.4427  0.0805
17987TIP3    H275377   3.076   5.086  16.314 -2.8091  1.9761  0.1829
17988TIP3   OH275378   0.489   4.835   5.959 -0.6559 -0.4494  0.3563
17988TIP3    H175379   0.425   4.773   5.995 -1.2703  0.8273  1.4965
17988TIP3    H275380   0.572   4.787   5.961 -1.4981 -2.0415 -0.9156
17989TIP3   OH275381   3.681   6.087  15.718  0.1099  0.2085 -0.4884
17989TIP3    H175382   3.628   6.116  15.793 -0.3145  0.8004 -1.0082
17989TIP3    H275383   3.737   6.163  15.698  0.2667  0.0290 -0.7375
17990TIP3   OH275384   3.177   5.397  16.808 -0.0007 -0.2089  0.2146
17990TIP3    H175385   3.238   5.386  16.881 -1.3399  0.7426  1.5087
17990TIP3    H275386   3.094   5.419  16.850 -0.9993 -0.5522 -1.5692
17991TIP3   OH275387   0.534   5.047  16.210  0.1338 -0.1280 -0.1391
17991TIP3    H175388   0.469   5.112  16.236  0.3908  0.7514 -1.5833
17991TIP3    H275389   0.618   5.090  16.228  0.3105 -0.7075  0.4213
17992TIP3   OH275390   2.985   4.468  15.284 -0.2331  0.9426 -0.5329
17992TIP3    H175391   2.896   4.484  15.252 -0.1394  1.4676 -0.5351
17992TIP3    H275392   2.980   4.382  15.325 -1.0096  1.4275  0.4219
17993TIP3   OH275393   5.908   3.509  11.507  0.2928  0.0137  0.5376
17993TIP3    H175394   5.875   3.423  11.533 -0.5083 -0.0067 -0.5317
17993TIP3    H275395   5.838   3.570  11.531  0.3654  0.2326  0.1927
17994TIP3   OH275396   4.841   3.955  13.309  0.4385  0.3888 -0.0746
17994TIP3    H175397   4.874   3.889  13.249 -0.3016 -0.6941  0.6943
17994TIP3    H275398   4.868   3.925  13.396 -1.0161  0.4114  0.3983
17995TIP3   OH275399   3.569   1.648   2.965 -0.2304 -0.0946  0.0345
17995TIP3    H175400   3.654   1.683   2.991 -0.3094 -0.9999  1.5676
17995TIP3    H275401   3.577   1.554   2.978 -1.1751 -0.2892 -0.7106
17996TIP3   OH275402   2.347   5.168   0.530 -0.0133 -0.2725  0.3246
17996TIP3    H175403   2.253   5.174   0.551 -0.1913 -1.3638 -0.1426
17996TIP3    H275404   2.351   5.167   0.435  0.4463 -0.6799  0.3457
17997TIP3   OH275405   2.644   0.702   5.851 -0.2926 -0.4548 -0.3348
17997TIP3    H175406   2.611   0.725   5.764 -1.7531 -0.2406  0.2686
17997TIP3    H275407   2.670   0.610   5.843  2.4001  0.3594 -1.8088
17998TIP3   OH275408   3.214   6.585  14.773  0.2891 -0.0044 -0.4757
17998TIP3    H175409   3.228   6.510  14.832 -0.0459  0.6069  0.3974
17998TIP3    H275410   3.263   6.656  14.814 -0.9342  0.7362 -0.3141
17999TIP3   OH275411   1.307   4.144  15.549  0.3217 -0.1035  0.6203
17999TIP3    H175412   1.322   4.053  15.573 -2.0142 -0.6179  0.2408
17999TIP3    H275413   1.336   4.150  15.457 -2.5850 -1.3220 -0.4245
18000TIP3   OH275414   1.460   3.919  12.199 -0.3819 -0.0678 -0.2230
18000TIP3    H175415   1.434   3.839  12.244 -1.1606 -0.2071 -0.9079
18000TIP3    H275416   1.508   3.888  12.121 -0.2348  0.1457 -0.2187
18001TIP3   OH275417   1.736   2.485   1.945 -0.5503 -0.7347  0.0531
18001TIP3    H175418   1.716   2.456   1.855 -0.4072 -2.0035  0.4286
18001TIP3    H275419   1.677   2.560   1.958  0.3075  0.2516 -1.5365
18002TIP3   OH275420   3.759   2.154   0.278  0.0417 -0.1942 -0.3163
18002TIP3    H175421   3.708   2.074   0.286 -0.6854  0.3213  0.2160
18002TIP3    H275422   3.775   2.162   0.184 -0.3763 -0.6476 -0.4295
18003TIP3   OH275423   1.540   5.494  16.552 -0.2877  0.1970  0.0291
18003TIP3    H175424   1.500   5.454  16.475 -0.7491  1.1454 -0.2330
18003TIP3    H275425   1.487   5.573  16.568  0.0474  0.2153  1.0740
18004TIP3   OH275426   3.389   4.653  15.089  0.0163 -0.1100 -0.4466
18004TIP3    H175427   3.317   4.593  15.069  0.8085 -1.5981  1.0731
18004TIP3    H275428   3.465   4.614  15.044  0.8690 -1.1375  1.8140
18005TIP3   OH275429   2.018   4.370   4.360 -0.2899 -0.4130  0.2176
18005TIP3    H175430   1.944   4.355   4.418  1.0027 -2.1547  1.4613
18005TIP3    H275431   2.095   4.371   4.417  0.4893  3.5554 -0.7649
18006TIP3   OH275432   6.017   1.006   2.604 -0.1743  0.0744  0.0373
18006TIP3    H175433   6.111   1.016   2.617 -0.4044 -0.0741  1.9913
18006TIP3    H275434   6.009   0.931   2.544  0.9222 -0.7639  0.9093
18007TIP3   OH275435   2.951   3.361  16.579  0.3233 -0.1606 -0.5779
18007TIP3    H175436   2.974   3.452  16.562  1.6982 -0.5926 -1.0511
18007TIP3    H275437   2.951   3.319  16.493 -1.7097 -0.3027 -0.5323
18008TIP3   OH275438   3.391   4.084  16.870  0.1573 -0.0241 -0.2453
18008TIP3    H175439   3.435   4.080  16.954 -0.7349  1.8840  0.3444
18008TIP3    H275440   3.436   4.154  16.822 -0.2831 -0.1093 -0.7941
18009TIP3   OH275441   5.000   3.420   3.849 -0.1448 -0.2326 -0.2043
18009TIP3    H175442   5.034   3.420   3.759 -0.7766  0.2295 -0.4532
18009TIP3    H275443   5.006   3.512   3.876  0.6999 -0.4848  0.4866
18010TIP3   OH275444   5.016   1.784   3.044 -0.5399  0.1120 -0.3230
18010TIP3    H175445   5.022   1.876   3.021  0.8103  0.1502  0.0996
18010TIP3    H275446   5.104   1.749   3.026 -1.0717 -1.1125 -0.6088
18011TIP3   OH275447   2.556   6.687   2.870 -0.1855 -0.4519  0.6668
18011TIP3    H175448   2.599   6.762   2.910  1.0019 -0.1175 -1.1714
18011TIP3    H275449   2.584   6.612   2.922  0.2985  0.1212  1.2348
18012TIP3   OH275450   5.419   2.932  12.275  0.2418 -0.0869 -0.0861
18012TIP3    H175451   5.355   2.996  12.305  0.9987 -0.4933  2.4905
18012TIP3    H275452   5.502   2.979  12.273  0.4613 -0.4684 -0.0743
18013TIP3   OH275453   5.694   0.291   0.993  0.6630 -0.0667  0.2781
18013TIP3    H175454   5.755   0.217   0.992  0.5174 -0.1830  0.1261
18013TIP3    H275455   5.619   0.262   0.941 -0.0781 -0.3993  1.4876
18014TIP3   OH275456   6.477   5.778  15.730  0.2721 -0.2071 -0.1419
18014TIP3    H175457   6.552   5.736  15.688 -0.9106 -0.2901 -2.2064
18014TIP3    H275458   6.483   5.870  15.702 -0.6960 -0.3264 -0.7520
18015TIP3   OH275459   0.181   5.959   3.971 -0.4111  0.2260 -0.1164
18015TIP3    H175460   0.085   5.959   3.975 -0.3545 -0.1769  1.2718
18015TIP3    H275461   0.208   6.019   4.040  0.2968  2.4213 -2.2319
18016TIP3   OH275462   1.634   1.252  16.697  0.2335  0.3778  0.0669
18016TIP3    H175463   1.654   1.208  16.615 -0.6913 -0.0152  0.0539
18016TIP3    H275464   1.623   1.344  16.673 -0.5006  0.1905 -0.3241
18017TIP3   OH275465   0.439   5.313   2.565  0.6803  0.6042 -0.2917
18017TIP3    H175466   0.384   5.262   2.625  1.3178 -0.1156 -0.3151
18017TIP3    H275467   0.423   5.274   2.479 -1.1427  2.3916 -0.8094
18018TIP3   OH275468   0.693   0.372  16.523 -0.8359 -0.4333 -0.2106
18018TIP3    H175469   0.730   0.291  16.558 -0.2969  0.0273  0.2925
18018TIP3    H275470   0.627   0.397  16.587 -0.2545  0.0980  0.1866
18019TIP3   OH275471   0.525   0.719   3.559 -0.2677 -0.2243  0.0560
18019TIP3    H175472   0.611   0.736   3.519  1.0208  0.0090  2.7940
18019TIP3    H275473   0.485   0.806   3.566 -0.4517 -0.2519 -0.5574
18020TIP3   OH275474   5.089   1.913  12.815 -0.5228 -0.2264  0.1728
18020TIP3    H175475   5.122   1.940  12.729 -1.4764  0.3172 -0.0249
18020TIP3    H275476   4.993   1.918  12.807 -0.6019  0.4490  1.4693
18021TIP3   OH275477   6.555   5.387   2.160 -0.1933 -0.1655 -0.4831
18021TIP3    H175478   6.646   5.385   2.130  0.3643  0.9744  1.0733
18021TIP3    H275479   6.519   5.302   2.135  1.6636 -1.1249  0.0379
18022TIP3   OH275480   4.151   2.452   2.420  0.5867 -0.1100  0.3193
18022TIP3    H175481   4.122   2.450   2.511  1.1230  1.0335  0.5261
18022TIP3    H275482   4.072   2.433   2.370  0.0231  0.4124  0.9851
18023TIP3   OH275483   5.959   2.329   1.834  0.2910 -0.5038 -0.3583
18023TIP3    H175484   5.947   2.411   1.882  0.6723 -1.2585  1.0706
18023TIP3    H275485   5.925   2.346   1.747  0.8268  1.3238 -0.2144
18024TIP3   OH275486   0.711   5.482  15.011  0.1534  0.3017 -0.3779
18024TIP3    H175487   0.618   5.484  14.989 -0.1964  0.3065  1.0355
18024TIP3    H275488   0.748   5.559  14.966 -0.7228  0.8792 -0.1218
18025TIP3   OH275489   0.630   2.129   2.306  0.4325 -0.7209 -0.1800
18025TIP3    H175490   0.566   2.072   2.263  1.1281 -0.9512 -0.9160
18025TIP3    H275491   0.705   2.072   2.325 -0.0432 -0.7379  1.7914
18026TIP3   OH275492   1.653   2.065  11.007 -0.1978 -0.3587  0.7211
18026TIP3    H175493   1.600   2.024  10.938  0.4530 -1.6739  0.9857
18026TIP3    H275494   1.600   2.056  11.086  0.0530 -0.9346  0.8286
18027TIP3   OH275495   0.930   4.704   1.689  0.1932 -0.0266  0.0722
18027TIP3    H175496   0.923   4.688   1.783 -0.6466 -0.9053 -0.1280
18027TIP3    H275497   0.854   4.660   1.652 -0.1468  1.3499 -0.8993
18028TIP3   OH275498   4.556   6.703  15.352 -0.2740  0.1973 -0.4032
18028TIP3    H175499   4.584   6.747  15.432 -1.7223  1.7804 -0.7337
18028TIP3    H275500   4.637   6.673  15.312  0.6885  1.6695  0.3838
18029TIP3   OH275501   6.774   5.093  15.637 -0.8030  0.3664  0.6303
18029TIP3    H175502   6.685   5.058  15.635 -1.2296  1.3444  1.4963
18029TIP3    H275503   6.820   5.039  15.702 -0.9195  0.1867  0.5600
18030TIP3   OH275504   6.733   1.644   0.503 -0.5350 -0.4030  0.0134
18030TIP3    H175505   6.649   1.636   0.459 -2.1563 -4.0859  3.4073
18030TIP3    H275506   6.774   1.558   0.490  2.0868  0.8395 -0.2914
18031TIP3   OH275507   5.777   1.529   3.259 -0.0906 -0.9963  0.0088
18031TIP3    H175508   5.803   1.538   3.350 -1.9499 -2.1276  0.6913
18031TIP3    H275509   5.711   1.597   3.246 -0.5178 -1.4515 -0.2188
18032TIP3   OH275510   4.385   3.158  15.385 -0.0242 -0.5463  0.0337
18032TIP3    H175511   4.306   3.177  15.334  0.5282 -0.0059 -0.6344
18032TIP3    H275512   4.354   3.145  15.474 -0.5925  2.2611  0.2848
18033TIP3   OH275513   4.349   1.200  15.825  0.4396 -0.6667  0.3992
18033TIP3    H175514   4.365   1.215  15.918  0.9508 -0.8161  0.3393
18033TIP3    H275515   4.339   1.105  15.817 -0.1028 -0.6117  0.3744
18034TIP3   OH275516   3.121   5.916  11.045  0.6683 -0.6833  0.6864
18034TIP3    H175517   3.163   5.916  10.959 -0.8641  0.5573 -0.0982
18034TIP3    H275518   3.123   5.825  11.073  2.7055 -0.8370  0.1089
18035TIP3   OH275519   4.000   0.514  15.460  0.2873 -0.4692 -0.3454
18035TIP3    H175520   4.070   0.517  15.395  1.5711 -3.1129  0.8646
18035TIP3    H275521   4.036   0.558  15.536 -0.6278  1.1530 -0.8120
18036TIP3   OH275522   2.016   2.771   1.636  0.1491 -0.0763  0.3893
18036TIP3    H175523   1.997   2.763   1.729  0.9147 -0.9171  0.4743
18036TIP3    H275524   2.040   2.863   1.625  0.7025 -0.1212  1.1477
18037TIP3   OH275525   2.736   3.326  11.901  0.2393  0.2894  0.1162
18037TIP3    H175526   2.728   3.235  11.872  0.4175  0.3517 -0.1361
18037TIP3    H275527   2.647   3.353  11.921 -0.0307  0.5855 -1.4279
18038TIP3   OH275528   1.216   3.879   5.557  0.0285  0.5746  0.0115
18038TIP3    H175529   1.213   3.915   5.469 -0.3566 -0.4734 -0.4185
18038TIP3    H275530   1.144   3.816   5.559  0.4401  0.1240  0.8655
18039TIP3   OH275531   3.012   3.412  16.068  0.7909 -0.0103  0.4570
18039TIP3    H175532   3.081   3.477  16.083  1.6170 -0.8756  0.4379
18039TIP3    H275533   2.992   3.418  15.975 -0.9785  2.0350  0.9389
18040TIP3   OH275534   0.380   5.087   1.100 -0.4336 -0.2324  0.0199
18040TIP3    H175535   0.290   5.076   1.132  0.4671  0.4914  3.0010
18040TIP3    H275536   0.434   5.077   1.179  2.0687 -0.3321 -1.6751
18041TIP3   OH275537   2.961   5.350   3.819 -0.6499 -0.1254  0.1109
18041TIP3    H175538   3.015   5.326   3.743 -1.0323  1.1428 -0.5765
18041TIP3    H275539   3.021   5.344   3.893 -0.2186 -1.1898 -0.3054
18042TIP3   OH275540   5.851   2.946  11.474  0.1527  0.0108 -0.8800
18042TIP3    H175541   5.861   2.950  11.379 -0.5296 -0.3870 -0.9712
18042TIP3    H275542   5.758   2.961  11.489  0.2480  0.0083 -0.2767
18043TIP3   OH275543   4.157   2.150   5.562  0.0109 -0.0359 -0.0386
18043TIP3    H175544   4.161   2.245   5.557 -1.8370  0.0284 -0.6043
18043TIP3    H275545   4.164   2.130   5.655  1.9845  0.5468 -0.0398
18044TIP3   OH275546   2.699   3.686  10.752  0.3670  0.1246 -0.1718
18044TIP3    H175547   2.643   3.667  10.677 -0.5362 -1.9768  1.0088
18044TIP3    H275548   2.771   3.623  10.745  1.2469  1.1151 -0.2522
18045TIP3   OH275549   4.606   1.904   2.858 -0.3575  0.0090  0.0703
18045TIP3    H175550   4.604   1.882   2.765 -1.1282  0.1896  0.0480
18045TIP3    H275551   4.659   1.834   2.897 -0.3400 -0.2714 -0.4470
18046TIP3   OH275552   5.245   4.640  11.051  0.0268 -0.3444  0.3847
18046TIP3    H175553   5.333   4.643  11.089  0.0372 -1.7342  0.4781
18046TIP3    H275554   5.213   4.730  11.059  0.9270 -0.1124  1.5816
18047TIP3   OH275555   0.710   4.660  15.935 -0.0148 -0.2677 -0.0655
18047TIP3    H175556   0.744   4.750  15.933 -0.4599 -0.1164 -1.1611
18047TIP3    H275557   0.653   4.658  16.011  1.9837 -0.3588  1.4756
18048TIP3   OH275558   5.062   3.263  11.854  0.1321  0.1815 -0.1768
18048TIP3    H175559   5.086   3.346  11.896 -0.8863  0.5677 -0.3486
18048TIP3    H275560   5.099   3.270  11.765  2.0414 -0.5195  0.5389
18049TIP3   OH275561   3.382   4.213  12.467 -0.5329  0.2988 -0.2987
18049TIP3    H175562   3.474   4.230  12.489 -0.9933  1.8105  0.5783
18049TIP3    H275563   3.357   4.289  12.413 -0.9311 -0.7108 -1.5492
18050TIP3   OH275564   3.392   6.175   3.770  0.0229  0.2535  0.1913
18050TIP3    H175565   3.340   6.243   3.813 -0.0619  0.5484 -0.3716
18050TIP3    H275566   3.481   6.188   3.804 -0.4131 -0.7579  1.7670
18051TIP3   OH275567   1.313   0.999   1.241  0.4754 -0.5387 -0.1038
18051TIP3    H175568   1.309   1.094   1.232  0.5145 -0.5854 -0.6196
18051TIP3    H275569   1.403   0.982   1.271  0.5956 -0.4471 -0.4143
18052TIP3   OH275570   5.150   3.609  16.967 -0.2085  0.0125 -0.1843
18052TIP3    H175571   5.209   3.684  16.978 -0.5430  0.7345 -2.9849
18052TIP3    H275572   5.111   3.597  17.053  2.7992  0.5416  1.3219
18053TIP3   OH275573   4.938   2.167   1.074 -0.1632 -0.6339  0.1137
18053TIP3    H175574   5.007   2.181   1.140  0.1594 -0.0730 -0.3412
18053TIP3    H275575   4.981   2.186   0.991 -1.1048  0.5713 -0.1037
18054TIP3   OH275576   6.692   1.632   5.609 -0.0942  0.2480  0.3146
18054TIP3    H175577   6.776   1.651   5.649 -1.3667  2.9868  1.8378
18054TIP3    H275578   6.698   1.669   5.520  0.2577  0.6029  0.4868
18055TIP3   OH275579   5.750   4.380   1.550  0.1424 -0.2138  0.0083
18055TIP3    H175580   5.686   4.440   1.587 -1.6787 -2.1572  0.1173
18055TIP3    H275581   5.811   4.363   1.622 -1.5992 -1.5454  1.2162
18056TIP3   OH275582   4.764   1.045  13.413 -0.0903 -0.2753  0.1987
18056TIP3    H175583   4.758   1.140  13.417 -1.9221 -0.2440 -1.9585
18056TIP3    H275584   4.851   1.027  13.378  0.9460  0.5049  2.2787
18057TIP3   OH275585   0.357   0.227  12.445  0.7242 -0.0466  0.2596
18057TIP3    H175586   0.301   0.252  12.372 -0.5904  0.2426  1.3559
18057TIP3    H275587   0.312   0.153  12.486  2.9468 -2.1649 -0.9825
18058TIP3   OH275588   3.574   1.035  15.780  0.5314  0.4022 -0.2128
18058TIP3    H175589   3.526   0.959  15.812 -1.0737  1.6343  0.3908
18058TIP3    H275590   3.618   1.070  15.857  0.5615  0.5876 -0.3134
18059TIP3   OH275591   0.076   0.545   4.649 -0.4533  0.1422  0.4727
18059TIP3    H175592   0.161   0.513   4.678 -1.0191 -0.4093  1.5418
18059TIP3    H275593   0.052   0.612   4.713 -0.5540  0.7306 -0.1684
18060TIP3   OH275594   5.271   1.524   2.248 -0.4499  0.1611 -0.2847
18060TIP3    H175595   5.366   1.512   2.256 -0.7392 -0.6760  2.1434
18060TIP3    H275596   5.252   1.601   2.301 -1.2070  0.0483 -0.3927
18061TIP3   OH275597   1.866   1.967  15.396  0.0881  0.1905  0.1926
18061TIP3    H175598   1.869   1.958  15.301 -0.9268 -1.6197  0.3245
18061TIP3    H275599   1.957   1.975  15.423  0.2928  2.7398 -1.0942
18062TIP3   OH275600   5.764   6.473  10.526  0.8687 -0.2889 -0.5701
18062TIP3    H175601   5.722   6.420  10.458  0.2086 -2.1840  1.2650
18062TIP3    H275602   5.837   6.420  10.557  0.9345  0.3940  0.4731
18063TIP3   OH275603   6.072   3.539  12.635 -0.0997 -0.1308  0.2160
18063TIP3    H175604   6.062   3.525  12.729 -0.3775 -1.6346 -0.0316
18063TIP3    H275605   5.984   3.557  12.604 -0.3566 -1.9440 -0.1247
18064TIP3   OH275606   1.957   5.823  12.016  0.2588  0.9264 -0.3142
18064TIP3    H175607   1.864   5.843  12.031 -0.7538 -0.4221 -4.1238
18064TIP3    H275608   1.964   5.729  12.033  1.2660  1.2890  1.3380
18065TIP3   OH275609   0.578   1.739  10.938  0.6517 -0.9715 -0.4107
18065TIP3    H175610   0.544   1.651  10.924  0.6372 -1.0936  0.3771
18065TIP3    H275611   0.671   1.732  10.917  0.4858 -0.9687 -1.1756
18066TIP3   OH275612   3.755   4.979   2.210  0.6956  0.2436 -0.1113
18066TIP3    H175613   3.693   4.927   2.261  0.7485  2.5054  2.3878
18066TIP3    H275614   3.774   4.926   2.133 -1.6247 -2.0217  0.8218
18067TIP3   OH275615   3.340   0.531  11.076  0.3358  0.0967 -0.8141
18067TIP3    H175616   3.346   0.471  11.003 -0.1732  0.2993 -1.0236
18067TIP3    H275617   3.360   0.617  11.039  0.4038  0.1538 -0.6507
18068TIP3   OH275618   5.284   3.890   3.929 -0.0430 -0.2577  1.0061
18068TIP3    H175619   5.226   3.897   4.005 -0.9740 -1.3059  0.3986
18068TIP3    H275620   5.227   3.867   3.856  0.8143  0.9187 -0.0761
18069TIP3   OH275621   4.638   4.252  11.452  0.1846 -0.7283  0.0137
18069TIP3    H175622   4.575   4.266  11.382  0.8502  1.2980 -0.2215
18069TIP3    H275623   4.701   4.324  11.443  1.0362 -1.1902  1.8686
18070TIP3   OH275624   5.368   0.210   4.728 -0.1363 -0.0001 -0.4024
18070TIP3    H175625   5.280   0.210   4.767  0.4059  1.2414  0.8610
18070TIP3    H275626   5.426   0.186   4.801  0.8096  1.4980 -0.6604
18071TIP3   OH275627   1.827   1.806   0.868  0.0307  0.1034 -0.1531
18071TIP3    H175628   1.829   1.819   0.773 -1.9189  0.1904 -0.2007
18071TIP3    H275629   1.777   1.725   0.880  1.1104 -0.4308  0.7624
18072TIP3   OH275630   4.173   0.062   5.333  0.3258 -0.5060  0.1484
18072TIP3    H175631   4.118  -0.016   5.331 -0.5801  0.1454 -0.2852
18072TIP3    H275632   4.176   0.086   5.426 -1.8313  0.6512 -0.0458
18073TIP3   OH275633   5.990   1.888   4.637 -0.1937 -0.2619  0.2067
18073TIP3    H175634   5.916   1.827   4.629 -0.9409  0.6330  0.1050
18073TIP3    H275635   6.006   1.894   4.732  0.8803 -1.7708  0.1326
18074TIP3   OH275636   3.332   0.548   2.635 -0.1623  0.1058  0.5778
18074TIP3    H175637   3.293   0.463   2.653 -1.6196  0.2373 -1.6979
18074TIP3    H275638   3.422   0.528   2.609 -0.0857 -0.6075  1.3566
18075TIP3   OH275639   0.280   0.055  14.867 -0.6979  0.0228  0.1687
18075TIP3    H175640   0.216   0.007  14.920 -0.9440 -0.7782 -0.8403
18075TIP3    H275641   0.333  -0.013  14.826  0.8728  0.6760  1.0437
18076TIP3   OH275642   5.616   4.367  10.574  0.5647  0.0005  0.6041
18076TIP3    H175643   5.655   4.451  10.550 -1.9408  0.7955 -0.8253
18076TIP3    H275644   5.522   4.384  10.578 -0.0950 -2.9820 -0.7834
18077TIP3   OH275645   2.633   2.072  14.892 -0.0752  0.0794 -0.0720
18077TIP3    H175646   2.595   2.109  14.972 -0.3946  0.7447 -0.5254
18077TIP3    H275647   2.591   1.987  14.883  0.1127 -0.0908  0.5779
18078TIP3   OH275648   4.714   0.186   5.905 -0.3123  0.4502 -0.0437
18078TIP3    H175649   4.776   0.187   5.978 -2.3561 -1.1417  1.7934
18078TIP3    H275650   4.741   0.112   5.851  0.3582  0.7722 -0.1595
18079TIP3   OH275651   5.117   4.852   1.904 -0.0649  0.5656  0.3757
18079TIP3    H175652   5.142   4.934   1.861 -0.1814  0.8855  0.9169
18079TIP3    H275653   5.049   4.815   1.848  1.4337 -0.1908 -0.9939
18080TIP3   OH275654   2.390   3.550   0.490  0.1794 -0.0131  0.1516
18080TIP3    H175655   2.364   3.515   0.405  0.6634 -1.8731  0.7588
18080TIP3    H275656   2.413   3.641   0.472 -1.4994  0.1475 -1.3674
18081TIP3   OH275657   5.624   2.698   1.403  0.2135 -0.7442  0.0444
18081TIP3    H175658   5.563   2.664   1.469  0.2893 -0.1196  0.4352
18081TIP3    H275659   5.569   2.722   1.329 -0.1024  0.5223  0.6797
18082TIP3   OH275660   3.547   2.898   6.022  0.0826  0.7509  0.8693
18082TIP3    H175661   3.457   2.866   6.013  1.4080 -3.1204  0.3321
18082TIP3    H275662   3.566   2.888   6.116  0.3465  0.3302  0.7750
18083TIP3   OH275663   4.639   0.730  12.711  0.0002  0.2573  0.0034
18083TIP3    H175664   4.559   0.782  12.719  0.6279  1.2346 -0.0157
18083TIP3    H275665   4.608   0.640  12.701 -1.0436  0.3096  2.5318
18084TIP3   OH275666   6.307   2.968   1.104 -0.6195 -0.0418 -0.4179
18084TIP3    H175667   6.383   3.026   1.113 -0.9311  0.2772  0.2156
18084TIP3    H275668   6.330   2.909   1.033  0.1212  0.2140 -0.3961
18085TIP3   OH275669   6.329   3.616   6.543 -0.3361  0.2384  0.1290
18085TIP3    H175670   6.291   3.678   6.480  1.3625 -0.2997 -1.4695
18085TIP3    H275671   6.414   3.654   6.565  0.7455 -1.5433 -0.9170
18086TIP3   OH275672   6.447   5.806  16.473  0.1427  0.8776 -0.6758
18086TIP3    H175673   6.404   5.777  16.392 -1.5840  3.4891 -0.7925
18086TIP3    H275674   6.381   5.790  16.541  0.8266  0.5201 -0.1002
18087TIP3   OH275675   0.950   5.671  15.833  0.8453 -0.1924 -0.3682
18087TIP3    H175676   0.993   5.721  15.902  0.2711 -0.9963  0.5831
18087TIP3    H275677   0.993   5.699  15.752  1.7199  0.5392  0.3463
18088TIP3   OH275678   0.485   1.593  11.676 -0.5678 -0.1828  0.4129
18088TIP3    H175679   0.437   1.632  11.749  1.6843  1.9091  0.8311
18088TIP3    H275680   0.460   1.647  11.600 -1.3091 -1.0717  0.0187
18089TIP3   OH275681   5.601   4.531  11.695  0.2833  0.6115  0.0842
18089TIP3    H175682   5.635   4.541  11.784 -0.7149  1.6671  0.3630
18089TIP3    H275683   5.517   4.486  11.706  0.8885 -0.6933 -0.4786
18090TIP3   OH275684   3.128   0.749   3.791  0.1625 -0.2464 -0.0100
18090TIP3    H175685   3.120   0.759   3.886 -0.3646  2.7454 -0.3340
18090TIP3    H275686   3.117   0.837   3.756 -1.0411 -1.4926 -2.9665
18091TIP3   OH275687   0.708   2.377  13.384  0.0422 -0.2565  0.7096
18091TIP3    H175688   0.631   2.335  13.346 -0.3581 -0.0770  1.3154
18091TIP3    H275689   0.752   2.418  13.310  1.7270 -3.6670 -0.2924
18092TIP3   OH275690   0.025   3.953   5.705  0.0921 -0.2220 -0.1103
18092TIP3    H175691  -0.009   3.880   5.654 -0.6937 -0.2890  0.5084
18092TIP3    H275692   0.085   3.912   5.768 -0.0398 -0.2883 -0.0282
18093TIP3   OH275693   2.728   4.649   4.697  0.2547 -0.3029 -0.1345
18093TIP3    H175694   2.796   4.716   4.706  1.1185 -1.3171  1.1493
18093TIP3    H275695   2.750   4.584   4.763 -0.6527 -1.7854 -1.2515
18094TIP3   OH275696   3.034   1.824   3.430 -0.0968  0.0591 -0.2675
18094TIP3    H175697   2.950   1.864   3.406 -0.2523  0.1817  0.4642
18094TIP3    H275698   3.010   1.746   3.481  0.1541 -2.0877 -3.3229
18095TIP3   OH275699   6.559   2.619  16.863 -1.0502 -0.4350  0.4625
18095TIP3    H175700   6.630   2.567  16.900 -1.3660 -0.1841  1.4238
18095TIP3    H275701   6.507   2.557  16.812 -0.0592 -0.5891 -0.3858
18096TIP3   OH275702   3.952   0.081  16.139  0.0058 -0.3824 -0.1980
18096TIP3    H175703   4.045   0.103  16.131 -0.1137 -0.4108 -1.9132
18096TIP3    H275704   3.906   0.161  16.111 -0.4927 -0.3449  0.7039
18097TIP3   OH275705   3.967   3.508   2.570  0.2047 -0.1114  0.2676
18097TIP3    H175706   3.975   3.593   2.612 -0.3225  0.3314 -0.5233
18097TIP3    H275707   3.872   3.491   2.568  0.2300 -0.1448 -0.6995
18098TIP3   OH275708   5.020   0.760  15.012  0.1181 -0.3099  0.2042
18098TIP3    H175709   5.040   0.853  15.000 -0.9019 -0.1852 -0.5466
18098TIP3    H275710   5.106   0.718  15.016  0.5872  0.6504  0.4548
18099TIP3   OH275711   3.258   4.141  15.927 -0.1983 -0.7304 -0.1479
18099TIP3    H175712   3.179   4.190  15.952  0.0627 -0.9234  1.0821
18099TIP3    H275713   3.322   4.209  15.907  0.1791 -0.5457  1.6085
18100TIP3   OH275714   6.441   6.060  16.216 -0.0130 -0.1024  0.6356
18100TIP3    H175715   6.534   6.062  16.197  0.1793  0.2906  1.6014
18100TIP3    H275716   6.402   6.121  16.154  0.2778 -0.7873 -0.2401
18101TIP3   OH275717   5.545   0.801  13.553  0.0074 -0.1770 -0.3067
18101TIP3    H175718   5.560   0.807  13.459 -1.9182 -0.1823 -0.6386
18101TIP3    H275719   5.482   0.871  13.572  1.6098  0.8771  1.2651
18102TIP3   OH275720   6.564   0.317  14.134  0.3664 -0.2016 -0.0805
18102TIP3    H175721   6.534   0.392  14.083  1.0730  1.4037  1.7907
18102TIP3    H275722   6.651   0.298  14.101 -0.0713 -0.6193 -1.0001
18103TIP3   OH275723   1.268   4.096  13.009  0.3558  0.1153 -0.5264
18103TIP3    H175724   1.199   4.147  13.051  0.4137 -0.4140  0.2248
18103TIP3    H275725   1.349   4.131  13.047  0.4491  0.0886 -0.7003
18104TIP3   OH275726   2.725   0.543   3.628  0.2237  0.0220  0.5048
18104TIP3    H175727   2.663   0.616   3.631 -0.3837 -0.5455  2.1734
18104TIP3    H275728   2.811   0.584   3.624 -0.1485  0.8303  0.8259
18105TIP3   OH275729   4.102   0.989  14.827 -0.7698 -0.9143  0.4350
18105TIP3    H175730   4.177   1.031  14.868 -0.1305 -1.4373 -0.1890
18105TIP3    H275731   4.089   1.037  14.746 -0.6714 -1.2684  0.2076
18106TIP3   OH275732   3.366   0.863  16.836  0.2323 -0.3269 -0.0240
18106TIP3    H175733   3.305   0.878  16.909  0.8974  0.0515  0.4537
18106TIP3    H275734   3.401   0.776  16.852 -0.8397 -0.9128 -0.7823
18107TIP3   OH275735   4.837   0.648   5.110  0.4418  0.2564 -0.1781
18107TIP3    H175736   4.883   0.714   5.057  0.3277 -0.8406 -1.6901
18107TIP3    H275737   4.897   0.574   5.114  0.3580  0.2573  1.0768
18108TIP3   OH275738   1.914   5.735   3.803 -0.2796  0.4106  0.3365
18108TIP3    H175739   1.932   5.825   3.831  0.1134 -0.1439  1.8946
18108TIP3    H275740   1.997   5.705   3.766 -0.1568  0.3988  0.6189
18109TIP3   OH275741   6.197   4.532   6.052  0.2269  0.8410 -0.0022
18109TIP3    H175742   6.187   4.601   5.987 -0.1239 -0.3180 -1.2057
18109TIP3    H275743   6.271   4.480   6.021  0.5909  0.7573  0.9735
18110TIP3   OH275744   2.542   3.252  16.455 -0.0615  0.0357  0.7675
18110TIP3    H175745   2.614   3.233  16.395 -1.0167 -1.5026  0.0848
18110TIP3    H275746   2.526   3.346  16.444 -0.0548 -0.1735 -1.2155
18111TIP3   OH275747   5.374   2.434  12.871 -0.1188 -0.4735  0.1986
18111TIP3    H175748   5.324   2.420  12.951 -0.9634 -0.8299 -0.3963
18111TIP3    H275749   5.309   2.438  12.801  0.2026  3.7617 -0.0315
18112TIP3   OH275750   5.458   1.665   5.995  0.5574 -0.3543 -0.3300
18112TIP3    H175751   5.453   1.610   6.073 -0.6640 -0.9056 -0.7900
18112TIP3    H275752   5.507   1.612   5.932  0.8993 -0.2079 -0.1887
18113TIP3   OH275753   3.625   4.674  14.853  0.1948  0.3141  0.2355
18113TIP3    H175754   3.674   4.654  14.773  0.4585  0.1578  0.4339
18113TIP3    H275755   3.686   4.727  14.905 -0.2400  1.0279  0.0200
18114TIP3   OH275756   3.796   6.669  15.536 -0.3886 -0.2830 -0.5467
18114TIP3    H175757   3.821   6.724  15.462 -0.7468  1.1339  0.3635
18114TIP3    H275758   3.710   6.634  15.513 -0.6756  0.4736 -0.6398
18115TIP3   OH275759   1.188   0.065  10.906  0.5257 -0.0842 -0.0248
18115TIP3    H175760   1.248   0.098  10.972  0.6814 -0.3515 -0.0303
18115TIP3    H275761   1.144   0.143  10.871  1.7370  0.2234 -0.8697
18116TIP3   OH275762   0.687   2.099   2.980  0.3563 -0.3092  0.8008
18116TIP3    H175763   0.714   2.122   2.891 -0.5447  0.0643  0.6173
18116TIP3    H275764   0.613   2.039   2.968  1.2213 -1.4809  1.2916
18117TIP3   OH275765   0.652   2.135  15.511  0.1486 -0.3001 -0.0925
18117TIP3    H175766   0.568   2.140  15.467  0.1607  3.3107  0.1685
18117TIP3    H275767   0.716   2.135  15.440  0.0111 -0.2852 -0.2175
18118TIP3   OH275768   3.934   1.716  15.077 -0.6111  0.1837 -0.1926
18118TIP3    H175769   3.962   1.805  15.055  0.4497 -0.5348 -1.8444
18118TIP3    H275770   4.013   1.674  15.112 -0.6319 -0.6469 -1.1270
18119TIP3   OH275771   5.889   0.512  15.494  0.1317 -0.5564 -0.3230
18119TIP3    H175772   5.814   0.461  15.464  1.1184 -1.6872 -0.9117
18119TIP3    H275773   5.867   0.537  15.584 -0.6865 -1.3861 -0.2949
18120TIP3   OH275774   4.655   3.054   5.896 -0.0043 -0.1566 -0.7343
18120TIP3    H175775   4.736   3.079   5.852 -0.9816  3.0897 -0.8399
18120TIP3    H275776   4.675   3.061   5.989  0.3745 -1.2194 -0.7346
18121TIP3   OH275777   2.287   4.229   5.571 -0.0747 -0.3946  0.5720
18121TIP3    H175778   2.224   4.158   5.567 -1.5853  0.9673 -0.4259
18121TIP3    H275779   2.287   4.258   5.662  0.0941 -1.2707  0.8466
18122TIP3   OH275780   4.720   3.797  14.316 -0.5982 -0.4273  0.8922
18122TIP3    H175781   4.766   3.830  14.239  0.5399 -2.9747  0.4379
18122TIP3    H275782   4.727   3.868  14.380  1.4946  0.3706 -0.1615
18123TIP3   OH275783   3.796   2.863  13.496 -0.3155 -0.2580 -0.0095
18123TIP3    H175784   3.750   2.864  13.412 -1.2751 -1.5957  0.4888
18123TIP3    H275785   3.785   2.952  13.530  1.3369  0.7211 -1.9435
18124TIP3   OH275786   0.046   3.467   6.258 -0.0968 -0.3018 -0.2590
18124TIP3    H175787   0.018   3.537   6.317 -0.0008 -0.4838  0.0016
18124TIP3    H275788   0.141   3.470   6.261 -0.0918 -0.7223  0.0826
18125TIP3   OH275789   4.552   5.389  11.000  0.3137 -0.2821  0.1764
18125TIP3    H175790   4.493   5.465  11.003  0.6472 -0.0543  0.9944
18125TIP3    H275791   4.546   5.359  10.910 -0.0370  0.5506 -0.0901
18126TIP3   OH275792   4.297   0.812   2.685 -0.3463 -0.0782 -0.7534
18126TIP3    H175793   4.205   0.818   2.662 -0.5346 -0.2266 -0.0404
18126TIP3    H275794   4.341   0.874   2.625 -0.9427  0.2370 -0.8657
18127TIP3   OH275795   0.384   6.247   4.825 -0.5154  0.1802  0.1268
18127TIP3    H175796   0.296   6.271   4.796  0.2791  1.7346 -1.0062
18127TIP3    H275797   0.436   6.242   4.745  1.3666  3.1658  1.0815
18128TIP3   OH275798   5.227   2.290   2.704 -0.6681  0.2351  0.1983
18128TIP3    H175799   5.313   2.327   2.684  0.7138 -3.4335 -1.0283
18128TIP3    H275800   5.223   2.290   2.800 -0.2489  2.4780  0.2323
18129TIP3   OH275801   6.216   3.501  14.354  0.0042 -0.5676  0.0960
18129TIP3    H175802   6.129   3.534  14.332  0.2768 -0.9290 -1.6518
18129TIP3    H275803   6.272   3.578  14.359  0.0516 -0.5133 -1.1260
18130TIP3   OH275804   3.298   2.495   5.826 -0.3286  0.2816 -0.4112
18130TIP3    H175805   3.311   2.416   5.878 -0.8204 -0.1344 -0.9076
18130TIP3    H275806   3.372   2.495   5.766 -0.4590  0.0562 -0.5772
18131TIP3   OH275807   3.837   0.578  14.224  0.6804 -0.0834 -0.3624
18131TIP3    H175808   3.861   0.489  14.196  0.3530 -0.2863 -0.0005
18131TIP3    H275809   3.771   0.565  14.292  0.9614  0.4279  0.0130
18132TIP3   OH275810   0.696   1.893   2.550 -0.5296  0.0454 -0.3454
18132TIP3    H175811   0.665   1.802   2.545 -0.5211  0.0818 -1.0739
18132TIP3    H275812   0.759   1.901   2.479  1.3183 -0.0758  1.2531
18133TIP3   OH275813   3.516   0.939  11.404  0.6534 -0.5601 -0.3126
18133TIP3    H175814   3.603   0.911  11.374  1.3157 -0.0787  1.1084
18133TIP3    H275815   3.463   0.942  11.324  1.9096 -0.9639 -1.1807
18134TIP3   OH275816   4.958   6.641  13.603  0.7888 -0.3733 -0.4779
18134TIP3    H175817   4.986   6.671  13.517  0.3402  1.5510  0.0358
18134TIP3    H275818   5.040   6.633  13.653  0.9111  0.0116 -0.6145
18135TIP3   OH275819   5.162   0.075  15.731  0.0214 -0.2419  0.2799
18135TIP3    H175820   5.214   0.092  15.653 -1.2270 -0.8368 -0.6971
18135TIP3    H275821   5.209   0.121  15.801  1.6081 -0.4107 -0.6467
18136TIP3   OH275822   4.924   0.542  15.559  0.6814  0.6343 -0.0772
18136TIP3    H175823   4.957   0.630  15.576 -0.1886  1.0973 -0.7079
18136TIP3    H275824   4.974   0.511  15.484  0.7753  0.7179 -0.0492
18137TIP3   OH275825   5.790   6.093   1.437 -0.5342  0.1584 -0.0788
18137TIP3    H175826   5.847   6.135   1.373  2.9858 -0.0424  2.7836
18137TIP3    H275827   5.708   6.142   1.433  0.0618  0.9430 -3.7547
18138TIP3   OH275828   4.917   3.364   1.996  0.2590  0.3416 -0.1420
18138TIP3    H175829   4.956   3.451   2.003  0.2643  0.3184  0.1410
18138TIP3    H275830   4.953   3.328   1.915  0.1745  0.6424 -0.3130
18139TIP3   OH275831   0.872   4.408  14.399  0.2829  0.8908 -0.0065
18139TIP3    H175832   0.908   4.449  14.320 -0.7237 -0.1292 -1.0258
18139TIP3    H275833   0.784   4.380  14.373 -0.9235  2.5035  2.1353
18140TIP3   OH275834   6.741   3.801  12.559  0.6012  0.0248 -0.6743
18140TIP3    H175835   6.721   3.797  12.652 -0.5147  2.6196 -0.7653
18140TIP3    H275836   6.836   3.814  12.555  0.5430  0.6486  0.1070
18141TIP3   OH275837   4.871   2.465   2.413  0.2150 -0.1395  0.3432
18141TIP3    H175838   4.900   2.457   2.322  1.7898 -1.7308  0.9485
18141TIP3    H275839   4.809   2.538   2.413  1.7773  1.2235 -1.6175
18142TIP3   OH275840   4.999   0.873  11.474 -0.1283  0.0144  0.5012
18142TIP3    H175841   4.912   0.846  11.445 -0.6239  0.6676  1.3458
18142TIP3    H275842   5.046   0.891  11.393 -1.6124  2.1808  0.0659
18143TIP3   OH275843   5.964   4.659   2.509  0.2964  0.3293  0.1151
18143TIP3    H175844   5.966   4.584   2.450 -0.2362 -0.2120  0.7767
18143TIP3    H275845   5.880   4.702   2.491  0.3112  0.3896  0.1889
18144TIP3   OH275846   5.205   1.230  12.320 -0.5449 -0.1766 -0.0619
18144TIP3    H175847   5.137   1.188  12.373 -1.3623  2.3771  0.9614
18144TIP3    H275848   5.163   1.248  12.236  0.0266 -2.0049 -0.7661
18145TIP3   OH275849   2.522   5.580   5.010  0.1683  0.6930  0.4477
18145TIP3    H175850   2.427   5.577   5.018  0.2045  1.1467  1.0232
18145TIP3    H275851   2.552   5.497   5.047 -0.1264 -0.3874 -1.6194
18146TIP3   OH275852   6.450   4.878   2.773 -0.1810  0.6394  0.6065
18146TIP3    H175853   6.442   4.792   2.814 -0.1001 -0.1551 -1.0434
18146TIP3    H275854   6.384   4.932   2.819 -1.7393 -0.8527  0.1813
18147TIP3   OH275855   6.469   0.643  13.221 -0.0165  0.1993  0.0966
18147TIP3    H175856   6.540   0.616  13.163 -0.1106 -1.3984  0.6835
18147TIP3    H275857   6.414   0.700  13.168 -0.4293 -1.7235 -1.5853
18148TIP3   OH275858   0.946   0.202   3.449 -0.1028  0.4151 -0.1119
18148TIP3    H175859   0.878   0.135   3.433 -1.1965  0.9292  2.2323
18148TIP3    H275860   1.027   0.152   3.455 -0.6264 -0.4896 -0.3921
18149TIP3   OH275861   0.774   0.791  12.445 -0.3027  0.0053 -0.0876
18149TIP3    H175862   0.771   0.862  12.380 -0.5342  0.7846  0.7604
18149TIP3    H275863   0.834   0.823  12.512 -0.6986 -0.4471  0.4824
18150TIP3   OH275864   0.718   6.652   0.066  0.0344  0.0086 -0.0191
18150TIP3    H175865   0.803   6.628   0.030 -0.0052  0.3592 -0.3539
18150TIP3    H275866   0.657   6.645  -0.008 -0.2297 -0.2522  0.2206
18151TIP3   OH275867   5.569   5.644  12.885 -0.1466 -0.3358  0.1151
18151TIP3    H175868   5.625   5.693  12.825  0.3909 -2.3886 -1.1397
18151TIP3    H275869   5.524   5.581  12.829 -1.7511 -0.4323  1.4831
18152TIP3   OH275870   1.231   6.673   4.554  0.5350 -0.1178 -0.0337
18152TIP3    H175871   1.156   6.613   4.554 -0.3461  0.9359  1.0166
18152TIP3    H275872   1.295   6.632   4.496  0.3012 -2.4726  1.3138
18153TIP3   OH275873   2.259   1.149  11.054  0.0238 -0.3324 -0.4519
18153TIP3    H175874   2.235   1.070  11.102 -2.0388  0.2085 -0.5474
18153TIP3    H275875   2.208   1.145  10.974  0.1880  0.9156 -0.6286
18154TIP3   OH275876   4.146   4.219   1.323 -0.0173  0.2987 -0.0284
18154TIP3    H175877   4.109   4.153   1.382  1.3173  2.4767  3.4069
18154TIP3    H275878   4.240   4.200   1.322  0.0888  0.8556 -0.7278
18155TIP3   OH275879   4.662   5.396   2.639 -0.0172 -0.1038  0.4731
18155TIP3    H175880   4.581   5.441   2.615  0.1452 -0.2333 -0.3178
18155TIP3    H275881   4.725   5.421   2.571  0.6476  0.0872  1.1395
18156TIP3   OH275882   1.647   1.921  11.303  0.0915  0.0220 -0.7132
18156TIP3    H175883   1.571   1.973  11.275 -0.1335 -0.8175 -1.6874
18156TIP3    H275884   1.614   1.865  11.373 -0.4486 -1.0581 -1.8141
18157TIP3   OH275885   2.929   4.404   2.938 -0.1893 -0.1454  0.0972
18157TIP3    H175886   2.868   4.331   2.948 -0.9911  0.5585  0.4092
18157TIP3    H275887   3.002   4.381   2.995 -0.4757 -0.6682  0.2613
18158TIP3   OH275888   3.332   0.630   3.626  0.0731  0.0621  0.1811
18158TIP3    H175889   3.407   0.571   3.618  0.0338  0.1629 -1.0134
18158TIP3    H275890   3.296   0.611   3.713  0.5790 -1.0619  0.1561
18159TIP3   OH275891   2.520   1.792   4.270  0.1186  0.4297 -0.3219
18159TIP3    H175892   2.526   1.697   4.275 -0.8845  0.2992 -1.4004
18159TIP3    H275893   2.582   1.816   4.201  0.9135  0.6279  0.4570
18160TIP3   OH275894   0.684   6.326   2.379  0.1372 -0.5502 -0.3568
18160TIP3    H175895   0.732   6.368   2.451  0.4871  1.0517 -1.4867
18160TIP3    H275896   0.680   6.234   2.403 -1.3048  0.2179  2.5695
18161TIP3   OH275897   5.498   4.748  10.924 -0.1473 -0.2724  0.0877
18161TIP3    H175898   5.460   4.664  10.898 -1.2428  0.3969 -0.5165
18161TIP3    H275899   5.591   4.739  10.906 -0.1005 -1.6921  0.9122
18162TIP3   OH275900   2.349   0.385   2.377 -0.1871  0.3640  0.3746
18162TIP3    H175901   2.436   0.413   2.349 -0.6675  0.8193 -0.6836
18162TIP3    H275902   2.309   0.464   2.413  0.0472  0.0177  1.4134
18163TIP3   OH275903   1.503   5.692  14.066 -0.5666  0.2444 -0.4868
18163TIP3    H175904   1.585   5.693  14.115 -0.3285 -0.2226 -0.8759
18163TIP3    H275905   1.529   5.677  13.975 -1.0306  0.7569 -0.7099
18164TIP3   OH275906   5.037   0.494   1.662  0.2453 -0.5472  0.3469
18164TIP3    H175907   5.093   0.521   1.735  0.7794  0.5388 -0.4361
18164TIP3    H275908   4.968   0.442   1.702 -0.0351  0.8598  1.7620
18165TIP3   OH275909   6.340   5.996   2.673  0.7425  0.6996 -0.3918
18165TIP3    H175910   6.349   5.901   2.667  0.2663  0.7271 -1.5520
18165TIP3    H275911   6.367   6.016   2.763  0.8689 -0.5246 -0.1407
18166TIP3   OH275912   3.436   5.314   0.125  0.0961 -0.1525 -0.3029
18166TIP3    H175913   3.491   5.294   0.049  0.2638 -1.3060  0.1143
18166TIP3    H275914   3.479   5.270   0.198 -0.8675 -0.2611  0.2031
18167TIP3   OH275915   4.444   4.349  15.290 -0.1477 -0.1244  0.1502
18167TIP3    H175916   4.411   4.423  15.341 -1.8342 -1.9888  1.8315
18167TIP3    H275917   4.530   4.329  15.329 -0.0707  0.3935  0.2452
18168TIP3   OH275918   4.314   3.229  10.693 -0.0486  0.2199 -0.1038
18168TIP3    H175919   4.282   3.297  10.633 -0.5494  0.1840  0.1238
18168TIP3    H275920   4.390   3.192  10.648 -1.1331 -0.6282 -1.2882
18169TIP3   OH275921   5.341   6.653  11.443 -0.5776  0.1509  0.3821
18169TIP3    H175922   5.377   6.572  11.477  0.9857  0.3174 -0.8116
18169TIP3    H275923   5.276   6.625  11.378 -1.6981 -0.1421  1.6132
18170TIP3   OH275924   6.530   2.808   4.246  0.1550  0.5293  0.0888
18170TIP3    H175925   6.549   2.744   4.177  0.1116 -0.7277  1.2276
18170TIP3    H275926   6.435   2.807   4.254  0.1472  0.8167  0.0519
18171TIP3   OH275927   4.464   1.072   2.123  0.0891  0.3022 -0.1511
18171TIP3    H175928   4.457   0.987   2.166 -1.4467 -0.4683 -1.8573
18171TIP3    H275929   4.537   1.063   2.062  0.1245  0.3099 -0.1096
18172TIP3   OH275930   4.622   1.456   0.918 -0.0523 -0.5662 -0.0264
18172TIP3    H175931   4.576   1.451   1.002  1.3986 -0.0977  0.8134
18172TIP3    H275932   4.643   1.365   0.897 -2.2072 -0.8788 -0.9097
18173TIP3   OH275933   4.767   0.628   3.234 -0.6456  0.1705  0.1050
18173TIP3    H175934   4.779   0.620   3.139 -0.0794 -0.1960  0.2100
18173TIP3    H275935   4.828   0.697   3.260 -1.6966  1.1527  0.0164
18174TIP3   OH275936   2.450   6.616   5.603  0.0720  0.4345 -0.7965
18174TIP3    H175937   2.375   6.611   5.662  0.1062  1.3938 -0.6597
18174TIP3    H275938   2.498   6.534   5.618 -1.1500 -0.3561 -1.1687
18175TIP3   OH275939   0.181   5.396  15.633  0.3486  0.4942  0.6160
18175TIP3    H175940   0.143   5.405  15.720  1.0528  2.9521  0.7037
18175TIP3    H275941   0.274   5.379  15.648  0.1653 -0.7829  0.3518
18176TIP3   OH275942   1.559   0.835  15.929 -0.1398 -0.3119 -0.1200
18176TIP3    H175943   1.652   0.817  15.919 -0.0208  0.5512 -0.6271
18176TIP3    H275944   1.547   0.921  15.889 -0.8962  0.2084  1.1914
18177TIP3   OH275945   2.031   5.296  13.282 -0.3564 -0.0680  0.6292
18177TIP3    H175946   2.002   5.387  13.276  0.0826  0.0597  0.4877
18177TIP3    H275947   2.096   5.286  13.213 -2.0550 -1.1082 -0.8749
18178TIP3   OH275948   2.768   5.181  15.058 -0.1395 -0.7773 -0.0561
18178TIP3    H175949   2.697   5.231  15.097 -0.2576 -0.4021 -0.7357
18178TIP3    H275950   2.751   5.091  15.084 -0.6518 -0.6390  0.1030
18179TIP3   OH275951   1.608   5.921   0.446 -0.5869  0.3233  0.2392
18179TIP3    H175952   1.697   5.888   0.433 -1.6300 -2.1508 -0.7101
18179TIP3    H275953   1.579   5.947   0.359 -0.8356  1.1256  0.5509
18180TIP3   OH275954   2.325   6.707   0.417  0.5057  0.1062  0.2019
18180TIP3    H175955   2.266   6.646   0.373  0.7137 -0.2985  0.4779
18180TIP3    H275956   2.365   6.655   0.487 -0.0493  0.8121  1.0537
18181TIP3   OH275957   2.258   2.847  12.763 -0.0688  0.1274 -0.4201
18181TIP3    H175958   2.208   2.898  12.700  1.3103  0.9647 -0.8730
18181TIP3    H275959   2.195   2.825  12.832 -0.8229  2.0338 -0.4533
18182TIP3   OH275960   3.542   3.182   3.673 -0.3570 -0.1183  0.2317
18182TIP3    H175961   3.634   3.155   3.680 -0.1329  0.5718  0.0239
18182TIP3    H275962   3.527   3.187   3.578 -0.5765 -0.1291  0.2677
18183TIP3   OH275963   1.841   3.146   5.153 -0.1894 -0.2059 -0.1377
18183TIP3    H175964   1.787   3.093   5.094  0.4299 -1.0321  0.0252
18183TIP3    H275965   1.904   3.189   5.095 -0.5331  0.1678 -0.2407
18184TIP3   OH275966   6.456   1.514   3.288 -0.3268  0.0519  0.7770
18184TIP3    H175967   6.450   1.598   3.333 -0.4151 -0.0088  0.8809
18184TIP3    H275968   6.459   1.449   3.359  0.2529 -0.0025  0.7082
18185TIP3   OH275969   3.743   6.353   1.638  0.3867 -0.6272 -0.1570
18185TIP3    H175970   3.675   6.372   1.702 -0.3792  0.0058 -1.1340
18185TIP3    H275971   3.820   6.402   1.668  0.0990 -0.5233  0.4008
18186TIP3   OH275972   0.814   6.571   0.574  0.1324  0.2399  0.0480
18186TIP3    H175973   0.772   6.547   0.657  0.6102 -0.4473  0.0895
18186TIP3    H275974   0.744   6.613   0.524 -0.4711 -0.4273  0.3222
18187TIP3   OH275975   6.754   4.398   4.102 -0.0325 -0.3638  0.0946
18187TIP3    H175976   6.728   4.450   4.178 -0.1078  0.7497 -0.6838
18187TIP3    H275977   6.723   4.449   4.026  0.9286 -0.9613 -0.7130
18188TIP3   OH275978   5.926   6.071   5.081  0.4023 -0.1834 -0.1270
18188TIP3    H175979   5.940   6.091   5.173  1.5027  0.5852 -0.4481
18188TIP3    H275980   5.864   6.137   5.051  0.0378 -0.4387  0.0584
18189TIP3   OH275981   6.140   6.495   6.052  0.3039 -0.3406 -0.1323
18189TIP3    H175982   6.203   6.449   6.108  1.5188 -0.4996 -1.6055
18189TIP3    H275983   6.193   6.535   5.984 -1.1820 -0.4306 -1.3683
18190TIP3   OH275984   2.573   0.241   3.047 -0.4046 -0.2987  0.3958
18190TIP3    H175985   2.553   0.154   3.083  1.3047 -0.9315 -0.1390
18190TIP3    H275986   2.567   0.230   2.953 -1.7335  0.5665  0.3757
18191TIP3   OH275987   5.073   2.060  15.702  0.2509  0.5567  0.0412
18191TIP3    H175988   5.033   2.140  15.738 -0.8012  0.4014 -0.7529
18191TIP3    H275989   5.153   2.090  15.660  0.7144  0.9548  1.1775
18192TIP3   OH275990   3.979   3.082   1.388  0.5316  0.3540  0.2059
18192TIP3    H175991   4.034   3.147   1.346  0.7304  0.5103  0.7062
18192TIP3    H275992   4.025   2.999   1.375  1.5324  0.6533  1.7145
18193TIP3   OH275993   4.647   4.847  15.361 -0.0467 -0.1486 -0.4384
18193TIP3    H175994   4.600   4.923  15.327 -1.0163 -0.3386  0.4257
18193TIP3    H275995   4.722   4.837  15.303 -0.8265  0.4432 -1.5837
18194TIP3   OH275996   2.316   2.552  14.452 -0.3096  0.6859  0.1157
18194TIP3    H175997   2.366   2.568  14.372  1.6870  1.8916  1.5536
18194TIP3    H275998   2.329   2.459  14.471 -0.0012  0.6150 -0.4421
18195TIP3   OH275999   2.384   6.742  14.315 -0.1082  0.2067 -0.0652
18195TIP3    H176000   2.304   6.690  14.319  1.2483 -1.8791  0.5348
18195TIP3    H276001   2.392   6.780  14.403  0.0629 -0.3430  0.1571
18196TIP3   OH276002   2.928   3.661   0.943 -0.3791  0.3707  0.0598
18196TIP3    H176003   2.916   3.616   1.027 -1.6476  1.1310  0.3016
18196TIP3    H276004   2.902   3.751   0.961 -1.3518  0.3851 -1.3341
18197TIP3   OH276005   4.985   0.504  13.854 -0.2587  0.4761 -0.1007
18197TIP3    H176006   5.064   0.521  13.804 -0.3838  0.1398 -0.4158
18197TIP3    H276007   4.983   0.573  13.921  0.7271  0.0018  0.4275
18198TIP3   OH276008   3.654   2.371   5.083 -0.9226  0.0575 -0.3983
18198TIP3    H176009   3.669   2.281   5.053 -0.8226  0.0471 -0.3183
18198TIP3    H276010   3.735   2.418   5.062 -0.9157  0.0905 -0.2989
18199TIP3   OH276011   2.300   1.229   5.459  0.1301 -0.4260 -0.1928
18199TIP3    H176012   2.241   1.171   5.507  0.8337 -0.2767  0.8815
18199TIP3    H276013   2.385   1.215   5.500  0.1980  1.7661  0.4698
18200TIP3   OH276014   1.057   2.605   2.180  0.5715  0.1069 -0.2657
18200TIP3    H176015   1.136   2.634   2.134  1.2447 -0.4492  0.5319
18200TIP3    H276016   1.028   2.528   2.131  0.6053  0.2168 -0.4620
18201TIP3   OH276017   0.652   4.743  11.786 -0.5439 -0.1292  0.2042
18201TIP3    H176018   0.699   4.698  11.857 -0.0778 -1.1657 -0.7522
18201TIP3    H276019   0.633   4.674  11.722  0.4938  1.1073 -1.4650
18202TIP3   OH276020   1.485   6.267  17.237 -0.0221  0.2196 -0.1444
18202TIP3    H176021   1.442   6.189  17.271 -0.0469  0.3748  0.1754
18202TIP3    H276022   1.517   6.241  17.151 -1.8424  0.4788 -0.9170
18203TIP3   OH276023   0.133   3.911  11.685  0.8683 -0.2843  0.4661
18203TIP3    H176024   0.140   3.827  11.730 -1.0050 -0.6160  0.1749
18203TIP3    H276025   0.201   3.965  11.724  2.7587 -2.2205  0.0006
18204TIP3   OH276026   2.458   4.595   5.379  0.1409 -0.2038  0.0195
18204TIP3    H176027   2.459   4.623   5.470  0.2752  2.0744 -0.6699
18204TIP3    H276028   2.373   4.624   5.345 -0.0870 -1.4103 -0.5010
18205TIP3   OH276029   5.973   1.983  13.568  0.0597 -0.4632  0.1626
18205TIP3    H176030   5.904   1.975  13.502 -0.4660 -0.8695  0.7604
18205TIP3    H276031   6.052   2.002  13.518 -0.5791  0.5104 -0.4959
18206TIP3   OH276032   3.649   4.514  16.745 -0.6649 -0.7574  0.0947
18206TIP3    H176033   3.741   4.514  16.718 -0.1761 -0.5650  1.7088
18206TIP3    H276034   3.610   4.587  16.697  0.5140  0.4768  0.9609
18207TIP3   OH276035   2.333   3.440   6.008 -0.3175  0.1494  0.3006
18207TIP3    H176036   2.252   3.400   6.039  0.1531 -0.7871  0.3293
18207TIP3    H276037   2.372   3.480   6.086  1.1385 -2.6632  1.0735
18208TIP3   OH276038   3.603   1.328   3.378 -0.5310  0.2282 -0.4515
18208TIP3    H176039   3.667   1.257   3.365 -0.2342  0.8904 -2.9160
18208TIP3    H276040   3.530   1.287   3.423  0.6966 -1.0648  0.4075
18209TIP3   OH276041   4.317   4.744  16.197  0.2757  0.1416  0.2114
18209TIP3    H176042   4.359   4.827  16.172 -0.9551  0.1513 -1.9049
18209TIP3    H276043   4.388   4.679  16.191  1.0280  0.8781  0.9819
18210TIP3   OH276044   1.863   2.373  13.192  0.2938 -0.0336  0.0625
18210TIP3    H176045   1.906   2.423  13.261  0.3043 -0.5244  0.4170
18210TIP3    H276046   1.850   2.286  13.230  2.1627 -0.9322 -1.2786
18211TIP3   OH276047   2.943   4.561  12.110  0.0860 -0.2965  0.3644
18211TIP3    H176048   3.032   4.561  12.076  0.2332 -0.9557  0.7230
18211TIP3    H276049   2.907   4.647  12.087  0.3356 -0.5627 -1.0140
18212TIP3   OH276050   2.340   5.182  12.327 -0.3554 -0.0146 -0.1373
18212TIP3    H176051   2.401   5.132  12.272 -1.0317  0.8649 -1.7276
18212TIP3    H276052   2.254   5.143  12.308 -0.3458 -1.0827  1.9042
18213TIP3   OH276053   5.795   2.585  12.054  0.4843  0.2864 -0.0248
18213TIP3    H176054   5.712   2.538  12.059  0.8352 -0.4177 -0.6806
18213TIP3    H276055   5.772   2.677  12.069 -0.6332  0.2921 -1.6377
18214TIP3   OH276056   5.772   1.233  10.642 -0.0458  0.7660  0.3532
18214TIP3    H176057   5.835   1.161  10.633  1.4595  2.0723  0.3006
18214TIP3    H276058   5.737   1.222  10.730 -0.2676 -0.3852  0.1307
18215TIP3   OH276059   3.169   3.968   4.393  0.5949 -0.0865 -0.2328
18215TIP3    H176060   3.246   3.915   4.375  0.5596 -0.1381 -0.2338
18215TIP3    H276061   3.102   3.934   4.333  1.0352  1.0255 -1.3820
18216TIP3   OH276062   0.651   5.979   2.924 -0.0540  0.0409  0.5227
18216TIP3    H176063   0.684   5.963   2.835 -2.2744 -0.3391 -0.2616
18216TIP3    H276064   0.703   5.920   2.979  2.3470  1.3216 -0.2895
18217TIP3   OH276065   2.583   4.163   2.507  0.2585 -0.3334 -0.0443
18217TIP3    H176066   2.619   4.123   2.428  0.1570  1.1933 -0.8856
18217TIP3    H276067   2.591   4.258   2.492 -0.4628 -0.0192  1.4413
18218TIP3   OH276068   6.229   2.664  14.913  0.0366  0.0044 -0.4561
18218TIP3    H176069   6.227   2.733  14.979 -1.8186 -0.9563  0.5407
18218TIP3    H276070   6.194   2.705  14.834 -3.3994 -0.3900  0.7837
18219TIP3   OH276071   6.781   0.009   1.739  0.1123 -0.0651  0.1902
18219TIP3    H176072   6.793  -0.049   1.814  0.9148  1.0296  0.9201
18219TIP3    H276073   6.861   0.061   1.734 -0.2562  0.4336 -0.9396
18220TIP3   OH276074   1.290   6.363  15.972 -0.0187 -0.2821 -0.0413
18220TIP3    H176075   1.262   6.298  15.908  0.6050 -0.7874  0.2024
18220TIP3    H276076   1.209   6.401  16.005 -0.3564 -0.3032 -0.8335
18221TIP3   OH276077   2.756   5.026   5.372  0.4359 -0.4385 -0.0637
18221TIP3    H176078   2.672   5.056   5.407 -0.2738 -2.3009 -0.1274
18221TIP3    H276079   2.822   5.073   5.423 -0.6061 -1.6238  2.4382
18222TIP3   OH276080   4.486   0.995  14.851  0.8472 -0.0824  0.1860
18222TIP3    H176081   4.437   1.058  14.903 -0.8431 -0.2477 -1.1645
18222TIP3    H276082   4.503   1.040  14.768  2.5510 -0.2157  0.4355
18223TIP3   OH276083   3.384   2.987  11.821 -0.6344  0.0901  0.3654
18223TIP3    H176084   3.409   2.904  11.860  0.8828 -0.0905 -0.9488
18223TIP3    H276085   3.331   2.963  11.745 -0.3626  0.3355  0.0989
18224TIP3   OH276086   3.727   4.079  11.412  0.2470 -0.2899  0.0819
18224TIP3    H176087   3.814   4.094  11.373  0.2440 -0.9924 -0.2056
18224TIP3    H276088   3.688   4.012  11.356  0.7046 -2.2048  1.9917
18225TIP3   OH276089   6.034   1.383  11.751 -0.5613 -0.4995 -0.7460
18225TIP3    H176090   5.959   1.442  11.755 -0.0880  0.2673 -2.6464
18225TIP3    H276091   6.012   1.313  11.813 -0.8584  1.9397  1.9984
18226TIP3   OH276092   2.190   4.383   4.571 -0.1271  0.6385 -0.2307
18226TIP3    H176093   2.166   4.366   4.662 -0.0434  0.4894 -0.2356
18226TIP3    H276094   2.280   4.350   4.563  0.4959  2.2152  0.0762
18227TIP3   OH276095   3.215   2.538  11.517  0.8691  0.0283  0.0182
18227TIP3    H176096   3.273   2.588  11.460 -2.0204  0.7648 -2.4232
18227TIP3    H276097   3.192   2.460  11.467  0.5580 -0.7538  1.3523
18228TIP3   OH276098   3.505   1.900   3.668 -0.1642 -0.1012  0.9513
18228TIP3    H176099   3.567   1.936   3.605 -1.9441 -0.7411 -1.2124
18228TIP3    H276100   3.508   1.805   3.654 -0.5043 -0.2563  1.8857
18229TIP3   OH276101   4.908   1.416  15.774  0.6615 -0.1727  0.1077
18229TIP3    H176102   4.875   1.376  15.693  1.3419 -2.5099  0.9342
18229TIP3    H276103   4.829   1.444  15.820  0.2828  1.4094 -1.4697
18230TIP3   OH276104   3.930   4.493  14.889  0.6199  0.2800  0.3638
18230TIP3    H176105   3.973   4.420  14.845  1.4385 -0.2368  1.9865
18230TIP3    H276106   3.973   4.571  14.853  0.4812 -0.0702 -0.5828
18231TIP3   OH276107   0.378   4.266  13.586 -0.6311 -0.0655 -0.1483
18231TIP3    H176108   0.285   4.267  13.606 -0.7852 -0.8510 -0.8045
18231TIP3    H276109   0.400   4.173  13.579  0.2151  0.1091  0.0790
18232TIP3   OH276110   4.658   1.435   3.988  0.0524  0.3845  0.1398
18232TIP3    H176111   4.717   1.359   3.990 -1.8229 -1.1078 -0.3471
18232TIP3    H276112   4.649   1.460   4.080  0.1281 -0.4306  0.3767
18233TIP3   OH276113   4.353   0.932   5.856 -0.0149 -0.4528  0.1597
18233TIP3    H176114   4.315   0.930   5.944  1.1434  1.2004  0.7401
18233TIP3    H276115   4.310   1.006   5.814  1.2539  0.3388  0.2256
18234TIP3   OH276116   3.687   6.263   5.891  0.0509  0.0566  0.0211
18234TIP3    H176117   3.673   6.317   5.969 -1.1626 -0.2933  0.0543
18234TIP3    H276118   3.706   6.176   5.925  0.6677  0.1566 -0.0585
18235TIP3   OH276119   0.087   4.287  10.672 -0.1730 -0.1844 -0.5585
18235TIP3    H176120   0.119   4.267  10.584 -0.2614  1.1677 -0.9086
18235TIP3    H276121   0.165   4.286  10.727 -0.1056 -0.9346 -0.6587
18236TIP3   OH276122   4.923   1.109  16.768  0.1767  0.3360 -0.0210
18236TIP3    H176123   4.859   1.108  16.839 -1.2498  0.3367 -1.2821
18236TIP3    H276124   4.967   1.024  16.774 -0.2340  0.1674  0.6042
18237TIP3   OH276125   4.754   0.225  13.182 -0.1419  0.0255  0.2934
18237TIP3    H176126   4.673   0.275  13.189 -0.4622 -0.3620 -0.5896
18237TIP3    H276127   4.820   0.289  13.156 -0.3533  0.1598  0.0932
18238TIP3   OH276128   5.301   0.634   2.986 -0.3550  0.6515 -0.0391
18238TIP3    H176129   5.364   0.634   3.058  0.3042 -0.7525 -0.6003
18238TIP3    H276130   5.354   0.635   2.907 -1.0805  2.1876 -0.5145
18239TIP3   OH276131   1.169   4.898   2.551 -0.1751  0.7391  0.7892
18239TIP3    H176132   1.243   4.853   2.509 -0.7793 -0.3976  0.9207
18239TIP3    H276133   1.208   4.972   2.596  0.3034  3.2103 -3.4122
18240TIP3   OH276134   6.679   5.393  13.912 -0.5804 -0.1736  0.1170
18240TIP3    H176135   6.661   5.438  13.995 -2.7349 -1.9666  0.6829
18240TIP3    H276136   6.754   5.337  13.932  0.2783  1.0015  0.2307
18241TIP3   OH276137   3.650   1.607   0.487 -0.3561 -0.3752  0.1547
18241TIP3    H176138   3.675   1.515   0.482  0.1963 -0.2498  0.5210
18241TIP3    H276139   3.612   1.627   0.401 -1.9059 -1.3454  0.5968
18242TIP3   OH276140   6.241   6.366  16.803  0.1599 -0.0800  0.0108
18242TIP3    H176141   6.330   6.350  16.772  0.1891 -1.0125  0.5386
18242TIP3    H276142   6.188   6.372  16.723  0.7659  0.9193 -0.3157
18243TIP3   OH276143   2.855   6.249  11.110 -0.0300 -0.1339  0.0337
18243TIP3    H176144   2.928   6.234  11.171  0.8061 -0.7469 -1.1040
18243TIP3    H276145   2.783   6.197  11.145  0.0364  0.5519  1.2253
18244TIP3   OH276146   2.139   5.834  11.461  0.4438 -0.1798  0.0625
18244TIP3    H176147   2.164   5.904  11.401  1.5816  0.7502  1.5761
18244TIP3    H276148   2.118   5.879  11.543 -3.8763 -1.1376 -0.3669
18245TIP3   OH276149   2.771   0.440   0.297  0.1963 -0.2332 -0.6573
18245TIP3    H176150   2.846   0.456   0.239  1.6250  1.3818  1.5164
18245TIP3    H276151   2.730   0.526   0.307 -0.3648 -0.6004  0.2726
18246TIP3   OH276152   5.307   6.705  16.426 -0.0552  0.1009  0.0834
18246TIP3    H176153   5.225   6.659  16.441 -0.0440  0.2824  0.7176
18246TIP3    H276154   5.369   6.637  16.399 -0.3062 -0.0963  0.0112
18247TIP3   OH276155   4.234   4.592   1.581 -0.5760 -0.0015 -0.6424
18247TIP3    H176156   4.201   4.508   1.614 -1.3765  0.1183 -1.1209
18247TIP3    H276157   4.156   4.642   1.561 -0.0984  0.4054 -1.5144
18248TIP3   OH276158   2.018   2.836   1.203  0.7090  0.2677  0.3388
18248TIP3    H176159   2.014   2.843   1.108 -0.4201  1.3741  0.4556
18248TIP3    H276160   2.042   2.924   1.233 -2.8582  1.0104  1.2691
18249TIP3   OH276161   2.920   0.845   4.967  0.1019 -0.0510 -1.0767
18249TIP3    H176162   2.841   0.886   4.931  1.1857  1.2549 -1.9771
18249TIP3    H276163   2.964   0.916   5.015  2.0261 -0.1324 -2.6950
18250TIP3   OH276164   5.667   4.025  14.006 -0.3243 -0.4582 -0.2191
18250TIP3    H176165   5.686   3.978  14.087  0.3198  1.1677  0.6173
18250TIP3    H276166   5.734   3.995  13.944  1.3185  0.7956  0.9027
18251TIP3   OH276167   3.320   3.495   0.759 -0.2996  0.3173 -0.1106
18251TIP3    H176168   3.228   3.486   0.785 -0.8821  2.0820 -1.4315
18251TIP3    H276169   3.348   3.578   0.797  0.6962 -0.1047  0.1024
18252TIP3   OH276170   1.255   3.344  13.381 -0.4383 -0.1327 -0.1479
18252TIP3    H176171   1.298   3.369  13.299  0.0089  0.3272  0.2194
18252TIP3    H276172   1.322   3.359  13.448 -1.2965  0.9612  0.4800
18253TIP3   OH276173   2.686   5.789  11.916  0.2542  0.2327  0.2089
18253TIP3    H176174   2.676   5.770  11.822 -0.6649 -0.4063  0.4287
18253TIP3    H276175   2.677   5.884  11.923 -2.9995 -0.0342  0.0452
18254TIP3   OH276176   1.430   4.726  15.533 -0.6006 -0.1716  0.2581
18254TIP3    H176177   1.480   4.717  15.614 -1.7595  0.5756  1.0633
18254TIP3    H276178   1.346   4.764  15.560 -0.0123  2.6051 -1.6172
18255TIP3   OH276179   6.011   4.711  16.100  0.5982  0.4613  0.7708
18255TIP3    H176180   6.055   4.625  16.098  1.6229  0.9661  1.2708
18255TIP3    H276181   6.037   4.749  16.183 -1.1741  0.5909  1.2740
18256TIP3   OH276182   0.915   6.247   3.965 -0.7150 -0.0867 -0.0205
18256TIP3    H176183   0.958   6.271   3.883  0.7304  1.9380  1.2846
18256TIP3    H276184   0.830   6.291   3.962 -0.3958  0.5245 -0.1406
18257TIP3   OH276185   6.105   0.691   2.782 -0.2527  0.3891 -0.2091
18257TIP3    H176186   6.028   0.637   2.802  0.4334 -1.0663 -1.3954
18257TIP3    H276187   6.079   0.780   2.808 -1.1376 -0.5984  2.4725
18258TIP3   OH276188   5.528   0.198   1.336 -0.7656  0.0507 -0.0760
18258TIP3    H176189   5.526   0.270   1.400  2.0940  0.2897 -0.1816
18258TIP3    H276190   5.460   0.220   1.273  0.3065  2.9381 -0.3266
18259TIP3   OH276191   0.071   0.101   0.622  0.2791 -0.3900  0.2674
18259TIP3    H176192   0.128   0.118   0.697 -0.4861  1.0629  0.5456
18259TIP3    H276193   0.069   0.184   0.575 -0.2191 -0.9440 -0.6934
18260TIP3   OH276194   3.489   2.674   2.074 -0.2818  0.0202  0.2418
18260TIP3    H176195   3.404   2.633   2.059 -0.3254  0.1601  0.1053
18260TIP3    H276196   3.539   2.658   1.994 -0.5068  0.7465 -0.0490
18261TIP3   OH276197   5.849   2.137  14.903  0.3650  0.6087  0.1785
18261TIP3    H176198   5.893   2.199  14.962 -0.1942  0.0407  1.2114
18261TIP3    H276199   5.901   2.057  14.910 -0.7502 -0.0282  1.3106
18262TIP3   OH276200   5.874   2.526  13.559 -0.0129 -0.3207 -0.1811
18262TIP3    H176201   5.902   2.438  13.584 -0.0890 -0.4593 -0.5830
18262TIP3    H276202   5.803   2.547  13.620 -1.3319 -1.3219 -1.3319
18263TIP3   OH276203   2.116   2.056   5.498  0.2495  0.2723 -0.5972
18263TIP3    H176204   2.204   2.052   5.461 -0.1206 -2.2851 -1.2703
18263TIP3    H276205   2.119   1.997   5.573 -1.2313 -0.7852 -1.3601
18264TIP3   OH276206   2.521   0.232   5.348 -0.4842 -0.3703 -0.4391
18264TIP3    H176207   2.551   0.181   5.423 -0.6580 -2.4321 -1.7505
18264TIP3    H276208   2.569   0.315   5.355  0.2218 -0.9136  1.3890
18265TIP3   OH276209   4.653   1.645   6.414 -0.1516  0.3224 -0.2948
18265TIP3    H176210   4.639   1.672   6.323  0.3014  0.3983 -0.3404
18265TIP3    H276211   4.729   1.587   6.411 -0.7206 -0.4378 -0.1005
18266TIP3   OH276212   2.622   6.531   5.307 -0.5190  0.1785  0.4903
18266TIP3    H176213   2.572   6.468   5.359 -0.2981  0.8813  1.5687
18266TIP3    H276214   2.558   6.598   5.283 -0.7665 -0.4802 -0.7059
18267TIP3   OH276215   6.061   0.816   1.833 -0.3565 -0.3062 -0.0304
18267TIP3    H176216   6.049   0.723   1.812  0.4509 -0.4956  0.3163
18267TIP3    H276217   6.122   0.848   1.767 -0.6209 -0.0233 -0.1385
18268TIP3   OH276218   2.375   3.190  14.375 -0.2887  0.6837  0.1443
18268TIP3    H176219   2.431   3.243  14.432  0.8246 -0.6473  0.3022
18268TIP3    H276220   2.290   3.235  14.378  0.5380  2.2877  0.5068
18269TIP3   OH276221   0.657   5.165  16.675  0.0638  0.9479  0.0187
18269TIP3    H176222   0.720   5.229  16.640  1.2734  0.2875  0.9547
18269TIP3    H276223   0.596   5.150  16.603  1.1042  1.4314 -0.9906
18270TIP3   OH276224   1.112   2.767   4.418  0.0626 -0.2534 -0.1293
18270TIP3    H176225   1.143   2.722   4.339 -0.1436  0.8869 -0.8824
18270TIP3    H276226   1.043   2.826   4.386 -0.3067 -0.0720  0.9732
18271TIP3   OH276227   3.843   2.139  14.262  0.3761  0.3498 -0.0284
18271TIP3    H176228   3.868   2.073  14.326  1.0706 -0.8481 -1.5125
18271TIP3    H276229   3.903   2.212  14.279 -0.2137  0.5069  1.4334
18272TIP3   OH276230   0.504   0.388  16.739  0.7725  0.5176  0.1264
18272TIP3    H176231   0.472   0.300  16.754  0.6779  0.2901 -1.3267
18272TIP3    H276232   0.432   0.445  16.767  0.3242  0.0973 -0.1641
18273TIP3   OH276233   1.762   3.857   4.287  0.0969  0.7437 -0.9246
18273TIP3    H176234   1.825   3.794   4.324  0.9486  1.8140 -0.5277
18273TIP3    H276235   1.694   3.802   4.247 -1.7996 -0.5012  3.7287
18274TIP3   OH276236   5.423   0.312  11.948 -0.5002 -0.0452  0.4685
18274TIP3    H176237   5.485   0.250  11.909 -0.3705  0.5243 -0.2474
18274TIP3    H276238   5.337   0.282  11.917 -0.3890  0.4673 -0.3516
18275TIP3   OH276239   0.627   3.564  15.987  0.1327 -0.5276 -0.1027
18275TIP3    H176240   0.717   3.596  15.974 -0.5263  0.1716 -3.5184
18275TIP3    H276241   0.576   3.643  16.004 -0.0605 -0.7563  0.3667
18276TIP3   OH276242   0.111   3.513   3.049 -0.4447 -0.4374 -0.0396
18276TIP3    H176243   0.199   3.496   3.015 -0.2213 -2.6786  1.6237
18276TIP3    H276244   0.090   3.437   3.102 -2.9900  0.5585  0.4485
18277TIP3   OH276245   2.292   3.500  16.868 -1.0039 -0.4484  0.3976
18277TIP3    H176246   2.330   3.587  16.878  1.2789 -1.2584 -0.7366
18277TIP3    H276247   2.207   3.514  16.827 -0.6467  1.2346  0.2196
18278TIP3   OH276248   0.703   2.777  15.877  0.8099 -0.4114 -0.1920
18278TIP3    H176249   0.794   2.779  15.907  0.6150 -0.8489  0.4357
18278TIP3    H276250   0.708   2.741  15.788  1.4218  1.1776 -0.8226
18279TIP3   OH276251   5.579   4.840   4.730  0.0802  0.3486 -0.4857
18279TIP3    H176252   5.497   4.889   4.727 -1.3188 -1.9376 -0.8872
18279TIP3    H276253   5.569   4.781   4.805  1.3042 -0.0484 -0.6266
18280TIP3   OH276254   0.452   3.516   3.280 -0.3311  0.6013  0.0373
18280TIP3    H176255   0.421   3.538   3.193 -0.5827 -1.9312 -0.5609
18280TIP3    H276256   0.548   3.515   3.273 -0.3845 -1.0162 -0.5996
18281TIP3   OH276257   0.859   6.518   1.875  0.3003 -0.3128  0.1978
18281TIP3    H176258   0.784   6.480   1.830  0.0746  1.3336 -0.8966
18281TIP3    H276259   0.820   6.571   1.945  0.3103  1.5017 -1.1034
18282TIP3   OH276260   6.405   2.031   3.052  0.0882 -0.0095  0.4102
18282TIP3    H176261   6.429   2.024   3.144 -2.5387 -0.6928  1.0769
18282TIP3    H276262   6.317   1.995   3.047 -0.5142  1.6500 -2.0577
18283TIP3   OH276263   2.245   1.869  16.123  0.0580 -0.3674 -1.7425
18283TIP3    H176264   2.253   1.940  16.059 -0.1650  1.3839  0.1256
18283TIP3    H276265   2.151   1.856  16.134  0.0964 -1.2275 -2.3399
18284TIP3   OH276266   3.994   6.371   2.747  0.1218  0.4144 -0.2694
18284TIP3    H176267   4.033   6.436   2.689 -0.5098  0.4468 -0.6538
18284TIP3    H276268   4.067   6.314   2.771  0.9474  2.0061  1.1030
18285TIP3   OH276269   5.756   0.086   1.507  0.1174  0.2580 -0.3007
18285TIP3    H176270   5.717   0.073   1.421  0.3809 -0.7219 -0.2852
18285TIP3    H276271   5.747   0.001   1.550 -0.9136  1.0109  1.0171
18286TIP3   OH276272   0.249   3.171   2.924  0.2871  0.0037 -0.1301
18286TIP3    H176273   0.316   3.133   2.868  0.5102  0.0751  0.0876
18286TIP3    H276274   0.236   3.107   2.993 -0.0057 -0.0947 -0.2753
18287TIP3   OH276275   6.254   0.428  14.988  0.2764 -0.2796 -0.0698
18287TIP3    H176276   6.335   0.479  14.989 -0.7292  1.3928  1.5325
18287TIP3    H276277   6.274   0.349  15.038  0.9193  0.1424  0.3516
18288TIP3   OH276278   5.519   3.253  15.567 -0.4691  0.0655 -0.4241
18288TIP3    H176279   5.430   3.272  15.536 -1.2118 -0.9085  1.0152
18288TIP3    H276280   5.540   3.326  15.625 -0.4978  0.1021 -0.4596
18289TIP3   OH276281   4.844   0.690   2.603 -0.5976 -0.2694 -0.4981
18289TIP3    H176282   4.884   0.653   2.682 -3.0155  0.9241  1.3758
18289TIP3    H276283   4.841   0.784   2.619 -1.3990 -0.0469 -1.8763
18290TIP3   OH276284   2.734   4.547  11.897  0.1029 -0.5406 -0.3680
18290TIP3    H176285   2.822   4.558  11.934 -0.7192 -0.2961  1.6030
18290TIP3    H276286   2.691   4.631  11.913 -0.6503 -0.8302 -0.8667
18291TIP3   OH276287   4.143   5.028  16.913 -0.2149 -0.6635 -0.1059
18291TIP3    H176288   4.158   4.933  16.915 -0.6137 -0.7280 -0.0488
18291TIP3    H276289   4.069   5.042  16.973  0.5437 -0.1854  0.7252
18292TIP3   OH276290   1.014   3.406  13.476 -0.2993 -0.0550 -0.2065
18292TIP3    H176291   1.099   3.379  13.443 -0.1538 -0.5106  0.5174
18292TIP3    H276292   0.990   3.483  13.424  0.0037 -0.6406 -1.2275
18293TIP3   OH276293   3.722   4.151   1.820 -0.0028  0.4698  0.6204
18293TIP3    H176294   3.635   4.144   1.860 -0.3726 -0.2321 -0.2832
18293TIP3    H276295   3.748   4.060   1.804  0.7236  0.6964  0.5204
18294TIP3   OH276296   5.100   5.069   0.423  0.5282 -0.0632 -0.4560
18294TIP3    H176297   5.139   5.033   0.343  1.4833  0.3844 -0.1983
18294TIP3    H276298   5.175   5.103   0.473 -0.1207  0.1549  0.3747
18295TIP3   OH276299   5.945   5.664   2.364 -0.1696 -0.0277 -0.2860
18295TIP3    H176300   5.952   5.722   2.440 -0.4232 -0.0748 -0.2263
18295TIP3    H276301   5.923   5.578   2.400 -0.6784  0.0348 -0.4384
18296TIP3   OH276302   5.974   0.512  14.183  0.0618  0.3930 -0.5081
18296TIP3    H176303   5.880   0.495  14.181  0.2866 -0.9165 -0.7693
18296TIP3    H276304   6.013   0.427  14.162  1.2860  1.0565 -0.9027
18297TIP3   OH276305   4.667   2.287  14.494  0.0979 -0.6029  0.7315
18297TIP3    H176306   4.619   2.304  14.413  1.1404  0.0776  0.2423
18297TIP3    H276307   4.623   2.211  14.532 -2.1530  0.7351  0.9393
18298TIP3   OH276308   2.054   0.127   2.582 -0.9202  0.0493  0.2864
18298TIP3    H176309   2.039   0.215   2.617 -1.3635 -0.7250  2.1337
18298TIP3    H276310   2.076   0.141   2.490  1.1500  2.2473  1.0620
18299TIP3   OH276311   2.489   3.844   3.425  0.1737 -0.2241  0.2815
18299TIP3    H176312   2.520   3.803   3.344  1.0036 -2.1300  1.5115
18299TIP3    H276313   2.406   3.802   3.443 -0.7547  1.2955 -0.3619
18300TIP3   OH276314   4.766   0.672   1.305 -0.0548 -0.2559  0.2189
18300TIP3    H176315   4.695   0.737   1.303  1.6955  1.7139  0.1173
18300TIP3    H276316   4.824   0.699   1.234  1.6913 -0.7743  1.4334
18301TIP3   OH276317   2.019   4.028   2.386  0.2023 -0.0276 -0.4271
18301TIP3    H176318   1.993   4.054   2.297 -0.4387 -1.9047 -0.8330
18301TIP3    H276319   1.938   4.034   2.437  0.2040 -0.5099 -0.3644
18302TIP3   OH276320   3.469   5.116   1.502 -0.0441 -0.7050  0.4965
18302TIP3    H176321   3.405   5.187   1.502 -0.5573 -1.1597  0.5356
18302TIP3    H276322   3.545   5.152   1.547  0.4556  0.4930 -1.2474
18303TIP3   OH276323   4.984   1.854   0.095  0.0816 -0.2779 -0.1034
18303TIP3    H176324   5.032   1.934   0.072  1.4611 -1.0483  0.0362
18303TIP3    H276325   4.934   1.878   0.173  0.4035  0.4730 -0.1180
18304TIP3   OH276326   3.507   4.712   3.271  0.1537  0.5897 -0.1366
18304TIP3    H176327   3.511   4.677   3.182 -1.3140  1.4613 -0.5704
18304TIP3    H276328   3.499   4.807   3.259 -1.2199  0.6251  0.8813
18305TIP3   OH276329   3.836   0.500  10.393 -0.1944 -0.2929  0.2595
18305TIP3    H176330   3.825   0.438  10.465  0.5245  0.3304  0.9206
18305TIP3    H276331   3.902   0.460  10.336 -1.4888 -1.2519 -0.5880
18306TIP3   OH276332   5.519   0.496  17.111  0.0007  0.5021  0.2703
18306TIP3    H176333   5.570   0.571  17.140  0.4243 -0.9413  3.4596
18306TIP3    H276334   5.429   0.529  17.103  0.2051  1.3671  1.4937
18307TIP3   OH276335   0.303   3.627   4.038  0.4611  0.4602  0.0724
18307TIP3    H176336   0.309   3.533   4.054  1.0944  0.4389 -0.2900
18307TIP3    H276337   0.353   3.642   3.958  1.1515  1.2367  0.6254
18308TIP3   OH276338   0.590   0.907   0.594  0.1617 -0.8633 -0.4159
18308TIP3    H176339   0.521   0.851   0.630  0.7131 -1.2929 -0.0177
18308TIP3    H276340   0.549   0.994   0.587  0.3452 -0.5478  2.1696
18309TIP3   OH276341   3.568   1.342   3.863 -0.4700 -0.2860  0.0311
18309TIP3    H176342   3.565   1.270   3.800 -1.9879 -0.9003  0.7743
18309TIP3    H276343   3.575   1.298   3.948 -1.8388  0.4038  0.5206
18310TIP3   OH276344   4.002   0.645  15.097 -0.7422 -0.0150  0.5142
18310TIP3    H176345   3.958   0.564  15.071 -0.0603 -0.1782 -0.1504
18310TIP3    H276346   4.087   0.617  15.130 -0.3881  0.4471  0.0107
18311TIP3   OH276347   0.767   5.867   5.162  0.3530 -0.2015 -0.6958
18311TIP3    H176348   0.727   5.940   5.207  1.7258 -0.4068  0.8943
18311TIP3    H276349   0.861   5.884   5.167  0.6401 -1.5692 -1.1713
18312TIP3   OH276350   1.832   1.915   2.741  0.0731  0.4640 -0.4328
18312TIP3    H176351   1.918   1.878   2.719  0.3023  0.8493 -0.1906
18312TIP3    H276352   1.776   1.889   2.668  0.5951  0.8901 -0.9948
18313TIP3   OH276353   6.052   1.367  15.695  0.3902  0.3634 -0.1125
18313TIP3    H176354   6.137   1.409  15.678  0.5249 -0.0088 -0.3656
18313TIP3    H276355   6.005   1.374  15.612  0.2503  0.3934 -0.0301
18314TIP3   OH276356   4.182   1.495   4.341 -0.6661 -0.1800 -0.3342
18314TIP3    H176357   4.134   1.529   4.267 -1.0006 -2.0469 -1.0020
18314TIP3    H276358   4.117   1.486   4.411 -1.3171 -2.5601 -1.1897
18315TIP3   OH276359   4.232   0.353  11.290  0.2253  0.2274  0.1245
18315TIP3    H176360   4.153   0.368  11.342  0.2719  0.3831  0.1513
18315TIP3    H276361   4.212   0.390  11.204 -0.1449 -0.7474 -0.2149
18316TIP3   OH276362   2.424   0.430  15.347  0.1744  0.2257  0.2285
18316TIP3    H176363   2.406   0.359  15.286  0.4392  1.1319 -0.9286
18316TIP3    H276364   2.467   0.389  15.421  1.1027 -0.6928 -0.8054
18317TIP3   OH276365   6.645   2.351  11.847  0.4358 -0.3440  0.0521
18317TIP3    H176366   6.592   2.272  11.835  0.3620 -0.3141  0.1757
18317TIP3    H276367   6.598   2.419  11.798  0.4662 -0.3628 -0.0033
18318TIP3   OH276368   2.079   0.590  13.331  0.0954 -0.0729 -0.3240
18318TIP3    H176369   2.065   0.496  13.339 -0.1718 -0.3089 -3.1356
18318TIP3    H276370   2.102   0.604  13.239  3.0224  2.2597  0.6674
18319TIP3   OH276371   1.894   1.517  13.238  0.3911 -0.0401 -0.5557
18319TIP3    H176372   1.957   1.469  13.185  1.5029 -0.0406  0.7527
18319TIP3    H276373   1.812   1.467  13.230  1.0698 -1.1451 -0.6424
18320TIP3   OH276374   1.352   5.138   0.788 -0.1082  0.7333  0.1813
18320TIP3    H176375   1.312   5.202   0.729 -0.0268  2.1691  1.6528
18320TIP3    H276376   1.358   5.183   0.872  1.4104 -0.6641  0.8558
18321TIP3   OH276377   1.637   2.416   5.586  0.0842 -0.7119  0.0531
18321TIP3    H176378   1.732   2.427   5.587  0.2309 -1.8816  0.8087
18321TIP3    H276379   1.625   2.321   5.594 -1.2083 -0.2977  3.5755
18322TIP3   OH276380   1.583   2.133  11.782  0.2973  0.6835  0.1750
18322TIP3    H176381   1.511   2.196  11.778 -1.6838 -1.4048  2.1162
18322TIP3    H276382   1.633   2.159  11.859 -0.9146 -0.5066  1.3764
18323TIP3   OH276383   1.623   1.576   1.152  0.1819  0.5022  0.2537
18323TIP3    H176384   1.612   1.610   1.063  0.8514  2.5960  0.9463
18323TIP3    H276385   1.533   1.560   1.182 -0.0835  0.5022 -0.5276
18324TIP3   OH276386   1.685   5.242   1.385  0.2102 -0.4895 -0.2084
18324TIP3    H176387   1.627   5.204   1.451  0.4703 -1.0385 -0.2937
18324TIP3    H276388   1.637   5.319   1.353  0.1979 -0.0651  0.8008
18325TIP3   OH276389   0.999   1.308   5.671 -0.0195 -0.1999 -0.2494
18325TIP3    H176390   0.938   1.363   5.720  0.3706  1.6487 -1.7556
18325TIP3    H276391   1.081   1.314   5.720  0.0883  0.7911 -0.5408
18326TIP3   OH276392   6.027   4.564   0.212  0.1487  0.4722  0.1096
18326TIP3    H176393   5.978   4.551   0.294 -0.7040 -0.1251 -0.4935
18326TIP3    H276394   6.056   4.476   0.187  0.5469  0.6759 -0.1555
18327TIP3   OH276395   3.893   3.127   2.451  0.0107 -0.4220 -0.0743
18327TIP3    H176396   3.813   3.108   2.402 -0.0474 -0.9964  0.2345
18327TIP3    H276397   3.945   3.047   2.443  0.7510  0.1167 -0.6584
18328TIP3   OH276398   1.167   0.756   6.241 -0.5716  0.1038  0.4362
18328TIP3    H176399   1.253   0.720   6.217  1.0291  3.1038  1.4396
18328TIP3    H276400   1.136   0.698   6.311  0.1245 -1.6385 -0.6615
18329TIP3   OH276401   1.084   0.984  11.783 -0.0113  0.6943 -0.1843
18329TIP3    H176402   1.170   0.976  11.742  0.1967 -0.6507  0.4863
18329TIP3    H276403   1.097   1.048  11.853  1.1264 -1.4872  1.6432
18330TIP3   OH276404   2.198   1.967   3.613  0.4763 -0.0938  0.1317
18330TIP3    H176405   2.200   2.035   3.681 -1.3939  1.0902 -0.9632
18330TIP3    H276406   2.241   1.892   3.654 -1.3890  0.2945  2.9817
18331TIP3   OH276407   2.004   6.716  16.227  0.3778  0.2927 -0.1299
18331TIP3    H176408   1.960   6.743  16.307  0.9479  1.4876 -0.2080
18331TIP3    H276409   2.001   6.793  16.170  1.1013 -0.1365 -0.7707
18332TIP3   OH276410   1.743   3.822   1.899  0.1998 -0.2596 -0.2597
18332TIP3    H176411   1.832   3.793   1.878 -0.4450 -1.9556 -0.7476
18332TIP3    H276412   1.699   3.826   1.814  0.1652  1.8910 -0.1728
18333TIP3   OH276413   6.703   5.649  16.220 -0.0650  0.8385 -0.9162
18333TIP3    H176414   6.763   5.574  16.227  0.9136  1.5545 -1.5842
18333TIP3    H276415   6.710   5.678  16.129 -2.6247 -0.0333 -1.4247
18334TIP3   OH276416   3.941   6.665   4.065 -0.3948  0.0456  0.1203
18334TIP3    H176417   3.878   6.680   4.135 -0.1664 -0.0571  0.3488
18334TIP3    H276418   4.023   6.646   4.111 -0.2606 -0.0808 -0.1739
18335TIP3   OH276419   3.903   4.576  14.291  0.0092  0.6277 -0.2638
18335TIP3    H176420   3.976   4.567  14.353  0.7152  1.2408 -1.0095
18335TIP3    H276421   3.930   4.527  14.214  0.2368  2.0034 -1.0778
18336TIP3   OH276422   5.891   5.911  16.152 -0.1876 -0.2490  0.0264
18336TIP3    H176423   5.845   5.827  16.154 -1.3829  0.3830 -0.0718
18336TIP3    H276424   5.821   5.976  16.163  0.5130  0.7926 -1.4854
18337TIP3   OH276425   3.652   6.497   0.930  0.2801 -0.0548 -0.6559
18337TIP3    H176426   3.578   6.461   0.880  0.0004 -0.5909  0.1460
18337TIP3    H276427   3.685   6.424   0.982  0.7432  0.4354 -0.2427
18338TIP3   OH276428   6.478   5.685   1.393 -0.8703  0.2026 -0.1278
18338TIP3    H176429   6.409   5.705   1.330 -2.3342  0.1424  1.4250
18338TIP3    H276430   6.455   5.735   1.471  1.1312  0.5774  0.2549
18339TIP3   OH276431   1.043   1.875  13.477  0.5446  0.1847 -0.0582
18339TIP3    H176432   1.127   1.856  13.520  0.9186  2.3071  0.2136
18339TIP3    H276433   1.066   1.882  13.384  0.5811  0.2316 -0.0468
18340TIP3   OH276434   4.077   4.304  15.457 -0.2842 -0.5660 -0.0255
18340TIP3    H176435   4.023   4.231  15.487  1.5770 -1.2409  1.8001
18340TIP3    H276436   4.023   4.381  15.471 -0.0981 -1.0153  3.7706
18341TIP3   OH276437   5.160   2.359  13.042  0.7024  0.1785  0.0935
18341TIP3    H176438   5.152   2.443  13.087  0.3543  0.5830 -0.7289
18341TIP3    H276439   5.118   2.372  12.957  2.0865 -0.3484 -0.6841
18342TIP3   OH276440   2.960   1.929  17.213 -0.5241 -0.4830 -0.6732
18342TIP3    H176441   2.865   1.932  17.209 -0.5503 -0.9481 -0.4834
18342TIP3    H276442   2.988   2.020  17.199 -0.9182 -0.6498 -2.6852
18343TIP3   OH276443   2.614   3.267  16.716  0.6026 -0.2012  0.2458
18343TIP3    H176444   2.588   3.244  16.627 -0.8678 -2.4606  1.2240
18343TIP3    H276445   2.691   3.213  16.733 -0.1017 -1.0051  0.9178
18344TIP3   OH276446   5.285   0.724  12.338 -0.2327  0.5103  0.0198
18344TIP3    H176447   5.304   0.813  12.368  2.5989 -0.5236  1.5121
18344TIP3    H276448   5.361   0.673  12.366 -0.6222 -1.8865 -3.0693
18345TIP3   OH276449   2.890   4.050   1.328  0.6059  0.1043 -0.0356
18345TIP3    H176450   2.853   3.991   1.394 -1.3010  0.7620 -0.4547
18345TIP3    H276451   2.881   4.137   1.367 -1.7632  0.6454 -1.6241
18346TIP3   OH276452   3.310   0.031  15.769  0.8129  0.3796  0.0230
18346TIP3    H176453   3.353  -0.052  15.751  0.9132  0.5114 -0.3477
18346TIP3    H276454   3.275   0.021  15.858  2.0366  0.4461  0.5288
18347TIP3   OH276455   5.172   3.362   3.312 -0.3490  0.0394  0.2462
18347TIP3    H176456   5.102   3.358   3.247  1.0093  0.6110 -1.2912
18347TIP3    H276457   5.246   3.318   3.270  0.3103 -0.2952  1.7285
18348TIP3   OH276458   4.757   1.975   1.824 -0.2464  0.2056 -0.2454
18348TIP3    H176459   4.773   2.014   1.910  2.3077  1.3148 -1.1509
18348TIP3    H276460   4.759   1.880   1.840 -0.6545  0.4067  1.0540
18349TIP3   OH276461   0.760   3.098  11.807 -0.2818 -0.2751 -0.1751
18349TIP3    H176462   0.705   3.175  11.795 -1.1754 -0.7839  0.5790
18349TIP3    H276463   0.846   3.125  11.775  0.1639  2.0334  2.7475
18350TIP3   OH276464   1.858   6.356   3.837  0.2965 -0.2484  0.3547
18350TIP3    H176465   1.823   6.443   3.858 -1.3430 -1.0300  0.8974
18350TIP3    H276466   1.885   6.364   3.745 -0.9931  0.4794  0.0188
18351TIP3   OH276467   3.882   4.993  15.286  0.4453  0.6953 -0.6789
18351TIP3    H176468   3.858   4.945  15.365 -0.6605  0.2381 -1.2785
18351TIP3    H276469   3.876   5.085  15.310 -1.3465  0.5790 -0.6428
18352TIP3   OH276470   6.596   2.270  17.006  0.0934  0.3105 -0.3283
18352TIP3    H176471   6.651   2.348  17.017 -1.6037  1.4200  0.4788
18352TIP3    H276472   6.510   2.296  17.040 -0.7410 -1.6312 -0.8789
18353TIP3   OH276473   0.704   1.685   0.678 -0.2928  0.5213 -0.6828
18353TIP3    H176474   0.633   1.724   0.728 -0.2355  0.8949 -0.8931
18353TIP3    H276475   0.782   1.734   0.704  0.0118 -0.3311  0.0647
18354TIP3   OH276476   1.750   6.183   2.502  0.6387 -0.5135  0.1031
18354TIP3    H176477   1.753   6.116   2.434  2.6608 -0.7896  0.4454
18354TIP3    H276478   1.704   6.141   2.575  0.4392 -0.9658 -0.2832
18355TIP3   OH276479   3.303   1.462   2.173  0.6037 -0.0402 -0.1014
18355TIP3    H176480   3.244   1.394   2.141 -1.7658  1.1869  1.4881
18355TIP3    H276481   3.380   1.415   2.205 -0.1931 -1.7943 -0.7296
18356TIP3   OH276482   1.592   6.309   1.256  0.4429  0.7598 -0.5593
18356TIP3    H176483   1.647   6.351   1.322 -0.1330  1.4910 -0.5322
18356TIP3    H276484   1.654   6.274   1.192  0.9584  1.2413 -0.3333
18357TIP3   OH276485   0.264   1.428   1.084  0.6377  0.3275  0.5568
18357TIP3    H176486   0.202   1.438   1.157 -1.6529 -1.4296 -1.0670
18357TIP3    H276487   0.260   1.513   1.038 -0.7256  0.1935  0.3898
18358TIP3   OH276488   5.468   5.067   1.219 -0.0988 -0.0089 -0.7230
18358TIP3    H176489   5.412   5.100   1.289  0.3123  0.7305 -0.7294
18358TIP3    H276490   5.546   5.034   1.265 -0.1896 -0.2873 -0.7698
18359TIP3   OH276491   2.958   4.977  15.230 -0.6498  0.0496 -0.0688
18359TIP3    H176492   2.895   4.911  15.199  0.7871 -1.3017 -0.1613
18359TIP3    H276493   3.041   4.952  15.190  0.4187  0.5735  1.7495
18360TIP3   OH276494   5.758   4.531  13.909 -0.0662  0.9934  0.0581
18360TIP3    H176495   5.720   4.495  13.829  2.1244 -1.0453 -0.0938
18360TIP3    H276496   5.793   4.616  13.883 -0.4585  0.8870 -0.8427
18361TIP3   OH276497   4.852   6.454  15.587 -0.0647  0.6897  0.4886
18361TIP3    H176498   4.922   6.404  15.545  0.1329  1.6809 -0.3645
18361TIP3    H276499   4.876   6.546  15.573 -1.6146  1.0361  0.0760
18362TIP3   OH276500   0.385   5.280  12.418 -0.3461  0.4151 -0.4408
18362TIP3    H176501   0.360   5.213  12.482 -1.4369  2.3149  1.2041
18362TIP3    H276502   0.308   5.291  12.363 -0.9471  1.7758  0.6303
18363TIP3   OH276503   4.863   1.140  12.031 -0.2205  0.1833 -0.8313
18363TIP3    H176504   4.826   1.085  12.100 -0.8139  1.2901 -0.2445
18363TIP3    H276505   4.790   1.195  12.003  0.0495 -0.1522 -2.2508
18364TIP3   OH276506   3.844   0.011   0.658 -0.4631  0.5404  0.1817
18364TIP3    H176507   3.866  -0.069   0.706 -0.9425 -0.5312 -1.3145
18364TIP3    H276508   3.778  -0.018   0.594 -0.5531  2.1167 -0.4514
18365TIP3   OH276509   2.110   2.704  16.597  0.6735 -0.4446 -0.2964
18365TIP3    H176510   2.185   2.750  16.560  0.2828 -1.0208 -1.8269
18365TIP3    H276511   2.042   2.710  16.530 -0.7155  0.2241  1.1472
18366TIP3   OH276512   4.676   3.234  10.863  0.2909 -0.3882 -0.1272
18366TIP3    H176513   4.760   3.234  10.817 -0.2207  0.6113 -1.0640
18366TIP3    H276514   4.625   3.302  10.820 -0.9734 -0.9273  0.5102
18367TIP3   OH276515   4.039   2.688  14.217  0.4730 -0.3536 -0.3226
18367TIP3    H176516   4.031   2.781  14.236  0.5644 -0.6172  1.0105
18367TIP3    H276517   3.998   2.678  14.131  1.2770  1.0646 -0.8946
18368TIP3   OH276518   4.786   1.720   2.931 -0.6872 -0.3910  0.4166
18368TIP3    H176519   4.788   1.624   2.926  1.4880 -0.2331 -4.0253
18368TIP3    H276520   4.871   1.743   2.969 -0.1215 -0.1613 -0.9711
18369TIP3   OH276521   3.062   1.945  15.252 -0.2542  0.0839 -0.1259
18369TIP3    H176522   3.018   2.007  15.310  1.1526 -0.2426  1.3302
18369TIP3    H276523   3.061   1.987  15.166 -0.5508  1.5069  0.5676
18370TIP3   OH276524   2.135   1.711   0.417 -0.5164  0.1481 -0.0118
18370TIP3    H176525   2.184   1.651   0.473  0.4137 -0.2689 -1.2529
18370TIP3    H276526   2.054   1.663   0.397 -0.8837  0.3223  0.9923
18371TIP3   OH276527   4.598   2.119   4.418 -0.3179 -0.1719  0.1175
18371TIP3    H176528   4.513   2.156   4.392  1.1512  3.3343  0.0032
18371TIP3    H276529   4.594   2.117   4.514 -1.0998 -1.4964  0.0667
18372TIP3   OH276530   5.115   5.949   5.426  0.1711  0.3141 -0.2254
18372TIP3    H176531   5.070   5.935   5.509 -1.7422  2.4428 -0.8594
18372TIP3    H276532   5.114   5.863   5.384 -0.8291 -0.2902  0.9840
18373TIP3   OH276533   6.732   2.176  14.241  0.3740  0.3313 -0.7608
18373TIP3    H176534   6.724   2.223  14.158  1.2838  1.0318 -0.4591
18373TIP3    H276535   6.763   2.242  14.303  2.2043 -0.7714 -0.4518
18374TIP3   OH276536   3.238   5.553  16.559 -0.1690 -0.4946 -0.0531
18374TIP3    H176537   3.320   5.602  16.566 -1.5948  1.7272  2.1181
18374TIP3    H276538   3.241   5.492  16.633 -0.6744 -0.0297  0.3592
18375TIP3   OH276539   1.409   6.691  10.889 -0.0429 -0.4122 -0.0043
18375TIP3    H176540   1.446   6.725  10.970 -0.1781 -0.5813  0.1284
18375TIP3    H276541   1.328   6.741  10.877 -1.9928 -2.9786  1.9736
18376TIP3   OH276542   3.757   4.048   1.421 -0.3103  0.2019  0.0604
18376TIP3    H176543   3.686   4.053   1.485 -0.2475  0.4833  0.1110
18376TIP3    H276544   3.713   4.031   1.338 -0.6419  2.5470 -0.2732
18377TIP3   OH276545   2.380   1.269   5.816  0.2907  0.2304 -0.2191
18377TIP3    H176546   2.459   1.220   5.840  0.0553  0.1906  0.4796
18377TIP3    H276547   2.413   1.354   5.788  0.7372 -0.4395 -1.8080
18378TIP3   OH276548   3.780   5.603   2.537  0.0612  0.6759  0.1930
18378TIP3    H176549   3.723   5.550   2.481  1.5134 -1.1529  0.4171
18378TIP3    H276550   3.797   5.682   2.486  0.2077 -0.3358 -1.3471
18379TIP3   OH276551   5.581   4.253  15.118 -0.4078  0.1456 -0.4917
18379TIP3    H176552   5.562   4.223  15.029 -3.4173  1.6455 -0.4218
18379TIP3    H276553   5.497   4.283  15.151  0.6949 -0.2494  2.8437
18380TIP3   OH276554   2.382   4.725  13.909  0.5683 -0.5775 -0.0426
18380TIP3    H176555   2.384   4.819  13.926  1.3346 -0.8378  1.4049
18380TIP3    H276556   2.468   4.705  13.874 -0.3796 -0.3667 -2.6138
18381TIP3   OH276557   3.225   5.959  15.271 -0.5307  0.2360  0.3560
18381TIP3    H176558   3.182   5.929  15.191 -0.4891 -0.5279  0.6155
18381TIP3    H276559   3.315   5.975  15.245  0.0741 -2.2681  0.7526
18382TIP3   OH276560   4.533   1.184  12.327 -0.0840  0.4632 -0.2148
18382TIP3    H176561   4.570   1.104  12.291  0.6988  0.3222  0.8628
18382TIP3    H276562   4.589   1.204  12.402  0.2449  2.4720 -0.9596
18383TIP3   OH276563   5.003   5.992  16.898  0.6070 -0.1059  0.2840
18383TIP3    H176564   5.090   5.953  16.890  1.4115  2.0557 -2.2604
18383TIP3    H276565   4.955   5.958  16.823  0.5433  1.7868 -0.5517
18384TIP3   OH276566   2.647   3.879  11.991 -0.0867  0.4021  0.1778
18384TIP3    H176567   2.577   3.945  11.985 -0.5787  0.0612  1.9695
18384TIP3    H276568   2.696   3.904  12.069 -0.0655 -1.1634  0.6725
18385TIP3   OH276569   6.761   0.039  17.216 -0.2542 -0.5491  0.1025
18385TIP3    H176570   6.729   0.050  17.126  2.7472  0.9184 -0.8489
18385TIP3    H276571   6.747  -0.053  17.235  1.9213 -1.6239 -3.0767
18386TIP3   OH276572   0.091   6.600   1.897 -0.1195 -0.0677 -0.8554
18386TIP3    H176573   0.181   6.624   1.922 -0.4172 -0.4094  0.5912
18386TIP3    H276574   0.092   6.505   1.896 -0.8067 -0.0907  0.4511
18387TIP3   OH276575   2.057   1.054  16.740  0.2337  0.2175  0.3063
18387TIP3    H176576   1.989   1.115  16.769  1.3004  0.0737  3.3381
18387TIP3    H276577   2.110   1.104  16.678 -0.7214  1.3573  0.3933
18388TIP3   OH276578   4.779   4.949   3.528 -0.4630 -0.0262 -0.0249
18388TIP3    H176579   4.802   4.981   3.441 -2.4498  1.8888  0.1066
18388TIP3    H276580   4.719   5.015   3.563  0.4744 -0.6400  2.8979
18389TIP3   OH276581   2.049   6.715  15.072  0.2904  0.3868  0.4732
18389TIP3    H176582   1.957   6.710  15.097  0.0924  0.8981 -0.1402
18389TIP3    H276583   2.058   6.801  15.032  1.0600  0.3785  0.6202
18390TIP3   OH276584   0.231   6.114   5.356  0.1613  0.3745 -0.1571
18390TIP3    H176585   0.193   6.202   5.359 -0.7840 -0.0616  1.0257
18390TIP3    H276586   0.208   6.081   5.269 -3.1243 -0.2637  0.8880
18391TIP3   OH276587   4.392   1.229  14.147 -0.0085 -0.6849 -1.1233
18391TIP3    H176588   4.403   1.306  14.092 -0.5544 -0.3402 -0.7613
18391TIP3    H276589   4.457   1.166  14.116  0.7781  0.1174 -1.0824
18392TIP3   OH276590   3.998   1.540  16.019 -0.0435  0.7697 -0.3453
18392TIP3    H176591   4.091   1.558  16.035 -0.5032  1.3592  1.7878
18392TIP3    H276592   3.975   1.473  16.083 -1.0707  0.5855 -0.9014
18393TIP3   OH276593   4.810   3.942   2.485 -0.1061  0.4474 -0.2103
18393TIP3    H176594   4.847   3.868   2.533 -0.7930  0.6582  0.6596
18393TIP3    H276595   4.881   3.972   2.429  0.5218 -0.1878  0.2331
18394TIP3   OH276596   4.957   6.549   3.011 -0.2062 -0.2736 -0.0036
18394TIP3    H176597   5.001   6.582   2.933  0.7187 -0.6321  0.3573
18394TIP3    H276598   4.948   6.455   2.995 -0.3862 -0.2800  0.1407
18395TIP3   OH276599   1.584   2.479  15.392  0.4670 -0.0357  0.1881
18395TIP3    H176600   1.621   2.394  15.368  0.4204 -0.2292  0.7870
18395TIP3    H276601   1.494   2.475  15.361  0.0482 -0.7566  1.4821
18396TIP3   OH276602   3.945   0.719   4.591  0.4184 -0.3999 -0.2865
18396TIP3    H176603   4.010   0.767   4.644 -1.6809  0.7514  1.3293
18396TIP3    H276604   3.861   0.747   4.626 -0.9587 -2.2994 -1.9854
18397TIP3   OH276605   0.427   4.274   5.242 -0.1031 -0.2983 -0.4505
18397TIP3    H176606   0.383   4.214   5.183  0.0949 -1.1691  0.2669
18397TIP3    H276607   0.375   4.354   5.239 -1.9240 -1.4160  0.6160
18398TIP3   OH276608   5.080   6.234   1.128 -0.1274 -0.0511 -0.1542
18398TIP3    H176609   5.006   6.183   1.163  0.2523  0.4165  1.3702
18398TIP3    H276610   5.093   6.200   1.040 -1.7981 -0.5449 -0.2273
18399TIP3   OH276611   6.643   3.162   1.735  0.5595  0.0752 -0.2865
18399TIP3    H176612   6.680   3.248   1.756  0.1674 -0.1242  1.2899
18399TIP3    H276613   6.549   3.175   1.742  0.5155 -0.5766  0.3782
18400TIP3   OH276614   6.412   0.104  14.254  0.0899  0.5862 -0.2997
18400TIP3    H176615   6.474   0.152  14.199  0.0219 -0.6123 -1.4510
18400TIP3    H276616   6.361   0.053  14.192 -2.0770  1.5628  0.6348
18401TIP3   OH276617   4.387   5.281  15.178  0.1735  0.3467  0.3728
18401TIP3    H176618   4.364   5.331  15.100  0.9889 -0.2620 -0.2632
18401TIP3    H276619   4.306   5.280  15.230 -0.3140  0.9298 -0.3624
18402TIP3   OH276620   3.299   0.095   3.913  0.5003  0.1062 -0.0913
18402TIP3    H176621   3.212   0.079   3.875  0.7450  0.4149 -0.7947
18402TIP3    H276622   3.351   0.127   3.840  1.1498  0.1380  0.3823
18403TIP3   OH276623   2.233   2.570   2.588 -0.2467 -0.0754  0.2199
18403TIP3    H176624   2.204   2.661   2.581  0.7576  0.1806 -0.7503
18403TIP3    H276625   2.182   2.524   2.520  1.2610  0.2960 -1.1947
18404TIP3   OH276626   5.170   5.554   0.087 -0.5499  0.6645  0.0899
18404TIP3    H176627   5.092   5.499   0.075 -0.7735  0.8993  0.4515
18404TIP3    H276628   5.221   5.542   0.007  0.0205 -1.0531  0.6878
18405TIP3   OH276629   0.451   0.805   1.220  1.1568  0.4037 -0.0989
18405TIP3    H176630   0.362   0.832   1.240 -0.2894 -3.4447 -0.8507
18405TIP3    H276631   0.470   0.846   1.135  0.0828  1.1803  0.0298
18406TIP3   OH276632   2.844   4.508  11.195 -0.6473 -0.3146 -0.6825
18406TIP3    H176633   2.829   4.437  11.132  1.7114 -1.0519 -0.4466
18406TIP3    H276634   2.894   4.573  11.147  0.4751 -0.5221  0.1849
18407TIP3   OH276635   0.634   6.351  15.530  0.3610  0.1388  0.0554
18407TIP3    H176636   0.548   6.319  15.505 -0.0741 -1.3638  3.2433
18407TIP3    H276637   0.687   6.342  15.450 -1.9670 -0.5346 -1.4483
18408TIP3   OH276638   2.544   2.629  14.619 -0.5648  0.3843 -0.2399
18408TIP3    H176639   2.510   2.710  14.657 -1.1933 -0.3368  0.7568
18408TIP3    H276640   2.470   2.592  14.571 -0.5314 -0.0230  0.0171
18409TIP3   OH276641   6.167   5.751   4.405  0.0389  0.0489 -0.2602
18409TIP3    H176642   6.116   5.758   4.485 -0.9330  1.1813 -0.9734
18409TIP3    H276643   6.110   5.703   4.344  0.1367  0.6185 -0.8026
18410TIP3   OH276644   1.354   1.760  11.693 -0.1368  0.0295  0.2542
18410TIP3    H176645   1.406   1.815  11.635 -0.1126  0.4171  0.6366
18410TIP3    H276646   1.346   1.811  11.774  2.2503 -1.6791  1.6427
18411TIP3   OH276647   4.490   0.256  11.321  0.1089  0.5916  0.1988
18411TIP3    H176648   4.394   0.260  11.321  0.0821  0.4300  2.0184
18411TIP3    H276649   4.517   0.339  11.359  0.6300  0.1103  0.9141
18412TIP3   OH276650   3.320   2.196  15.009  0.4839  0.6327 -0.1711
18412TIP3    H176651   3.369   2.121  14.976  0.8272  1.0798 -0.6829
18412TIP3    H276652   3.228   2.170  15.001  0.6144 -0.0002  0.2999
18413TIP3   OH276653   4.818   1.562   1.620  0.3633 -0.4353 -0.3407
18413TIP3    H176654   4.851   1.554   1.530  2.0580 -1.8132  0.3790
18413TIP3    H276655   4.740   1.507   1.621 -0.3766  0.5632 -1.2836
18414TIP3   OH276656   0.126   1.557  14.209  0.4077  0.3626 -0.6304
18414TIP3    H176657   0.085   1.613  14.143 -0.2568  0.1755 -0.3848
18414TIP3    H276658   0.061   1.553  14.279  0.2911 -1.0103 -0.8112
18415TIP3   OH276659   2.807   0.474  13.911  0.2263 -0.0672  0.0875
18415TIP3    H176660   2.864   0.424  13.970  1.8807  1.5223 -0.1210
18415TIP3    H276661   2.781   0.551  13.963  0.7450  0.7467 -0.8375
18416TIP3   OH276662   4.823   6.370   1.119 -0.2523  0.0078 -0.2021
18416TIP3    H176663   4.811   6.317   1.040  1.2822 -0.5855 -0.0706
18416TIP3    H276664   4.917   6.362   1.138 -0.3117  1.4787  0.7434
18417TIP3   OH276665   3.092   1.575   3.962  0.2630 -0.0414  0.2837
18417TIP3    H176666   3.095   1.633   3.886 -1.7277 -0.0359  0.1985
18417TIP3    H276667   3.141   1.497   3.935 -0.4153 -0.0370 -0.9978
18418TIP3   OH276668   3.690   3.860   4.977 -0.2738  0.3938 -0.2717
18418TIP3    H176669   3.682   3.952   4.951 -1.5838  0.3206 -0.1780
18418TIP3    H276670   3.657   3.811   4.901  0.8673 -0.0237 -0.5063
18419TIP3   OH276671   0.806   0.829   3.918 -0.7666 -0.0299 -0.8628
18419TIP3    H176672   0.797   0.748   3.969  0.8178  0.2910 -0.0591
18419TIP3    H276673   0.804   0.899   3.983  0.8478  0.4050 -1.2640
18420TIP3   OH276674   2.225   1.262  16.881  0.2079  0.3096 -0.3431
18420TIP3    H176675   2.229   1.319  16.958  0.5315  1.1940 -1.0000
18420TIP3    H276676   2.219   1.174  16.917  2.0033  0.5843  0.7105
18421TIP3   OH276677   4.823   0.909   3.677 -0.3435 -0.0486 -0.5891
18421TIP3    H176678   4.824   0.815   3.659 -0.6520 -0.0517 -0.6006
18421TIP3    H276679   4.822   0.949   3.590 -0.7643 -0.0463 -0.5872
18422TIP3   OH276680   4.358   4.609   2.172  0.7138  0.0157 -0.1130
18422TIP3    H176681   4.276   4.604   2.122  0.9256  0.5359 -0.5234
18422TIP3    H276682   4.362   4.700   2.201  1.9674  0.4428 -1.5220
18423TIP3   OH276683   0.057   1.556   2.830 -0.2665  0.4790  0.0510
18423TIP3    H176684  -0.005   1.503   2.780 -0.0892  0.7074 -0.4140
18423TIP3    H276685   0.141   1.545   2.785 -0.1845  0.9821  0.0737
18424TIP3   OH276686   6.062   3.142  16.460  0.2087  0.4943  0.1098
18424TIP3    H176687   6.072   3.135  16.555 -0.3994  0.6100  0.1872
18424TIP3    H276688   6.014   3.224  16.447 -0.7413 -0.0929 -0.2119
18425TIP3   OH276689   0.482   1.271   2.277 -0.4109 -0.5814  0.5391
18425TIP3    H176690   0.487   1.222   2.359 -0.5702 -0.1794  0.7914
18425TIP3    H276691   0.419   1.341   2.294 -0.9334 -0.8773 -0.1289
18426TIP3   OH276692   5.456   5.021  12.368  0.0004  0.3153  0.8050
18426TIP3    H176693   5.478   4.933  12.401 -1.8085 -0.6124 -0.4076
18426TIP3    H276694   5.538   5.053  12.329  0.1175 -1.7693 -0.7497
18427TIP3   OH276695   6.582   4.447   4.967 -0.7067  0.5277 -0.0282
18427TIP3    H176696   6.648   4.498   4.920 -1.0177  0.5276 -0.4712
18427TIP3    H276697   6.515   4.429   4.901 -0.7519 -0.1787  0.2072
18428TIP3   OH276698   0.045   6.079   0.655  1.0339  0.8712  0.0876
18428TIP3    H176699   0.076   6.076   0.745 -1.5243 -0.5309  0.9906
18428TIP3    H276700   0.005   5.993   0.641  1.3398  1.0980 -2.3756
18429TIP3   OH276701   4.861   3.171   5.260  0.0041 -0.0424  0.2879
18429TIP3    H176702   4.809   3.248   5.282  1.1459  0.6602  0.5453
18429TIP3    H276703   4.920   3.160   5.334  0.1126 -0.9486  0.0767
18430TIP3   OH276704   3.691   6.167  16.509  0.0632  0.1607  0.4344
18430TIP3    H176705   3.750   6.184  16.583  1.0118  0.2968 -0.3510
18430TIP3    H276706   3.676   6.072  16.512  0.9559  0.0108  0.1582
18431TIP3   OH276707   0.773   0.158  16.695 -0.4842  0.2195 -0.0971
18431TIP3    H176708   0.747   0.084  16.639 -1.1110 -1.3074  2.1447
18431TIP3    H276709   0.860   0.134  16.728  0.6461  1.9139 -1.7271
18432TIP3   OH276710   1.176   0.770  12.949 -0.0003 -0.2095 -0.5318
18432TIP3    H176711   1.140   0.684  12.970  0.3145 -0.8592 -2.5400
18432TIP3    H276712   1.131   0.797  12.869  0.7031  0.9962 -0.5429
18433TIP3   OH276713   3.461   6.514   2.341 -0.2845  0.0127 -0.5289
18433TIP3    H176714   3.496   6.602   2.327  1.2465 -0.1836  1.8170
18433TIP3    H276715   3.375   6.528   2.379 -0.0199  0.5162 -0.1094
18434TIP3   OH276716   4.004   5.355   6.595 -0.0647  0.1535 -0.2365
18434TIP3    H176717   3.915   5.325   6.576 -0.6967  0.3879  2.1142
18434TIP3    H276718   4.002   5.449   6.576 -0.4884  0.2552  0.2731
18435TIP3   OH276719   3.003   4.161   4.517  0.4909  0.0786  0.6607
18435TIP3    H176720   2.911   4.133   4.520 -0.1358  1.9594 -0.1154
18435TIP3    H276721   3.049   4.087   4.478 -0.2981 -1.8264  3.2058
18436TIP3   OH276722   2.531   2.837  12.797 -0.5814 -0.2589  0.3561
18436TIP3    H176723   2.437   2.846  12.779 -0.3719 -1.7448 -1.6682
18436TIP3    H276724   2.535   2.788  12.879 -1.5927 -1.3767 -0.2390
18437TIP3   OH276725   4.699   1.613   3.788  0.0183  0.5959  0.1068
18437TIP3    H176726   4.637   1.681   3.815 -1.3345 -0.0871 -1.2002
18437TIP3    H276727   4.684   1.541   3.849  0.3509  0.8757  0.5189
18438TIP3   OH276728   5.363   5.694  16.093  0.2328 -0.8854 -0.0311
18438TIP3    H176729   5.355   5.677  16.187  0.9600  0.7250  0.3389
18438TIP3    H276730   5.315   5.775  16.078 -1.2810 -1.9839 -1.3693
18439TIP3   OH276731   1.519   4.211   2.921 -0.8813 -0.2932 -0.6589
18439TIP3    H176732   1.597   4.266   2.920 -0.3605 -1.0181  0.0976
18439TIP3    H276733   1.462   4.252   2.986 -0.6825 -0.3812 -0.4284
18440TIP3   OH276734   2.013   0.463  11.495 -0.1264  0.5135  0.0435
18440TIP3    H176735   2.100   0.456  11.536  0.1603 -0.1876 -0.6767
18440TIP3    H276736   1.951   0.444  11.566  0.3354  0.1100  0.3443
18441TIP3   OH276737   3.832   3.390  14.888  0.1656  0.6024 -0.2830
18441TIP3    H176738   3.845   3.299  14.861 -0.7494 -0.1337  1.6212
18441TIP3    H276739   3.880   3.398  14.971  0.4420  1.9345 -0.5541
18442TIP3   OH276740   4.440   3.826   3.935  0.4363 -0.6144 -0.4572
18442TIP3    H176741   4.487   3.894   3.983 -1.4991  1.2023 -1.0387
18442TIP3    H276742   4.502   3.753   3.930  2.4162  0.9344  0.5610
18443TIP3   OH276743   3.564   0.626  10.530 -0.1277 -0.1214  0.2806
18443TIP3    H176744   3.642   0.572  10.513 -0.7259 -0.6888 -0.7234
18443TIP3    H276745   3.576   0.703  10.474 -0.1730 -0.0917  0.3119
18444TIP3   OH276746   0.729   3.957  16.687  0.0574 -0.4348  0.7300
18444TIP3    H176747   0.748   3.879  16.635  1.0384  0.0710  0.3149
18444TIP3    H276748   0.653   3.933  16.739 -0.3053 -1.3007 -0.1848
18445TIP3   OH276749   2.482   3.937  13.067  0.3362 -0.7092  0.2691
18445TIP3    H176750   2.524   3.983  12.995  0.5727 -2.0771 -0.4808
18445TIP3    H276751   2.548   3.936  13.137  0.5723 -0.5035  0.0490
18446TIP3   OH276752   1.964   2.850  12.698  0.4090  0.2848 -0.6636
18446TIP3    H176753   1.870   2.859  12.684  0.2922  4.4846  1.8565
18446TIP3    H276754   2.003   2.892  12.621  0.1293  1.4005 -0.2158
18447TIP3   OH276755   1.498   4.404   4.192 -0.3795 -0.1504 -0.4601
18447TIP3    H176756   1.484   4.397   4.287  0.6777 -0.3130 -0.3071
18447TIP3    H276757   1.451   4.328   4.155  0.9978 -1.3157  0.1303
18448TIP3   OH276758   4.105   1.821  15.843 -0.3317 -0.0965 -0.6861
18448TIP3    H176759   4.100   1.764  15.919 -0.7076  0.0517 -0.6021
18448TIP3    H276760   4.172   1.780  15.787  1.2930  0.8018  0.5524
18449TIP3   OH276761   0.751   4.073   3.918  0.5800  0.1248  0.0162
18449TIP3    H176762   0.725   3.981   3.917 -0.2705  0.3587 -0.3325
18449TIP3    H276763   0.815   4.082   3.848  0.5755 -0.1747 -0.0251
18450TIP3   OH276764   0.763   5.463  13.346 -0.0055  0.5306 -0.6222
18450TIP3    H176765   0.752   5.548  13.389 -1.5134  0.3665 -0.6621
18450TIP3    H276766   0.681   5.449  13.299  1.1585  0.1324 -2.5628
18451TIP3   OH276767   6.376   1.155  17.190  0.0621  0.2337 -0.0975
18451TIP3    H176768   6.403   1.163  17.281  0.7087  1.4678 -0.3849
18451TIP3    H276769   6.436   1.090  17.152 -0.6911 -0.8474  0.5249
18452TIP3   OH276770   0.515   5.894  14.400 -0.9502  0.4010  0.1782
18452TIP3    H176771   0.430   5.937  14.407 -1.9011 -1.4690  0.4429
18452TIP3    H276772   0.516   5.857  14.311 -0.9688 -0.7126  0.6368
18453TIP3   OH276773   4.661   0.908   0.886 -0.0241 -0.2196  0.2423
18453TIP3    H176774   4.698   0.919   0.798  0.6647 -0.0775  0.5496
18453TIP3    H276775   4.707   0.832   0.921  0.1116  0.0744  0.6978
18454TIP3   OH276776   2.886   3.154   2.526  0.3347  0.3124 -0.1190
18454TIP3    H176777   2.869   3.236   2.481  0.9256  1.1223  1.1164
18454TIP3    H276778   2.804   3.135   2.572 -0.1623 -0.3530 -1.2522
18455TIP3   OH276779   4.970   3.566  14.118 -0.2524  0.3749 -0.0616
18455TIP3    H176780   4.939   3.657  14.121 -0.1801  0.4311 -0.9418
18455TIP3    H276781   5.039   3.562  14.184 -2.9123 -0.0602  2.8481
18456TIP3   OH276782   4.581   1.392   1.808 -1.0779 -0.2374 -0.0162
18456TIP3    H176783   4.547   1.315   1.762  1.2861 -1.6172  0.4732
18456TIP3    H276784   4.547   1.383   1.897 -3.4840  1.0537 -0.7514
18457TIP3   OH276785   5.295   6.444   3.296 -0.0672  0.5857  0.2632
18457TIP3    H176786   5.309   6.406   3.210 -0.2962  0.6487  0.1964
18457TIP3    H276787   5.321   6.536   3.286 -0.3372  0.6560  0.1910
18458TIP3   OH276788   0.991   6.736   4.019 -0.2384 -0.4343  0.0663
18458TIP3    H176789   0.898   6.715   4.009 -0.3566 -0.7143  1.7272
18458TIP3    H276790   1.000   6.764   4.110  0.8078  2.2140 -0.8012
18459TIP3   OH276791   1.383   5.575   5.529  0.6808  0.2728  0.5968
18459TIP3    H176792   1.361   5.611   5.443  0.6470  1.2232  0.9984
18459TIP3    H276793   1.473   5.544   5.520  0.0947 -1.2271 -0.2820
18460TIP3   OH276794   1.554   0.045  10.281 -0.0657  0.1495  0.2320
18460TIP3    H176795   1.577   0.118  10.225 -1.0400  0.2915  0.0104
18460TIP3    H276796   1.637   0.016  10.319  0.1071  2.4711  1.6849
18461TIP3   OH276797   6.126   1.340   4.909 -0.0144 -0.1901  0.1653
18461TIP3    H176798   6.120   1.392   4.829  0.2893 -2.8875 -1.7083
18461TIP3    H276799   6.144   1.403   4.978 -0.9247  2.2916 -1.7903
18462TIP3   OH276800   1.499   1.362  16.365  0.1796  0.0470  0.3955
18462TIP3    H176801   1.479   1.319  16.449  1.2270 -0.8227  0.2153
18462TIP3    H276802   1.418   1.354  16.314 -0.7441  1.3032  1.5998
18463TIP3   OH276803   3.926   0.036  11.620  0.5565  0.1015  0.4241
18463TIP3    H176804   3.851  -0.020  11.641  0.2280 -0.4083 -2.0365
18463TIP3    H276805   3.903   0.076  11.536  1.2056  3.1958  1.6566
18464TIP3   OH276806   0.762   5.190   4.144 -0.1394  0.1653  0.1287
18464TIP3    H176807   0.789   5.109   4.102  1.1623  0.1700  0.9143
18464TIP3    H276808   0.676   5.171   4.181 -0.3877 -0.4577 -0.7705
18465TIP3   OH276809   5.390   4.072  17.121  0.1709 -0.0721  0.3019
18465TIP3    H176810   5.407   4.146  17.063 -1.2222  0.4287  0.4995
18465TIP3    H276811   5.462   4.074  17.184  0.2406  1.0191  0.2038
18466TIP3   OH276812   2.014   4.099   0.496  0.1022 -0.4516 -0.7352
18466TIP3    H176813   2.073   4.099   0.421 -0.5025 -2.5530 -1.2524
18466TIP3    H276814   2.071   4.115   0.571  1.0008 -0.2821 -1.4368
18467TIP3   OH276815   0.805   2.902   3.339 -0.1635  0.0467 -0.9026
18467TIP3    H176816   0.788   2.978   3.283 -3.1984 -0.1449 -0.3080
18467TIP3    H276817   0.720   2.859   3.348  1.0579 -2.1552  0.6366
18468TIP3   OH276818   6.049   5.520  15.346 -0.0789  0.2168  0.2389
18468TIP3    H176819   6.093   5.517  15.431 -0.3670  0.6817  0.4065
18468TIP3    H276820   6.012   5.608  15.341 -0.1663  0.1488 -0.3164
18469TIP3   OH276821   2.304   0.967  11.517  0.2428  0.3500 -0.2574
18469TIP3    H176822   2.337   0.923  11.439  0.6668  0.5641 -0.2021
18469TIP3    H276823   2.249   0.902  11.560  0.0842  0.2012 -0.6875
18470TIP3   OH276824   1.506   4.329   4.518  0.4815  0.5319  0.2901
18470TIP3    H176825   1.437   4.287   4.467  2.0479 -0.2855 -1.2210
18470TIP3    H276826   1.490   4.300   4.608  0.1003 -1.3660 -0.3602
18471TIP3   OH276827   3.475   2.545   1.207 -0.2061  0.4762 -0.2522
18471TIP3    H176828   3.543   2.604   1.174  0.2238 -0.7316 -1.5931
18471TIP3    H276829   3.520   2.490   1.271  0.3209 -0.9280 -1.8021
18472TIP3   OH276830   3.349   0.264   1.972  0.1036 -0.0337 -0.1697
18472TIP3    H176831   3.442   0.261   1.995 -0.1696 -0.2581  0.9426
18472TIP3    H276832   3.307   0.207   2.037 -0.8176  0.1066 -0.6394
18473TIP3   OH276833   4.224   2.604   6.183 -0.0976 -0.1603  0.3575
18473TIP3    H176834   4.211   2.611   6.277 -1.2901  0.2895  0.1643
18473TIP3    H276835   4.298   2.661   6.164  0.6053 -0.8166  1.1258
18474TIP3   OH276836   5.138   0.984  15.002  0.1956  0.4844 -0.4145
18474TIP3    H176837   5.212   1.041  15.026  1.0511 -0.4595 -0.7750
18474TIP3    H276838   5.121   1.005  14.910  0.5490  0.1007 -0.5644
18475TIP3   OH276839   3.611   2.642  13.924  0.1420  0.1050 -0.0532
18475TIP3    H176840   3.570   2.557  13.910 -0.6047  0.3580  0.5243
18475TIP3    H276841   3.631   2.675  13.837 -1.7006  0.3581 -0.3898
18476TIP3   OH276842   1.162   6.095   4.310  0.3224 -0.1162 -0.5960
18476TIP3    H176843   1.255   6.077   4.320  0.2257 -0.6860 -0.6823
18476TIP3    H276844   1.158   6.176   4.260  0.7784  0.5512  0.4290
18477TIP3   OH276845   5.927   5.039   4.579  0.1022  0.6662 -0.3399
18477TIP3    H176846   5.939   5.063   4.671 -0.1910  0.4564 -0.2483
18477TIP3    H276847   6.016   5.034   4.544  0.1802  2.1600 -0.4232
18478TIP3   OH276848   6.350   6.781   5.239 -0.0698  0.3714 -0.0858
18478TIP3    H176849   6.432   6.767   5.286  0.8361 -0.1700 -1.7626
18478TIP3    H276850   6.308   6.694   5.237 -0.2897  0.4740  0.0637
18479TIP3   OH276851   0.699   6.002  11.611  0.5208 -0.2927 -0.8296
18479TIP3    H176852   0.678   6.013  11.704  1.0282 -1.3059 -0.5856
18479TIP3    H276853   0.620   5.961  11.574 -0.4584  1.9384 -1.2634
18480TIP3   OH276854   2.264   0.663   4.910  0.3847 -0.0252 -0.2295
18480TIP3    H176855   2.341   0.689   4.860  0.9686 -0.6820  0.3221
18480TIP3    H276856   2.298   0.633   4.994 -0.6862  2.4471  1.1483
18481TIP3   OH276857   2.358   2.175  16.556  0.4068  0.2692  0.0269
18481TIP3    H176858   2.320   2.087  16.564  1.5741 -0.1931  0.5536
18481TIP3    H276859   2.297   2.232  16.603 -0.1282 -0.3224  0.0532
18482TIP3   OH276860   4.454   4.782  12.839 -0.1382  0.6409 -0.9623
18482TIP3    H176861   4.479   4.873  12.822  2.7695 -0.0516 -0.7185
18482TIP3    H276862   4.402   4.786  12.919  1.0707  1.9631 -0.2171
18483TIP3   OH276863   0.955   5.345   0.980  0.0555 -0.1592 -0.2902
18483TIP3    H176864   0.870   5.324   1.019 -1.5091  2.1494 -2.3378
18483TIP3    H276865   1.014   5.278   1.015 -1.9928 -0.2978  3.2051
18484TIP3   OH276866   4.869   5.188  13.774 -0.4247 -0.0245 -0.1516
18484TIP3    H176867   4.786   5.235  13.770 -1.7554 -2.2541  0.1720
18484TIP3    H276868   4.878   5.161  13.866  0.7242  0.2837 -0.1562
18485TIP3   OH276869   2.467   3.558   6.589 -0.1225 -0.0512 -0.4140
18485TIP3    H176870   2.537   3.532   6.529 -0.7870 -0.7043 -0.9146
18485TIP3    H276871   2.402   3.487   6.582 -0.4847  0.1788  0.6061
18486TIP3   OH276872   0.029   4.849  15.469  0.0461  0.0947 -0.5478
18486TIP3    H176873   0.037   4.935  15.510  0.2985 -0.9623  1.6996
18486TIP3    H276874  -0.039   4.860  15.402 -2.0264  1.3568  1.6631
18487TIP3   OH276875   3.049   4.484   5.488 -0.1007  0.6148 -0.0880
18487TIP3    H176876   2.968   4.517   5.450 -0.7521  0.5589  1.2029
18487TIP3    H276877   3.024   4.458   5.577  1.0071 -0.7681 -0.1682
18488TIP3   OH276878   2.801   1.059  13.386  0.2117  0.0071 -0.2801
18488TIP3    H176879   2.765   0.973  13.407 -0.3136  0.1661 -0.5205
18488TIP3    H276880   2.822   1.055  13.292 -0.2550  0.2989 -0.3965
18489TIP3   OH276881   4.517   1.758  13.276  0.3575  0.9989 -0.4086
18489TIP3    H176882   4.448   1.734  13.214  1.3747  1.7744 -1.8688
18489TIP3    H276883   4.542   1.846  13.250  0.5153  1.4983  1.3918
18490TIP3   OH276884   2.834   0.542   1.713 -0.0800 -0.1998 -0.1550
18490TIP3    H176885   2.860   0.552   1.804 -0.9207 -0.2568  0.0974
18490TIP3    H276886   2.875   0.460   1.685  0.0378 -0.2698  0.2216
18491TIP3   OH276887   4.995   0.872   1.982 -0.1878  0.5509  0.4556
18491TIP3    H176888   4.979   0.807   1.914  0.6527  1.2049 -0.3863
18491TIP3    H276889   5.043   0.825   2.050 -0.8878 -0.0663  0.5290
18492TIP3   OH276890   0.934   5.834  11.412  0.1446 -0.2359  0.5837
18492TIP3    H176891   0.922   5.747  11.451  0.4526 -0.8129 -0.5525
18492TIP3    H276892   0.989   5.817  11.335 -0.5201  0.8458 -0.1410
18493TIP3   OH276893   4.695   2.127  12.408  0.5639 -0.4912  0.5324
18493TIP3    H176894   4.733   2.109  12.322 -0.1185 -0.2738  0.1816
18493TIP3    H276895   4.646   2.048  12.430 -1.0692  0.2753 -0.2672
18494TIP3   OH276896   6.070   5.459  11.882 -0.6517  0.4963  0.4566
18494TIP3    H176897   6.009   5.389  11.860 -0.7866  0.1949  1.7384
18494TIP3    H276898   6.100   5.493  11.798 -0.7214 -0.9797 -0.1702
18495TIP3   OH276899   5.364   2.220  16.687 -0.2610  0.2176 -0.3430
18495TIP3    H176900   5.278   2.187  16.662  0.1676 -0.4266 -1.0029
18495TIP3    H276901   5.371   2.305  16.645 -1.7439  1.5983  2.0991
18496TIP3   OH276902   5.288   3.134  12.404  0.0945 -0.2136  0.2078
18496TIP3    H176903   5.324   3.208  12.453  2.3510 -1.2852  0.2133
18496TIP3    H276904   5.209   3.109  12.452 -0.2902  1.6977  0.6199
18497TIP3   OH276905   4.811   4.737   4.870 -0.4170 -0.1643  0.1502
18497TIP3    H176906   4.719   4.710   4.869 -0.0497 -1.4224 -0.0982
18497TIP3    H276907   4.859   4.664   4.831  0.5806  0.9316 -0.7390
18498TIP3   OH276908   5.319   6.312   4.280 -0.2457  0.8301 -0.3972
18498TIP3    H176909   5.229   6.280   4.278  0.4498 -1.1728 -0.4246
18498TIP3    H276910   5.335   6.347   4.193 -0.0052 -1.6547 -1.3743
18499TIP3   OH276911   4.286   4.787  11.869 -0.6091  0.0737 -0.0722
18499TIP3    H176912   4.325   4.850  11.929  0.1359  0.0291 -0.5017
18499TIP3    H276913   4.359   4.731  11.843 -0.9887 -0.1000 -0.7776
18500TIP3   OH276914   4.820   3.459  16.352  0.3799  0.1659  0.1350
18500TIP3    H176915   4.832   3.460  16.446  1.0673 -2.0445  0.1100
18500TIP3    H276916   4.731   3.491  16.338 -0.8679 -2.4647  1.7658
18501TIP3   OH276917   0.344   3.024  16.506  0.1091  0.3079  0.4505
18501TIP3    H176918   0.283   3.033  16.433  0.3857  0.2639  0.2119
18501TIP3    H276919   0.423   3.069  16.476 -0.3429  1.7583  1.3700
18502TIP3   OH276920   6.133   3.890  16.774  0.2951 -0.6027 -0.5082
18502TIP3    H176921   6.056   3.901  16.829  0.5514  2.0572 -0.5983
18502TIP3    H276922   6.098   3.878  16.686 -0.0270  0.4425 -0.5248
18503TIP3   OH276923   5.387   1.235  12.026  0.2471  0.3288 -0.0652
18503TIP3    H176924   5.314   1.194  11.980  0.6811 -0.3793 -0.1232
18503TIP3    H276925   5.416   1.304  11.966  0.9802 -0.7606 -0.9904
18504TIP3   OH276926   2.649   4.635  13.747 -0.1666  0.3713  0.2951
18504TIP3    H176927   2.726   4.598  13.705 -1.7657 -1.3639 -1.2289
18504TIP3    H276928   2.683   4.683  13.822  2.4535  0.4467 -0.8803
18505TIP3   OH276929   0.051   5.629   6.089 -0.4913 -0.1500  0.4122
18505TIP3    H176930   0.024   5.694   6.025 -1.1597  2.1009  2.9061
18505TIP3    H276931  -0.030   5.585   6.115 -0.2160 -1.0893 -0.2808
18506TIP3   OH276932   0.701   1.570   3.833 -0.2424  0.1610  0.2670
18506TIP3    H176933   0.685   1.642   3.894 -0.0457  0.5979 -0.1919
18506TIP3    H276934   0.652   1.496   3.870 -0.5415  0.5591  0.6772
18507TIP3   OH276935   4.776   2.392   0.627  0.0978 -0.0459  0.6244
18507TIP3    H176936   4.691   2.362   0.660  0.0180  1.3519  1.7443
18507TIP3    H276937   4.759   2.480   0.594  0.5337 -0.8152 -1.7236
18508TIP3   OH276938   5.293   0.220   3.720 -0.3805 -0.2652 -0.3903
18508TIP3    H176939   5.245   0.146   3.685  0.9371 -0.2712 -2.2529
18508TIP3    H276940   5.273   0.293   3.661  1.4288 -0.1461 -0.9160
18509TIP3   OH276941   0.777   5.033   6.202  0.3548  0.2101  0.1038
18509TIP3    H176942   0.817   5.095   6.263  0.1772 -1.4377  1.9438
18509TIP3    H276943   0.817   4.949   6.223 -3.7408 -1.4453  1.7972
18510TIP3   OH276944   4.799   4.893   5.103  0.3493 -0.4484 -0.1619
18510TIP3    H176945   4.750   4.975   5.093 -1.2380 -1.1023  1.9975
18510TIP3    H276946   4.766   4.837   5.032 -0.1771 -0.0100 -0.2661
18511TIP3   OH276947   1.484   6.476   2.487 -0.3285  0.2189  0.0969
18511TIP3    H176948   1.572   6.440   2.475 -0.2292  0.1768  0.9547
18511TIP3    H276949   1.497   6.555   2.539 -0.6218  1.1369 -1.1978
18512TIP3   OH276950   2.083   1.446  14.036  0.3049 -0.1542 -0.1766
18512TIP3    H176951   2.174   1.464  14.057  0.5341 -0.2972 -1.0530
18512TIP3    H276952   2.078   1.351  14.026  0.1268 -0.1147 -0.4697
18513TIP3   OH276953   5.801   5.607   3.203 -0.2032 -0.2216  0.0060
18513TIP3    H176954   5.755   5.535   3.246 -0.3822 -0.5853 -0.7774
18513TIP3    H276955   5.781   5.684   3.257 -1.0596 -0.5238  0.1385
18514TIP3   OH276956   3.500   2.319  17.128  0.2824 -0.5432  0.1204
18514TIP3    H176957   3.465   2.288  17.212 -1.7062  0.0433 -0.4720
18514TIP3    H276958   3.586   2.355  17.150 -0.8802  1.0966  2.2011
18515TIP3   OH276959   5.615   2.253   1.181  0.2272  0.2830 -0.7506
18515TIP3    H176960   5.536   2.260   1.234  1.2751 -0.5035  0.9546
18515TIP3    H276961   5.670   2.327   1.208  0.8368 -0.2114 -0.6164
18516TIP3   OH276962   1.033   4.052  13.250  0.0147 -0.8011  0.5050
18516TIP3    H176963   0.994   4.035  13.164  0.9232 -0.7095  0.0646
18516TIP3    H276964   0.962   4.038  13.312 -0.3663 -1.9540 -0.1793
18517TIP3   OH276965   6.443   3.437   0.808  0.0428  0.1781 -0.3220
18517TIP3    H176966   6.494   3.424   0.728 -0.5249 -1.8963 -0.3878
18517TIP3    H276967   6.507   3.460   0.874  1.2480 -3.1115 -0.2330
18518TIP3   OH276968   1.400   5.869   0.133 -0.2589 -0.3355  0.3197
18518TIP3    H176969   1.339   5.941   0.118  0.5227  0.3917  0.5691
18518TIP3    H276970   1.484   5.912   0.149  0.6068 -1.3396 -1.3225
18519TIP3   OH276971   1.324   5.862  12.193 -0.3370  0.1186  0.0297
18519TIP3    H176972   1.324   5.893  12.284 -1.5526  0.0702  0.0471
18519TIP3    H276973   1.372   5.779  12.196  0.1299  0.4024  0.5209
18520TIP3   OH276974   5.485   2.265   2.348  0.2832 -0.2733  0.6666
18520TIP3    H176975   5.409   2.208   2.333  1.9475 -2.0055 -1.7236
18520TIP3    H276976   5.483   2.327   2.275  0.8601  0.0199  0.8998
18521TIP3   OH276977   2.648   2.789   6.537  0.0876 -0.2942 -0.3475
18521TIP3    H176978   2.568   2.817   6.583  0.8006  0.5914  0.3657
18521TIP3    H276979   2.635   2.820   6.448  0.0700  0.7381  0.0044
18522TIP3   OH276980   1.585   5.981  10.998  0.3621  0.0598 -0.2273
18522TIP3    H176981   1.494   5.978  10.970  0.2959 -0.0151 -0.0054
18522TIP3    H276982   1.633   6.010  10.920  0.1124  0.3896 -0.2621
18523TIP3   OH276983   3.177   5.325  11.729  0.0832 -0.1720 -0.1423
18523TIP3    H176984   3.157   5.353  11.818 -1.4223 -2.1194  0.1726
18523TIP3    H276985   3.140   5.393  11.673  1.4565  1.2975  0.7182
18524TIP3   OH276986   0.533   3.516   2.650  0.6260  0.5580  0.5333
18524TIP3    H176987   0.484   3.527   2.732 -1.8799  2.7206 -1.1788
18524TIP3    H276988   0.611   3.571   2.663  0.5992  0.3316  1.7392
18525TIP3   OH276989   0.536   0.176  14.364  0.4097 -0.4099  0.2201
18525TIP3    H176990   0.441   0.174  14.353  0.1346 -0.4448  2.3609
18525TIP3    H276991   0.562   0.264  14.335 -0.2739 -0.4273 -0.4298
18526TIP3   OH276992   2.191   1.253  16.113 -0.6607 -0.2647  0.3814
18526TIP3    H176993   2.220   1.276  16.025 -0.4259 -0.0687  0.5101
18526TIP3    H276994   2.210   1.160  16.122  0.3405 -0.0415  0.6287
18527TIP3   OH276995   4.737   6.778   5.391  0.3098 -0.2729 -0.5823
18527TIP3    H176996   4.731   6.701   5.447  1.7787 -0.6558 -0.9299
18527TIP3    H276997   4.665   6.769   5.329 -0.2164 -0.7744  0.1083
18528TIP3   OH276998   3.552   4.066  11.182  0.1953  0.0022  0.1375
18528TIP3    H176999   3.513   4.151  11.201 -0.1919 -0.3866  1.1112
18528TIP3    H277000   3.644   4.075  11.208  0.2502  0.2438 -0.1365
18529TIP3   OH277001   3.557   1.930  12.810  0.3422 -0.5006  0.0003
18529TIP3    H177002   3.498   2.004  12.796 -0.3978 -1.0365  0.2500
18529TIP3    H277003   3.515   1.856  12.766  0.5599 -1.0004  0.6098
18530TIP3   OH277004   1.308   0.958   4.291  0.2140  0.5781 -0.1748
18530TIP3    H177005   1.305   0.885   4.353  1.0273  1.3498  0.8022
18530TIP3    H277006   1.302   1.036   4.346 -0.3788  1.2586 -1.1831
18531TIP3   OH277007   4.049   4.788  15.102 -0.4898  0.1006  0.6301
18531TIP3    H177008   4.122   4.838  15.137  0.7625  0.0796 -1.8394
18531TIP3    H277009   4.033   4.824  15.015 -0.8373 -2.4572 -0.4337
18532TIP3   OH277010   3.729   4.470   1.670 -0.0156  0.0764  0.8071
18532TIP3    H177011   3.817   4.460   1.633 -0.6453 -0.5271 -0.5824
18532TIP3    H277012   3.715   4.564   1.672  1.1582  0.2379  2.2640
18533TIP3   OH277013   5.779   3.995   2.409 -0.1907  0.2894  0.3647
18533TIP3    H177014   5.757   3.937   2.337 -2.4973 -0.6058  1.7160
18533TIP3    H277015   5.854   4.045   2.378  0.5779 -1.9788 -1.5990
18534TIP3   OH277016   2.683   5.151   6.186  0.3250 -0.0873 -0.1110
18534TIP3    H177017   2.620   5.222   6.194  0.5620  0.2118 -0.8341
18534TIP3    H277018   2.633   5.072   6.204 -0.2846  0.1352 -0.8171
18535TIP3   OH277019   1.086   2.017  12.340 -0.0951  0.4695  0.4964
18535TIP3    H177020   1.125   1.965  12.270  1.7494  2.2744  0.1346
18535TIP3    H277021   1.033   1.955  12.389 -0.6141 -1.0343 -1.8931
18536TIP3   OH277022   5.264   3.494   4.499 -0.2319  0.7939 -0.3149
18536TIP3    H177023   5.202   3.455   4.438 -0.0554  1.0921 -0.6930
18536TIP3    H277024   5.303   3.567   4.449  0.8295  0.2577 -0.2821
18537TIP3   OH277025   2.557   5.171  16.795  0.0327  0.3575 -0.0282
18537TIP3    H177026   2.599   5.091  16.826 -0.5678  0.4210  0.9430
18537TIP3    H277027   2.514   5.144  16.713 -1.3393 -0.6539  1.0118
18538TIP3   OH277028   2.314   4.626   0.685  0.1679  0.3384  0.1195
18538TIP3    H177029   2.379   4.687   0.720 -1.0088  1.0065  1.1912
18538TIP3    H277030   2.247   4.682   0.646 -0.9752 -0.2420  1.2085
18539TIP3   OH277031   4.385   5.198   4.282  0.3130  0.9989 -0.0944
18539TIP3    H177032   4.341   5.120   4.248  0.2480  0.9089  0.1928
18539TIP3    H277033   4.340   5.218   4.364  1.4382  0.3198  0.7081
18540TIP3   OH277034   2.673   5.375  13.592  0.1960  0.0806 -0.2973
18540TIP3    H177035   2.588   5.383  13.636 -1.1322  1.3192 -2.9622
18540TIP3    H277036   2.691   5.281  13.592 -0.6653 -0.1052  1.1845
18541TIP3   OH277037   3.122   5.761   3.722 -0.0268  0.3246 -0.3654
18541TIP3    H177038   3.146   5.716   3.641 -0.8140  0.6228 -0.7672
18541TIP3    H277039   3.195   5.821   3.738  1.3067 -1.4882  0.4914
18542TIP3   OH277040   2.956   5.252  11.097 -0.0686 -0.2410 -0.3526
18542TIP3    H177041   2.915   5.334  11.126  1.0893  0.4185 -0.5630
18542TIP3    H277042   2.943   5.192  11.170 -0.2378  0.3564  0.1162
18543TIP3   OH277043   2.912   1.290  17.142 -0.1211  0.2398  0.5406
18543TIP3    H177044   2.858   1.215  17.114  2.5815 -1.8297  0.6584
18543TIP3    H277045   2.957   1.258  17.220  1.9181  1.6184 -0.0407
18544TIP3   OH277046   6.155   0.030   3.688 -0.0974 -0.1674 -0.0699
18544TIP3    H177047   6.231   0.027   3.630 -0.3721  0.5512 -0.4742
18544TIP3    H277048   6.108  -0.051   3.670 -0.1084 -0.0166 -0.7671
18545TIP3   OH277049   0.293   6.661  15.160  0.2868  0.2774 -0.1956
18545TIP3    H177050   0.249   6.736  15.121 -0.6541  0.8297  1.8763
18545TIP3    H277051   0.230   6.589  15.153  0.9921 -0.2098 -1.7192
18546TIP3   OH277052   0.154   6.384  16.116 -0.2898  0.3962 -0.2584
18546TIP3    H177053   0.194   6.470  16.131 -0.4989  0.7264 -1.5569
18546TIP3    H277054   0.117   6.360  16.201  2.0734  0.3846  0.8276
18547TIP3   OH277055   0.552   2.706   0.066 -0.5407  0.2615 -0.2348
18547TIP3    H177056   0.570   2.616   0.038 -1.6412  1.0269 -3.6667
18547TIP3    H277057   0.458   2.708   0.082 -0.5398  0.8315 -0.2958
18548TIP3   OH277058   2.471   3.910   2.129  0.2391  0.3274 -0.4235
18548TIP3    H177059   2.473   3.818   2.104  1.9015  0.3998 -0.5850
18548TIP3    H277060   2.504   3.912   2.219 -0.3527  0.7078 -0.2093
18549TIP3   OH277061   4.046   5.102  14.602  0.3765 -0.7717  0.1999
18549TIP3    H177062   3.960   5.073  14.570  0.5351 -2.8845  1.5427
18549TIP3    H277063   4.108   5.065  14.540  0.2338  3.7477 -2.8525
18550TIP3   OH277064   0.666   2.718   4.486  0.3772 -0.8097 -0.0293
18550TIP3    H177065   0.715   2.704   4.567 -0.7888  0.7469  0.9798
18550TIP3    H277066   0.587   2.665   4.496  1.1138 -2.1141 -0.9905
18551TIP3   OH277067   0.512   5.051   1.538  0.2135  0.4830 -0.1227
18551TIP3    H177068   0.453   4.982   1.568  0.1809  1.2824  1.6635
18551TIP3    H277069   0.486   5.066   1.447 -0.0929 -1.5194 -0.3928
18552TIP3   OH277070   3.437   2.279  11.183 -0.1923  1.0922 -0.0273
18552TIP3    H177071   3.396   2.240  11.260 -0.8135  0.6909 -0.5549
18552TIP3    H277072   3.424   2.215  11.113  0.9851  1.1467 -0.3057
18553TIP3   OH277073   3.932   1.479   5.599 -0.0365  0.1949 -0.1585
18553TIP3    H177074   3.952   1.550   5.660 -1.6644  1.7581 -1.3903
18553TIP3    H277075   3.850   1.441   5.633  1.1080 -1.5023  0.8095
18554TIP3   OH277076   5.439   2.993  16.273 -0.0466  0.3611  0.3357
18554TIP3    H177077   5.372   3.049  16.313 -1.2231  0.2990 -1.4677
18554TIP3    H277078   5.430   3.009  16.179 -0.8875 -3.3991 -0.2873
18555TIP3   OH277079   3.114   6.603  15.935 -0.4641  0.3978 -0.0223
18555TIP3    H177080   3.190   6.582  15.880  0.7404  1.1121  1.3473
18555TIP3    H277081   3.057   6.527  15.926  0.2388 -0.0045 -1.3469
18556TIP3   OH277082   1.098   5.504  12.801  0.4447 -1.1218 -0.4711
18556TIP3    H177083   1.079   5.554  12.881  0.7820 -2.0145  0.1761
18556TIP3    H277084   1.033   5.534  12.738  2.9500  2.9815 -1.3432
18557TIP3   OH277085   1.039   2.242   4.494 -0.2534  0.8131  0.4309
18557TIP3    H177086   1.110   2.229   4.557  0.9710 -1.8263 -1.3687
18557TIP3    H277087   1.030   2.337   4.487  3.1482  1.2135  0.6972
18558TIP3   OH277088   2.746   1.911  16.108  0.1141  0.0944 -0.4144
18558TIP3    H177089   2.771   1.953  16.190  0.5460  0.1530 -0.5754
18558TIP3    H277090   2.668   1.859  16.130  0.0393  0.3637 -0.0442
18559TIP3   OH277091   5.210   5.193  13.309 -0.1372 -0.0265  0.1933
18559TIP3    H177092   5.132   5.226  13.355  0.2541 -0.0906  0.9204
18559TIP3    H277093   5.214   5.100  13.332 -0.3914 -0.2454 -0.6320
18560TIP3   OH277094   6.061   5.363   4.575 -0.5152 -0.8315 -0.5509
18560TIP3    H177095   5.966   5.377   4.568 -0.7094 -0.8772  1.6541
18560TIP3    H277096   6.082   5.385   4.665  1.4962 -1.3986 -0.8514
18561TIP3   OH277097   2.704   4.254  13.528  0.0782  0.1571  0.9559
18561TIP3    H177098   2.615   4.291  13.529 -0.2424 -0.5507 -0.5134
18561TIP3    H277099   2.755   4.320  13.480  0.1287  0.0981  0.9299
18562TIP3   OH277100   2.864   0.348   4.968  0.0334  0.2690 -0.1690
18562TIP3    H177101   2.842   0.415   4.903  1.9833  0.7274 -0.3813
18562TIP3    H277102   2.790   0.287   4.964  0.0259  0.3634 -2.7226
18563TIP3   OH277103   1.279   4.301  14.451 -0.2053 -0.2484 -0.0204
18563TIP3    H177104   1.288   4.215  14.409  1.1172 -0.5873  0.9365
18563TIP3    H277105   1.186   4.323  14.439 -0.1583 -0.9685 -1.8697
18564TIP3   OH277106   4.344   1.793   2.132 -0.6590 -0.0656  0.2113
18564TIP3    H177107   4.295   1.855   2.077  0.9577  0.4160 -0.7416
18564TIP3    H277108   4.347   1.712   2.080 -0.3180 -0.0486  0.2041
18565TIP3   OH277109   3.552   1.146   5.366  0.0074 -0.2536  0.1575
18565TIP3    H177110   3.567   1.192   5.284  1.1006 -0.6284  0.1308
18565TIP3    H277111   3.579   1.055   5.348 -0.8762 -0.6058  0.5792
18566TIP3   OH277112   5.621   3.367   5.470  0.2804  0.2528 -0.0378
18566TIP3    H177113   5.709   3.401   5.480  0.1501  0.5422  0.1542
18566TIP3    H277114   5.633   3.276   5.444  0.6461 -0.1277  1.4131
18567TIP3   OH277115   4.137   1.220   5.790  0.6549  0.4547 -0.1133
18567TIP3    H177116   4.134   1.315   5.773  2.5623  0.6446  0.5554
18567TIP3    H277117   4.200   1.186   5.726  0.5410 -0.2693  0.1564
18568TIP3   OH277118   2.193   2.041   4.839 -0.0587 -0.1134 -0.9673
18568TIP3    H177119   2.164   1.957   4.803 -1.9826 -0.2083  0.7354
18568TIP3    H277120   2.117   2.099   4.828 -0.7301 -0.1535  2.8717
18569TIP3   OH277121   0.189   2.204  10.578  0.3088  0.0123 -0.1089
18569TIP3    H177122   0.220   2.136  10.518  0.1555 -0.3335  0.2011
18569TIP3    H277123   0.266   2.259  10.594  0.1260  0.6472 -1.3410
18570TIP3   OH277124   4.289   2.537   1.314  0.1047  0.1770  0.2324
18570TIP3    H177125   4.379   2.505   1.322 -0.0173  0.1582  1.7759
18570TIP3    H277126   4.296   2.612   1.255  1.1595  0.2475  0.4230
18571TIP3   OH277127   3.973   6.664   5.311  0.7421  0.1287  0.1131
18571TIP3    H177128   3.958   6.616   5.393  1.2850  0.8908  0.6590
18571TIP3    H277129   3.903   6.634   5.253  0.5560 -0.6696  0.7417
18572TIP3   OH277130   3.086   2.359  11.909 -0.3604  0.1027  0.4178
18572TIP3    H177131   3.112   2.267  11.912 -0.4408 -0.0190 -2.0002
18572TIP3    H277132   3.165   2.405  11.881 -0.7261  0.6138  0.2262
18573TIP3   OH277133   6.086   5.855   5.216 -0.1082 -0.3701  0.3212
18573TIP3    H177134   6.163   5.906   5.191 -0.1874 -0.6428 -0.5099
18573TIP3    H277135   6.025   5.920   5.250  0.1491 -0.0305  0.1406
18574TIP3   OH277136   4.043   1.496   5.349 -0.4838 -0.6667  0.2114
18574TIP3    H177137   4.054   1.410   5.308  1.6870 -0.1880 -0.2481
18574TIP3    H277138   4.007   1.476   5.436  0.8341 -2.1050  0.4428
18575TIP3   OH277139   5.824   6.135   0.394 -0.3270  0.3754  0.1717
18575TIP3    H177140   5.842   6.061   0.337 -1.0265  0.4886 -0.2056
18575TIP3    H277141   5.813   6.097   0.481 -0.4125  0.0644  0.0241
18576TIP3   OH277142   6.388   0.315  13.002  0.3487  0.0199  0.1064
18576TIP3    H177143   6.467   0.261  13.003  0.2340 -0.1691 -0.5175
18576TIP3    H277144   6.412   0.390  12.946 -0.0309 -0.2241 -0.3873
18577TIP3   OH277145   0.613   3.390   5.908  0.2178 -0.4681 -0.1164
18577TIP3    H177146   0.621   3.449   5.984  0.9626 -0.2736 -0.3399
18577TIP3    H277147   0.694   3.338   5.910  1.0401  0.6996 -1.7475
18578TIP3   OH277148   3.827   2.164   0.009 -0.4167 -0.2052  0.4538
18578TIP3    H177149   3.885   2.089   0.023 -0.7382 -0.7272 -0.9721
18578TIP3    H277150   3.757   2.130  -0.047 -0.6322  1.1362 -0.0961
18579TIP3   OH277151   5.802   4.960  13.346 -0.2884 -0.8659 -0.2144
18579TIP3    H177152   5.835   4.879  13.386 -0.4599 -0.8361 -0.0123
18579TIP3    H277153   5.868   5.026  13.369 -0.8505 -0.6536  0.7976
18580TIP3   OH277154   3.515   0.445   3.240  0.2241  0.2563 -0.0267
18580TIP3    H177155   3.514   0.410   3.329  2.9390  0.3157  0.0663
18580TIP3    H277156   3.481   0.534   3.248  0.0515  0.1090  0.8835
18581TIP3   OH277157   2.332   1.402  12.068  0.1310 -0.3169  0.5296
18581TIP3    H177158   2.308   1.331  12.128  2.4050 -0.8086  0.9052
18581TIP3    H277159   2.409   1.369  12.022  0.3868  1.3834 -0.2886
18582TIP3   OH277160   3.909   2.735  15.439 -0.1122 -0.1501  0.0138
18582TIP3    H177161   3.925   2.823  15.474 -0.0455 -1.1506  2.5141
18582TIP3    H277162   3.996   2.702  15.415 -0.1834  0.6212 -1.3663
18583TIP3   OH277163   4.766   6.559  11.507  0.0805  0.0606 -0.0370
18583TIP3    H177164   4.757   6.620  11.434 -0.2707 -0.0794 -0.1142
18583TIP3    H277165   4.703   6.490  11.488  1.7746 -1.2868 -0.8759
18584TIP3   OH277166   4.911   1.763  14.748 -0.4257  0.6346 -0.3149
18584TIP3    H177167   4.956   1.847  14.753 -3.2482  2.2190 -0.0323
18584TIP3    H277168   4.914   1.739  14.656  0.1600  1.2057 -0.4444
18585TIP3   OH277169   2.593   0.521   4.342  0.1038 -0.3176  0.3395
18585TIP3    H177170   2.583   0.603   4.294  3.2063  0.3653  0.7487
18585TIP3    H277171   2.509   0.508   4.385 -0.9872  1.7560 -1.0682
18586TIP3   OH277172   0.892   0.536   5.131 -0.4198  0.8142 -0.7016
18586TIP3    H177173   0.967   0.546   5.074  0.8827 -2.2807  0.3537
18586TIP3    H277174   0.929   0.518   5.217 -2.3611  1.0978  0.2267
18587TIP3   OH277175   5.339   5.237   1.420  0.0151 -0.3765 -0.6694
18587TIP3    H177176   5.291   5.250   1.338 -0.2437 -0.4124 -0.5211
18587TIP3    H277177   5.272   5.236   1.488  0.4853  3.0985 -0.0556
18588TIP3   OH277178   5.302   3.101   2.718  0.4031  0.2868 -0.0643
18588TIP3    H177179   5.326   3.174   2.662  1.3127 -0.7765 -1.0936
18588TIP3    H277180   5.385   3.063   2.746 -0.0479  0.2150  1.2361
18589TIP3   OH277181   5.240   3.458   2.888 -0.3087  0.1944  0.1978
18589TIP3    H177182   5.155   3.444   2.846 -1.1611  1.0517  1.6024
18589TIP3    H277183   5.257   3.377   2.937 -0.9811  0.5658  1.0476
18590TIP3   OH277184   0.469   5.395  14.657  0.9616 -0.0639 -0.0583
18590TIP3    H177185   0.511   5.446  14.727 -0.6252 -1.8566  2.2688
18590TIP3    H277186   0.456   5.458  14.586  0.7101  2.3512  2.0548
18591TIP3   OH277187   3.332   1.580   2.556 -0.9023 -0.4686  0.1685
18591TIP3    H177188   3.350   1.670   2.584 -3.1584  0.3845 -0.9614
18591TIP3    H277189   3.418   1.541   2.542  0.1269  2.2836 -1.6037
18592TIP3   OH277190   6.590   3.467   4.906  0.3464 -0.3202  0.7297
18592TIP3    H177191   6.514   3.418   4.874  1.0151 -0.6925 -0.2867
18592TIP3    H277192   6.598   3.440   4.998  0.1129 -1.3620  0.4514
18593TIP3   OH277193   3.338   3.464  13.880  0.1502 -0.6816 -0.1986
18593TIP3    H177194   3.315   3.378  13.915 -2.7259 -0.6864 -1.9471
18593TIP3    H277195   3.315   3.526  13.949 -1.7205 -1.0252 -0.4801
18594TIP3   OH277196   2.049   5.656  15.608  0.2222  0.4818 -0.1627
18594TIP3    H177197   2.137   5.689  15.627 -1.6248  5.8634 -0.1226
18594TIP3    H277198   2.055   5.621  15.519  2.0932  2.1833 -0.7431
18595TIP3   OH277199   0.589   5.083   2.271  0.5288 -0.5319 -0.6608
18595TIP3    H177200   0.607   4.990   2.256 -3.7740 -1.6700  0.4467
18595TIP3    H277201   0.501   5.096   2.236  0.0942  2.5779  1.4147
18596TIP3   OH277202   2.705   0.424   5.899  0.6556 -0.5656 -0.0986
18596TIP3    H177203   2.756   0.352   5.935  1.1025  0.9733  2.4609
18596TIP3    H277204   2.615   0.406   5.927  0.8117  0.0144  0.7769
18597TIP3   OH277205   1.537   1.380   0.673  0.8879 -0.4429  0.1329
18597TIP3    H177206   1.535   1.469   0.636 -1.9826 -0.6260 -0.2783
18597TIP3    H277207   1.489   1.387   0.755  0.2906 -1.6892 -0.0946
18598TIP3   OH277208   5.401   4.584   2.259  0.3094 -0.9211  0.1587
18598TIP3    H177209   5.480   4.533   2.241 -0.0433 -1.8376  1.1409
18598TIP3    H277210   5.338   4.553   2.195  0.5103 -0.7509 -0.1220
18599TIP3   OH277211   1.790   2.852   4.177  0.3021 -0.7165 -0.2791
18599TIP3    H177212   1.753   2.832   4.263  0.5272 -1.4655 -0.3558
18599TIP3    H277213   1.714   2.873   4.123 -0.1663 -3.6086 -0.8037
18600TIP3   OH277214   1.653   4.773   5.961  0.3015  0.0247  0.3952
18600TIP3    H177215   1.742   4.752   5.931  0.6659  0.1857  1.3377
18600TIP3    H277216   1.661   4.779   6.057 -1.1707 -2.0788  0.6708
18601TIP3   OH277217   2.891   0.132  14.707  0.3677 -0.6156  0.5673
18601TIP3    H177218   2.964   0.152  14.766  0.5088 -1.0262  0.5314
18601TIP3    H277219   2.932   0.126  14.620  0.2653 -0.6798  0.5221
18602TIP3   OH277220   0.860   3.811  12.368 -0.9645 -0.1242  0.7003
18602TIP3    H177221   0.811   3.842  12.444 -2.1472 -2.0031  0.7393
18602TIP3    H277222   0.810   3.736  12.336  0.8895 -0.9492 -0.3842
18603TIP3   OH277223   0.714   1.631   5.251 -0.3611 -0.4183 -0.2237
18603TIP3    H177224   0.756   1.614   5.167 -1.4891 -0.8456 -0.7129
18603TIP3    H277225   0.763   1.705   5.288 -1.5122  1.5028 -2.4485
18604TIP3   OH277226   6.118   5.529  12.739  0.6154 -0.1170 -0.0572
18604TIP3    H177227   6.147   5.612  12.702 -0.0337 -0.0056 -0.3186
18604TIP3    H277228   6.120   5.468  12.665  2.4307 -0.6918  0.4186
18605TIP3   OH277229   2.868   4.105   0.052  0.2536  0.5370  0.5893
18605TIP3    H177230   2.864   4.064   0.138  2.3168  1.1007  0.9884
18605TIP3    H277231   2.789   4.158   0.047 -1.4309 -1.8795  0.8724
18606TIP3   OH277232   1.107   0.668  17.080 -0.2859 -0.1298  0.0381
18606TIP3    H177233   1.040   0.683  17.146  0.4309  0.2547  0.6921
18606TIP3    H277234   1.139   0.579  17.099 -2.9450 -1.6929 -2.4044
18607TIP3   OH277235   4.267   3.583   3.158  0.1678  0.4506  0.4304
18607TIP3    H177236   4.228   3.627   3.233 -1.4811 -0.6457  0.2537
18607TIP3    H277237   4.211   3.608   3.084  1.6913  1.4107 -0.4128
18608TIP3   OH277238   1.902   6.773  15.428 -0.4578  0.3134  0.5004
18608TIP3    H177239   1.849   6.712  15.376  0.1454 -0.1969  0.4770
18608TIP3    H277240   1.990   6.736  15.425 -0.0764  1.2154  0.4453
18609TIP3   OH277241   0.270   4.725   0.212  0.3843  0.2031 -0.1696
18609TIP3    H177242   0.268   4.637   0.174  0.9251  0.0863  0.0654
18609TIP3    H277243   0.234   4.714   0.300  1.6114 -0.0170  0.3147
18610TIP3   OH277244   3.496   3.793   5.195 -0.2421  0.8624 -0.1296
18610TIP3    H177245   3.556   3.798   5.120  0.4855 -0.1403  0.3720
18610TIP3    H277246   3.439   3.720   5.175 -0.3773  0.9175  0.0590
18611TIP3   OH277247   5.932   5.018  14.082  0.3545 -0.2687  0.0221
18611TIP3    H177248   5.863   5.019  14.015  0.5030 -0.0418 -0.1238
18611TIP3    H277249   5.919   4.934  14.128  0.5549 -0.6461 -0.6054
18612TIP3   OH277250   2.053   5.255  11.556 -0.4886 -0.3514  0.1872
18612TIP3    H177251   1.972   5.307  11.549 -0.8640 -0.2847  3.6617
18612TIP3    H277252   2.115   5.298  11.497 -2.1108  1.4045 -0.2935
18613TIP3   OH277253   2.468   5.815   3.735 -0.4582  0.1750 -0.0299
18613TIP3    H177254   2.419   5.843   3.657 -0.2920  0.8667  0.1128
18613TIP3    H277255   2.560   5.816   3.707 -0.3094  1.4550  0.4848
18614TIP3   OH277256   3.013   4.188   2.591 -0.5928 -0.1745 -0.2988
18614TIP3    H177257   2.999   4.283   2.585  0.1798 -0.1256 -1.4679
18614TIP3    H277258   3.090   4.172   2.537 -0.8544 -1.5055 -0.2847
18615TIP3   OH277259   0.241   2.720  15.247 -0.0676  0.6577 -0.0889
18615TIP3    H177260   0.172   2.714  15.312  1.4685 -4.2365  1.2861
18615TIP3    H277261   0.197   2.707  15.163 -1.2488  1.1221  0.4506
18616TIP3   OH277262   3.829   3.992   4.789 -0.0802 -0.3119  0.1211
18616TIP3    H177263   3.901   3.948   4.834 -1.1151 -0.7857  1.3169
18616TIP3    H277264   3.840   4.084   4.811 -0.8920 -0.5979  1.8221
18617TIP3   OH277265   1.062   4.097   3.344  0.0264  0.3493  0.0038
18617TIP3    H177266   1.061   4.035   3.271  3.7905  2.1740 -1.7519
18617TIP3    H277267   1.001   4.166   3.317 -0.8420 -0.4136 -0.0235
18618TIP3   OH277268   0.035   1.292  11.083  0.2191 -0.4560  0.4713
18618TIP3    H177269  -0.061   1.297  11.082  0.1808 -1.2144 -0.7126
18618TIP3    H277270   0.054   1.207  11.123  0.3900 -0.4081  0.4910
18619TIP3   OH277271   5.478   3.335   3.290 -0.0669  0.6975 -0.1019
18619TIP3    H177272   5.482   3.261   3.230 -0.7263 -0.3393  1.0973
18619TIP3    H277273   5.562   3.380   3.280  0.9064 -1.0271  0.1710
18620TIP3   OH277274   5.145   6.490  13.358 -0.3883 -0.1255 -0.0141
18620TIP3    H177275   5.192   6.566  13.394  0.8242 -0.4356 -0.9464
18620TIP3    H277276   5.180   6.415  13.406 -1.7793 -0.0903  1.0964
18621TIP3   OH277277   3.175   3.039   2.133 -0.1335 -0.2880 -0.1367
18621TIP3    H177278   3.194   3.035   2.039 -1.7780 -0.4341 -0.4796
18621TIP3    H277279   3.246   2.990   2.174  0.3437 -0.6291 -1.3399
18622TIP3   OH277280   3.608   5.227  10.895 -0.0419  0.1257  0.1992
18622TIP3    H177281   3.513   5.217  10.898 -0.1993  1.2979 -0.8164
18622TIP3    H277282   3.641   5.141  10.922 -1.3840 -0.7199 -0.7922
18623TIP3   OH277283   1.137   1.569  16.755 -0.2150  0.2829  0.1280
18623TIP3    H177284   1.171   1.550  16.843 -0.2456 -0.4342 -0.0128
18623TIP3    H277285   1.092   1.653  16.764 -0.3393  0.1423  0.8278
18624TIP3   OH277286   0.225   4.710  16.209 -0.1421  0.1041 -0.2415
18624TIP3    H177287   0.177   4.694  16.128  0.4956 -1.6605 -0.2773
18624TIP3    H277288   0.221   4.627  16.257  0.5584  0.7538  0.9691
18625TIP3   OH277289   0.858   2.172   1.039  0.2190 -0.0419 -0.0023
18625TIP3    H177290   0.809   2.118   0.977  0.5058  0.7418 -0.9359
18625TIP3    H277291   0.941   2.126   1.050  0.6195  0.3768 -1.1015
18626TIP3   OH277292   4.232   6.587   3.133 -1.2477  0.3707  0.2637
18626TIP3    H177293   4.282   6.650   3.082 -1.4700 -0.5863 -1.1615
18626TIP3    H277294   4.235   6.621   3.223 -1.1760  2.2764 -0.4361
18627TIP3   OH277295   0.889   5.912   0.890 -0.5721  0.2079  0.2977
18627TIP3    H177296   0.883   6.007   0.897 -1.4428  0.0673  1.5081
18627TIP3    H277297   0.899   5.882   0.980  1.2224 -0.7548 -0.2028
18628TIP3   OH277298   1.902   3.824   3.193 -0.7425  0.3105 -0.0428
18628TIP3    H177299   1.837   3.766   3.156 -1.5285  0.9728  0.2747
18628TIP3    H277300   1.971   3.766   3.225 -1.0860 -0.3814 -0.5492
18629TIP3   OH277301   3.119   2.931  16.427  0.2710  0.6026  0.3166
18629TIP3    H177302   3.053   2.925  16.496 -1.7384 -0.7638 -1.6264
18629TIP3    H277303   3.069   2.948  16.347  2.5865  2.8140 -0.7270
18630TIP3   OH277304   2.522   1.734  12.924  0.4341  0.2963  0.0939
18630TIP3    H177305   2.514   1.689  12.840  0.4152  1.1896 -0.3856
18630TIP3    H277306   2.493   1.669  12.989 -0.6063 -0.0318 -0.6873
18631TIP3   OH277307   4.155   0.644  12.836 -0.1567  0.1010  0.3184
18631TIP3    H177308   4.171   0.738  12.844 -0.2809  0.1867 -0.3603
18631TIP3    H277309   4.136   0.631  12.743 -1.6040 -0.3687  0.6621
18632TIP3   OH277310   0.374   5.583  11.698 -0.8786  0.0221 -0.4020
18632TIP3    H177311   0.465   5.594  11.726 -0.3236 -0.4839 -1.9364
18632TIP3    H277312   0.372   5.497  11.656 -2.8330 -1.4046  2.4564
18633TIP3   OH277313   5.968   0.409   3.114  0.3459 -0.1312  0.2210
18633TIP3    H177314   5.928   0.350   3.050 -1.7963 -0.1494  1.5542
18633TIP3    H277315   6.052   0.433   3.075 -0.7756 -0.4030 -2.4482
18634TIP3   OH277316   0.281   5.704  12.341 -0.5940  0.2024 -0.5160
18634TIP3    H177317   0.311   5.757  12.415  0.2305  0.5189 -1.0600
18634TIP3    H277318   0.203   5.659  12.373 -1.5594  2.0854 -0.1817
18635TIP3   OH277319   6.074   3.960  17.182 -0.1977  0.0770  0.0580
18635TIP3    H177320   6.043   3.933  17.268 -1.5086  2.1089  0.2533
18635TIP3    H277321   6.167   3.978  17.194 -0.0560 -0.9968  0.6866
18636TIP3   OH277322   5.462   4.862   3.199  0.2680  0.5498 -0.7632
18636TIP3    H177323   5.528   4.801   3.233 -0.7212  0.5913  1.2701
18636TIP3    H277324   5.433   4.823   3.116  0.8143 -0.9017 -0.2787
18637TIP3   OH277325   0.173   6.339   5.210  0.0008  0.1163  0.0648
18637TIP3    H177326   0.213   6.286   5.141 -0.7065  0.5155 -0.6594
18637TIP3    H277327   0.079   6.330   5.196 -0.1320  0.9298  0.4189
18638TIP3   OH277328   0.306   5.232   3.205  0.0253  0.0369 -0.5151
18638TIP3    H177329   0.342   5.313   3.241 -3.0217  1.2477 -0.0873
18638TIP3    H277330   0.274   5.184   3.282  2.6084 -2.0575 -0.6628
18639TIP3   OH277331   2.329   2.528  16.249 -0.7654  0.3379  0.0692
18639TIP3    H177332   2.372   2.489  16.325 -0.9457 -1.5168 -0.7520
18639TIP3    H277333   2.392   2.591  16.215 -0.8984  1.5737  2.0664
18640TIP3   OH277334   3.905   1.307   2.437  0.2645 -0.3571  0.5314
18640TIP3    H177335   3.901   1.262   2.353 -1.4480 -1.0056  0.9319
18640TIP3    H277336   3.997   1.331   2.448  0.6361 -0.9993 -1.1353
18641TIP3   OH277337   0.958   1.491  14.177  0.4155 -0.8963 -0.5336
18641TIP3    H177338   0.997   1.542  14.248  1.8247  1.9833 -3.2691
18641TIP3    H277339   1.020   1.419  14.163  0.1917 -1.4092  1.0527
18642TIP3   OH277340   6.714   5.925  16.342  0.6121 -0.1211  0.5450
18642TIP3    H177341   6.639   5.913  16.400 -1.5020 -0.2408 -2.0758
18642TIP3    H277342   6.761   5.842  16.345 -1.7272 -1.5527 -0.9203
18643TIP3   OH277343   1.855   5.042  12.828  0.3599 -0.5312 -0.3358
18643TIP3    H177344   1.854   5.008  12.917  0.9565 -1.7617 -0.7915
18643TIP3    H277345   1.811   4.975  12.776 -2.6288  1.4826 -0.5289
18644TIP3   OH277346   2.706   1.495  14.488 -0.2034 -0.3345  0.1668
18644TIP3    H177347   2.701   1.482  14.583 -0.1546  3.2917  0.7370
18644TIP3    H277348   2.617   1.478  14.457 -0.7265  0.5212  1.1618
18645TIP3   OH277349   6.422   4.352   2.274 -0.5773 -0.0217  0.0304
18645TIP3    H177350   6.456   4.393   2.354 -0.0288  3.6373 -1.9279
18645TIP3    H277351   6.496   4.301   2.240  0.0869  0.6480  0.4401
18646TIP3   OH277352   2.831   4.297  11.021  0.5219  0.0121 -0.3692
18646TIP3    H177353   2.802   4.307  10.930  0.4721  2.0505 -0.1706
18646TIP3    H277354   2.773   4.232  11.058  0.8926 -1.2496 -1.9477
18647TIP3   OH277355   3.587   2.596   2.313  0.7860 -0.9151  0.1155
18647TIP3    H177356   3.601   2.503   2.294  1.3453 -0.6229 -0.9372
18647TIP3    H277357   3.543   2.630   2.235 -0.6381 -0.5721  1.0428
18648TIP3   OH277358   5.219   0.541  15.498 -0.2486  0.1947  0.4036
18648TIP3    H177359   5.292   0.571  15.552 -0.7283  0.6627  0.7955
18648TIP3    H277360   5.199   0.616  15.442 -0.3424  0.0178  0.1980
18649TIP3   OH277361   4.766   5.579   2.136 -0.3177 -0.1656  0.3638
18649TIP3    H177362   4.743   5.624   2.055 -1.3144 -0.8603  0.2506
18649TIP3    H277363   4.763   5.486   2.113  1.5503 -0.3141  0.6418
18650TIP3   OH277364   5.974   5.199   1.188 -0.0800  0.0358 -0.1814
18650TIP3    H177365   5.907   5.266   1.174  0.1424  0.5584  1.1537
18650TIP3    H277366   6.028   5.202   1.109 -0.9701  0.3778 -0.7837
18651TIP3   OH277367   6.505   0.633   5.568  0.1549 -0.5974  0.2242
18651TIP3    H177368   6.486   0.549   5.526 -1.2911  0.8318 -2.1028
18651TIP3    H277369   6.582   0.666   5.522 -0.5403  0.2950 -0.3202
18652TIP3   OH277370   4.223   2.825  15.409  0.3083 -0.2712  0.7543
18652TIP3    H177371   4.202   2.823  15.502 -0.8132 -3.2421  0.5089
18652TIP3    H277372   4.263   2.910  15.395  0.5286  0.2136  3.9537
18653TIP3   OH277373   6.168   0.699  14.242 -0.5520  0.6472  0.1799
18653TIP3    H177374   6.241   0.638  14.253  0.6942  2.7460  4.7569
18653TIP3    H277375   6.090   0.643  14.238  0.8196 -1.3618  0.8712
18654TIP3   OH277376   4.759   5.519  10.801  0.0657  0.2599  0.1967
18654TIP3    H177377   4.768   5.518  10.706 -1.8642  0.4581 -0.0079
18654TIP3    H277378   4.720   5.604  10.821 -1.2023 -0.4765  0.9759
18655TIP3   OH277379   6.568   1.781  14.504  0.2867 -0.3867  0.6138
18655TIP3    H177380   6.473   1.767  14.506  0.4835 -2.0895 -0.4544
18655TIP3    H277381   6.580   1.852  14.441 -0.2176 -0.9898 -0.1824
18656TIP3   OH277382   1.129   3.098   5.200  0.4386 -0.2909 -0.1033
18656TIP3    H177383   1.208   3.121   5.248  0.1662 -0.3648  0.3908
18656TIP3    H277384   1.068   3.169   5.220  1.0017  0.7812 -2.0295
18657TIP3   OH277385   4.225   0.670   0.016  0.0828 -0.2951  0.2534
18657TIP3    H177386   4.273   0.656  -0.066 -1.3942 -0.6287 -0.5652
18657TIP3    H277387   4.137   0.637  -0.002 -0.7722  1.3399  1.3698
18658TIP3   OH277388   3.645   1.280  15.439 -0.6558 -0.4799  0.4309
18658TIP3    H177389   3.621   1.202  15.388 -1.4106 -0.6833  1.0863
18658TIP3    H277390   3.702   1.247  15.508  0.6228 -0.1570 -0.4685
18659TIP3   OH277391   4.561   1.765  12.769 -0.0666  0.4210 -0.1368
18659TIP3    H177392   4.475   1.723  12.763  0.4370 -0.4406 -1.7013
18659TIP3    H277393   4.551   1.847  12.721 -0.0455  0.3648 -0.2374
18660TIP3   OH277394   6.138   0.866   4.185 -0.3713 -0.3044  0.2173
18660TIP3    H177395   6.141   0.772   4.200  1.3168 -0.1635  0.8082
18660TIP3    H277396   6.212   0.901   4.234  0.4906  1.0521 -2.0018
18661TIP3   OH277397   6.209   3.709  11.887  0.1051  0.2294 -0.1799
18661TIP3    H177398   6.182   3.698  11.796  0.3197  0.4812 -0.2736
18661TIP3    H277399   6.275   3.778  11.885  0.9211 -0.5327  0.0205
18662TIP3   OH277400   0.841   1.524  17.184  0.0291  0.1367  0.3557
18662TIP3    H177401   0.853   1.527  17.089  0.4949 -0.6050  0.3865
18662TIP3    H277402   0.924   1.491  17.218 -0.1658  0.3128  1.0191
18663TIP3   OH277403   4.257   1.823  12.400  0.3786  0.1054 -0.0912
18663TIP3    H177404   4.185   1.882  12.420 -0.0092 -0.0007 -1.1482
18663TIP3    H277405   4.243   1.797  12.309  1.6853  0.0008 -0.2781
18664TIP3   OH277406   4.554   4.838  17.066 -0.3174  0.2585 -0.0627
18664TIP3    H177407   4.650   4.841  17.066 -0.2243 -1.7801 -1.0681
18664TIP3    H277408   4.532   4.796  17.150 -0.3306  0.6531  0.1313
18665TIP3   OH277409   0.812   1.623  11.471 -0.4583 -0.6518 -0.3659
18665TIP3    H177410   0.739   1.578  11.428  0.1882 -1.7878 -0.3012
18665TIP3    H277411   0.890   1.582  11.435  0.1221 -0.5114  0.6975
18666TIP3   OH277412   5.917   6.315   1.055  0.5069 -0.2897 -0.4140
18666TIP3    H177413   5.876   6.401   1.060  0.3810 -0.2561 -1.8589
18666TIP3    H277414   5.986   6.324   0.989  0.9589 -1.1127 -0.0751
18667TIP3   OH277415   4.326   6.687   2.208  0.1821  0.5645  0.2678
18667TIP3    H177416   4.370   6.735   2.278 -0.4619 -1.1583  1.8929
18667TIP3    H277417   4.338   6.742   2.130 -1.2010  3.7047  2.1915
18668TIP3   OH277418   6.412   2.124  15.048 -0.0199  0.2831  0.1854
18668TIP3    H177419   6.482   2.187  15.063  1.4945 -1.2013 -0.4611
18668TIP3    H277420   6.379   2.144  14.961  1.7462 -0.9988 -0.8024
18669TIP3   OH277421   1.354   3.689  14.680 -0.1199 -0.1145  0.2477
18669TIP3    H177422   1.309   3.772  14.695 -1.0760 -0.5898  0.0120
18669TIP3    H277423   1.427   3.712  14.623  0.3059  0.7595  1.1189
18670TIP3   OH277424   6.405   3.207  12.086 -0.0712 -0.1904  0.1449
18670TIP3    H177425   6.485   3.186  12.039 -0.1497 -1.7786  0.6687
18670TIP3    H277426   6.404   3.146  12.161 -2.1296 -0.7411 -0.2797
18671TIP3   OH277427   0.781   1.338   5.849 -0.0664  0.3067  0.1509
18671TIP3    H177428   0.699   1.342   5.899  0.0082  2.0774  0.1618
18671TIP3    H277429   0.849   1.354   5.914  0.2386 -0.4599  0.0176
18672TIP3   OH277430   6.059   6.145  16.242 -0.4804 -0.0679 -0.2433
18672TIP3    H177431   6.144   6.170  16.204 -0.3942  0.0280  0.0079
18672TIP3    H277432   6.026   6.076  16.185  0.5197 -1.2520  0.5569
18673TIP3   OH277433   0.189   0.261   1.581 -0.5124 -0.2297  0.0324
18673TIP3    H177434   0.147   0.219   1.507 -0.6871 -0.7979  0.4551
18673TIP3    H277435   0.282   0.241   1.570 -0.4736  0.1223 -0.3111
18674TIP3   OH277436   1.447   1.846  16.989 -0.2376  0.6721 -0.1157
18674TIP3    H177437   1.474   1.925  17.037 -0.7674  0.1423  1.0663
18674TIP3    H277438   1.373   1.875  16.935 -1.4201  0.6293  1.4766
18675TIP3   OH277439   5.515   5.419  12.579 -0.0181  0.2214  0.4988
18675TIP3    H177440   5.599   5.453  12.550 -1.0869  3.7537  1.2821
18675TIP3    H277441   5.453   5.446  12.511 -1.1730  1.3929  1.9683
18676TIP3   OH277442   5.514   1.782   4.641 -0.2086 -0.1429  0.3987
18676TIP3    H177443   5.428   1.757   4.673 -0.7954 -1.3571 -1.9785
18676TIP3    H277444   5.537   1.714   4.578  2.1100  0.6345  0.3600
18677TIP3   OH277445   0.867   3.458   2.634 -0.2374 -0.1264  0.0214
18677TIP3    H177446   0.812   3.535   2.652 -0.1169 -0.1539  0.5172
18677TIP3    H277447   0.952   3.495   2.609 -0.1537 -0.0996  0.3457
18678TIP3   OH277448   4.170   4.432   0.943  0.1806 -0.1944 -0.3872
18678TIP3    H177449   4.184   4.430   1.037  0.0882  1.4686 -0.3234
18678TIP3    H277450   4.175   4.341   0.915  0.8529 -0.6172  1.1274
18679TIP3   OH277451   5.163   5.780  14.860  0.0544 -0.0641 -0.3349
18679TIP3    H177452   5.111   5.703  14.838  0.4291 -0.2950 -0.4047
18679TIP3    H277453   5.212   5.755  14.938  1.1637 -0.3506 -1.1063
18680TIP3   OH277454   2.448   0.805  16.287  0.1236  0.1236  0.1777
18680TIP3    H177455   2.521   0.783  16.229 -0.4355  1.9510 -1.2844
18680TIP3    H277456   2.455   0.743  16.360  1.9709 -0.9802 -0.9033
18681TIP3   OH277457   4.638   1.310  15.025  0.3119  0.4521 -0.8472
18681TIP3    H177458   4.727   1.299  14.991  0.0159  1.8197 -2.1173
18681TIP3    H277459   4.623   1.405  15.023 -2.1677  0.0673 -3.3241
18682TIP3   OH277460   4.246   1.615   1.182  0.3525 -0.2824  0.1733
18682TIP3    H177461   4.268   1.622   1.275 -0.6701 -0.1513  0.4119
18682TIP3    H277462   4.154   1.587   1.181 -0.6142  2.7141 -0.7503
18683TIP3   OH277463   6.610   3.782  14.252 -0.3132  0.0898 -0.6481
18683TIP3    H177464   6.555   3.839  14.305 -0.3769  1.1480 -1.8280
18683TIP3    H277465   6.668   3.739  14.315 -1.0770  0.5419  0.3779
18684TIP3   OH277466   6.293   1.060   5.153 -0.0970 -0.3271 -0.2959
18684TIP3    H177467   6.343   1.141   5.158 -0.4419 -0.1404  0.2219
18684TIP3    H277468   6.302   1.021   5.240 -2.0748  0.4447  0.2764
18685TIP3   OH277469   4.306   5.114  13.058  0.6848  0.2768 -0.2212
18685TIP3    H177470   4.345   5.031  13.031  0.5813  0.1832 -0.0885
18685TIP3    H277471   4.332   5.125  13.149  1.0839  0.6223 -0.3742
18686TIP3   OH277472   1.670   2.875  16.516 -0.4868 -0.2820  0.1101
18686TIP3    H177473   1.588   2.833  16.489 -0.4811 -0.5202  0.4652
18686TIP3    H277474   1.738   2.810  16.498 -0.4160 -0.2223  0.1595
18687TIP3   OH277475   6.663   0.468  14.376  0.5083 -0.3384 -0.8057
18687TIP3    H177476   6.684   0.376  14.390  1.2137 -0.0213  0.1886
18687TIP3    H277477   6.655   0.505  14.463 -0.0669  0.4843 -1.1977
18688TIP3   OH277478   5.594   6.216  12.544  0.7324 -0.0127  0.2580
18688TIP3    H177479   5.532   6.219  12.617  1.5897 -1.5498  1.0639
18688TIP3    H277480   5.622   6.307  12.534 -1.2088  0.6128  0.2537
18689TIP3   OH277481   1.551   3.929  14.290  0.0086  0.7364  0.5927
18689TIP3    H177482   1.592   4.010  14.262 -0.5189  0.9467  0.4130
18689TIP3    H277483   1.493   3.905  14.218 -0.3719  0.5818  0.9461
18690TIP3   OH277484   4.204   2.637   0.667  0.7583 -0.0631 -0.7059
18690TIP3    H177485   4.210   2.711   0.607 -0.6730 -0.7289 -1.7027
18690TIP3    H277486   4.185   2.562   0.611 -2.6872 -0.3519  0.6912
18691TIP3   OH277487   5.470   3.633   0.233  0.1353 -0.3755  0.3966
18691TIP3    H177488   5.409   3.687   0.183  1.1420 -0.7870 -1.3300
18691TIP3    H277489   5.541   3.693   0.256 -0.0191 -0.3342  0.7553
18692TIP3   OH277490   4.105   3.477   3.973 -0.1147 -0.4785 -0.1172
18692TIP3    H177491   4.153   3.401   3.940 -0.8994 -0.7650 -0.6249
18692TIP3    H277492   4.028   3.483   3.916 -0.3463  0.3620  0.2728
18693TIP3   OH277493   4.226   4.852   1.430  0.0945 -0.1029  0.0576
18693TIP3    H177494   4.207   4.808   1.347  0.5108 -3.4906  1.6677
18693TIP3    H277495   4.321   4.840   1.442  0.1487  0.9205  0.7306
18694TIP3   OH277496   5.061   2.949   1.804  0.2918  0.6044 -0.5337
18694TIP3    H177497   5.003   2.889   1.851 -0.5928  1.2011 -0.8442
18694TIP3    H277498   5.004   3.020   1.774  1.6866  2.7870  1.7797
18695TIP3   OH277499   3.376   3.492   5.641  0.5018 -0.8407 -0.1444
18695TIP3    H177500   3.363   3.570   5.588 -2.2860 -1.1507  0.0322
18695TIP3    H277501   3.467   3.498   5.670  1.3326  0.5846 -2.8817
18696TIP3   OH277502   5.550   3.456  16.332 -0.6028 -0.6113  0.3952
18696TIP3    H177503   5.545   3.409  16.415  2.0373 -2.2491 -0.2984
18696TIP3    H277504   5.505   3.399  16.269 -1.6117  0.0958  0.4639
18697TIP3   OH277505   4.725   4.637  12.819 -0.5304  0.6238 -0.2536
18697TIP3    H177506   4.641   4.601  12.791 -1.4401  2.1369  0.4860
18697TIP3    H277507   4.761   4.679  12.741  0.3993 -1.5705 -1.0466
18698TIP3   OH277508   2.160   5.083  16.318 -0.4049  0.1660  0.1368
18698TIP3    H177509   2.241   5.134  16.311 -1.3444  2.3581  3.7187
18698TIP3    H277510   2.187   4.999  16.354  0.2609  1.1383  1.9840
18699TIP3   OH277511   3.873   0.907  14.652  0.1574  0.4759  0.3838
18699TIP3    H177512   3.945   0.860  14.610  0.4025  1.3657 -0.2059
18699TIP3    H277513   3.799   0.847  14.648  0.9762 -0.6352  1.4092
18700TIP3   OH277514   1.594   2.292  12.405  0.1467  0.4109 -0.1963
18700TIP3    H177515   1.619   2.250  12.487 -0.9630  0.0077 -0.0662
18700TIP3    H277516   1.664   2.268  12.344 -0.0959 -1.0193  0.0697
18701TIP3   OH277517   6.597   4.189   5.458 -0.1491  0.0033 -0.2033
18701TIP3    H177518   6.673   4.149   5.415 -1.1055 -0.1100 -1.8242
18701TIP3    H277519   6.633   4.228   5.537  1.1360 -2.4037  0.4542
18702TIP3   OH277520   3.834   4.524  12.830  0.5470  0.2374 -0.1586
18702TIP3    H177521   3.756   4.521  12.886  1.5192 -1.2869  1.1691
18702TIP3    H277522   3.801   4.509  12.742 -0.7087 -0.1115  0.3550
18703TIP3   OH277523   0.081   2.044  13.060 -0.1371  0.4367 -0.7341
18703TIP3    H177524   0.066   1.997  12.978 -0.3954 -0.2632 -0.2919
18703TIP3    H277525  -0.006   2.071  13.089 -0.2686 -1.0082  0.2917
18704TIP3   OH277526   6.058   5.709  16.364  0.1465 -0.6142 -0.1105
18704TIP3    H177527   6.151   5.706  16.345  0.1868 -2.0370  0.2363
18704TIP3    H277528   6.032   5.799  16.344  1.8378  0.1450  0.9651
18705TIP3   OH277529   0.141   1.676   1.263  0.0323 -0.2297 -0.7364
18705TIP3    H177530   0.215   1.658   1.204 -0.5696 -1.3652 -1.1668
18705TIP3    H277531   0.118   1.767   1.244  1.4187  0.1902 -0.4779
18706TIP3   OH277532   2.651   1.412   5.743 -0.2569  0.1286  0.8819
18706TIP3    H177533   2.741   1.421   5.775  0.9746  1.0035 -2.6188
18706TIP3    H277534   2.623   1.502   5.725 -0.6918 -0.3749 -1.0160
18707TIP3   OH277535   4.462   6.567  16.831 -0.0029 -0.3003 -0.5647
18707TIP3    H177536   4.375   6.537  16.855  0.4868 -0.8231  0.5871
18707TIP3    H277537   4.504   6.491  16.792 -0.4937  0.3071 -2.3491
18708TIP3   OH277538   0.645   0.020  16.470 -0.0876 -0.1610 -0.2588
18708TIP3    H177539   0.719  -0.029  16.434 -2.2697 -4.2030  0.4616
18708TIP3    H277540   0.587   0.033  16.396 -0.7856 -1.1630  0.1028
18709TIP3   OH277541   2.226   5.646  14.294  0.4087 -0.2990  1.0276
18709TIP3    H177542   2.190   5.597  14.368  0.7933 -1.5227  0.4077
18709TIP3    H277543   2.320   5.634  14.300  0.5817  1.0977  1.3683
18710TIP3   OH277544   4.636   3.608   3.975 -0.3948  0.8874  0.2759
18710TIP3    H177545   4.613   3.515   3.966  0.5005  0.8307 -1.5483
18710TIP3    H277546   4.687   3.612   4.056 -0.7372 -0.1541  0.5520
18711TIP3   OH277547   0.475   1.165  15.248  0.2224  0.0260 -0.0067
18711TIP3    H177548   0.477   1.105  15.322 -0.3633 -0.9360 -0.7485
18711TIP3    H277549   0.402   1.133  15.194 -1.0354  2.2467  0.2946
18712TIP3   OH277550   1.011   4.834  14.148  0.3717 -0.4452  0.0789
18712TIP3    H177551   0.982   4.807  14.235  0.0635 -2.2144 -0.5529
18712TIP3    H277552   0.945   4.897  14.119  0.6095  0.3453  1.2172
18713TIP3   OH277553   0.404   1.803   3.641  0.2039 -0.5400  0.0964
18713TIP3    H177554   0.377   1.865   3.573  0.1981 -0.3805  0.2448
18713TIP3    H277555   0.443   1.730   3.592  0.4090 -0.3229 -0.0680
18714TIP3   OH277556   3.523   5.541  11.934 -0.0612  0.2874  0.0797
18714TIP3    H177557   3.504   5.522  11.842 -0.2904 -0.8488  0.3618
18714TIP3    H277558   3.443   5.580  11.968  0.7274  2.7336 -0.7503
18715TIP3   OH277559   1.889   4.777   5.818 -0.0206  0.6744 -0.6435
18715TIP3    H177560   1.876   4.872   5.809  1.8956  0.8790 -1.3158
18715TIP3    H277561   1.968   4.758   5.767  0.2620 -1.1203  0.4225
18716TIP3   OH277562   3.415   6.624   5.053 -0.4214  0.2512 -0.0328
18716TIP3    H177563   3.448   6.571   5.126 -0.7348 -0.2202 -0.2320
18716TIP3    H277564   3.447   6.712   5.072  1.7761 -0.3718 -0.7064
18717TIP3   OH277565   1.792   1.962   0.292  0.5536  0.6765  0.9315
18717TIP3    H177566   1.809   2.046   0.248 -0.1810  0.6415  0.5631
18717TIP3    H277567   1.697   1.950   0.283  0.7965 -0.6763  0.1080
18718TIP3   OH277568   1.656   5.774   6.037 -0.4310  0.0398 -0.2001
18718TIP3    H177569   1.636   5.782   6.130 -2.9971  0.7249 -0.7778
18718TIP3    H277570   1.699   5.689   6.029 -1.0843 -0.4670  1.4571
18719TIP3   OH277571   2.838   3.064   0.169 -0.3127  0.3996  0.0551
18719TIP3    H177572   2.873   3.153   0.176 -0.8294  0.5796  0.3903
18719TIP3    H277573   2.747   3.076   0.140 -0.6072  0.0227  0.8116
18720TIP3   OH277574   4.035   0.117  16.403  0.3114 -0.7593  0.3429
18720TIP3    H177575   3.981   0.071  16.339  0.3338 -1.5470  0.8879
18720TIP3    H277576   4.070   0.192  16.355  1.7030 -2.2833 -1.0514
18721TIP3   OH277577   5.289   4.656   1.835 -0.1852  0.6400  0.1924
18721TIP3    H177578   5.230   4.722   1.871 -0.5060 -0.8621  2.5476
18721TIP3    H277579   5.341   4.627   1.910  2.9858  1.3049 -1.6448
18722TIP3   OH277580   5.109   0.241   1.228 -0.2083 -0.5497  0.3247
18722TIP3    H177581   5.175   0.239   1.158  0.5953 -1.6509  1.0938
18722TIP3    H277582   5.070   0.154   1.227 -1.6377  0.0920 -0.0959
18723TIP3   OH277583   4.037   2.238   0.283 -0.1464  0.0488  0.0864
18723TIP3    H177584   4.106   2.180   0.314 -1.7045 -0.6028  2.5182
18723TIP3    H277585   3.987   2.185   0.221  0.6771  0.0492 -0.5776
18724TIP3   OH277586   2.313   4.787  15.895 -0.2781  0.1476 -0.3276
18724TIP3    H177587   2.266   4.704  15.894 -0.2896  0.1567 -1.0296
18724TIP3    H277588   2.249   4.851  15.863  0.5179 -0.0155 -2.3264
18725TIP3   OH277589   4.748   0.446  15.736 -0.0763  0.2504 -0.1637
18725TIP3    H177590   4.713   0.377  15.678 -2.1338  1.8655 -0.8973
18725TIP3    H277591   4.815   0.489  15.683 -2.3604  2.1100 -1.6598
18726TIP3   OH277592   5.889   0.231  12.039 -0.5748  0.2144 -0.4362
18726TIP3    H177593   5.826   0.298  12.067 -0.2124  2.1425 -3.9291
18726TIP3    H277594   5.837   0.152  12.028 -1.5682  0.6684  0.8905
18727TIP3   OH277595   5.204   3.525   0.484  0.4191 -0.1733  0.1264
18727TIP3    H177596   5.202   3.441   0.531 -0.3360 -0.9226 -1.2189
18727TIP3    H277597   5.121   3.567   0.509  0.1408 -0.4545 -0.3184
18728TIP3   OH277598   4.921   1.690   2.294  0.5007  0.3657  0.3013
18728TIP3    H177599   4.999   1.670   2.346 -0.0845 -1.7092  0.4396
18728TIP3    H277600   4.857   1.721   2.358  0.7610  0.7337  0.3835
18729TIP3   OH277601   4.091   4.687  12.772 -0.5576  0.3622 -0.1022
18729TIP3    H177602   4.010   4.637  12.781 -0.3419  0.0960  0.3733
18729TIP3    H277603   4.160   4.621  12.778 -0.2255  0.8744  1.8476
18730TIP3   OH277604   2.587   5.509  17.186 -0.1339  0.5247 -0.1282
18730TIP3    H177605   2.494   5.530  17.190 -0.2740 -0.2095  0.8161
18730TIP3    H277606   2.599   5.469  17.100 -1.2010 -1.5956  0.6570
18731TIP3   OH277607   1.953   0.520   4.641  0.0076 -0.1411 -0.4240
18731TIP3    H177608   2.035   0.511   4.689  0.5163  1.5983 -0.9302
18731TIP3    H277609   1.916   0.603   4.671 -0.3792  0.2623 -1.9454
18732TIP3   OH277610   0.603   0.134   4.008  0.5849  0.3109  0.4419
18732TIP3    H177611   0.567   0.125   4.096 -3.1555 -1.2521 -1.1735
18732TIP3    H277612   0.582   0.224   3.983  0.5182  0.3580  0.6665
18733TIP3   OH277613   5.974   1.755   5.857  0.0874 -1.0403 -0.1991
18733TIP3    H177614   6.007   1.822   5.917 -1.5618 -1.5284  1.2952
18733TIP3    H277615   6.051   1.703   5.835  0.6641 -1.1033  1.8451
18734TIP3   OH277616   0.764   0.848   2.210  0.7557 -0.0883  0.0572
18734TIP3    H177617   0.717   0.854   2.127 -1.1596 -1.0746  1.0519
18734TIP3    H277618   0.755   0.935   2.249 -1.1602 -0.5547  0.7098
18735TIP3   OH277619   0.352   2.250   2.468  0.3334  0.9783 -0.0018
18735TIP3    H177620   0.326   2.342   2.463  2.1084  1.4727 -0.7277
18735TIP3    H277621   0.309   2.209   2.393  0.0675  1.3537 -0.0575
18736TIP3   OH277622   3.765   1.117  13.620  0.2509 -0.1453  0.3986
18736TIP3    H177623   3.700   1.127  13.551  0.1125  0.5366  0.6268
18736TIP3    H277624   3.729   1.047  13.676 -0.7264  0.8373  1.0195
18737TIP3   OH277625   6.429   5.393   3.687  0.7525 -0.1780  0.4950
18737TIP3    H177626   6.454   5.485   3.688 -2.1657  0.6593  1.3419
18737TIP3    H277627   6.430   5.367   3.779 -1.5137 -0.0563  0.5878
18738TIP3   OH277628   2.750   3.688   2.921  0.7780 -0.2051  0.3202
18738TIP3    H177629   2.777   3.647   3.003  0.8209 -1.4428 -0.3009
18738TIP3    H277630   2.698   3.620   2.877  0.3398  0.6283 -0.4498
18739TIP3   OH277631   1.250   1.566  11.520 -0.2579  0.3869  1.1033
18739TIP3    H177632   1.265   1.559  11.614  2.9672 -0.8472  0.5627
18739TIP3    H277633   1.302   1.641  11.492 -0.9310  0.5431  0.2293
18740TIP3   OH277634   5.495   0.777  13.079  0.4990  0.1304  0.0739
18740TIP3    H177635   5.417   0.727  13.102  0.4193 -0.2798 -1.0948
18740TIP3    H277636   5.546   0.719  13.023  1.4628  0.5417  0.5160
18741TIP3   OH277637   3.133   2.835  13.351  0.0090  0.1946 -0.0279
18741TIP3    H177638   3.126   2.928  13.329 -1.4471  0.0791 -0.1505
18741TIP3    H277639   3.134   2.834  13.447 -0.7932  0.3046 -0.0106
18742TIP3   OH277640   2.810   0.648   6.219 -0.0424 -0.3832  0.2901
18742TIP3    H177641   2.872   0.663   6.291  0.0899  0.0485  0.0861
18742TIP3    H277642   2.808   0.553   6.210 -1.6821 -0.5742  2.2882
18743TIP3   OH277643   0.146   2.883  13.444  0.0015  0.4260 -0.0365
18743TIP3    H177644   0.219   2.892  13.506  1.1629  0.7341 -1.4214
18743TIP3    H277645   0.160   2.954  13.381 -1.4301  0.3989 -0.3839
18744TIP3   OH277646   4.641   0.396   3.384  0.3729  0.8007  0.5296
18744TIP3    H177647   4.547   0.382   3.397  0.5005 -0.7450 -0.1531
18744TIP3    H277648   4.647   0.445   3.302  0.2358 -0.3703 -0.1830
18745TIP3   OH277649   3.814   1.899   4.026  0.0015  0.2752 -0.2634
18745TIP3    H177650   3.875   1.901   4.100 -0.4543 -1.2582  0.1742
18745TIP3    H277651   3.773   1.812   4.031  0.5289 -0.1477 -2.7822
18746TIP3   OH277652   4.687   4.009   1.605  0.0018 -0.1428 -0.6363
18746TIP3    H177653   4.602   4.042   1.576  1.0466  2.5511 -0.7651
18746TIP3    H277654   4.745   4.022   1.529  0.9020 -0.4795 -0.0221
18747TIP3   OH277655   0.278   2.883  17.157  0.1648  0.1343  0.4256
18747TIP3    H177656   0.267   2.948  17.087  2.0859 -1.3174 -1.2925
18747TIP3    H277657   0.300   2.802  17.111 -1.4008 -1.5663  2.5859
18748TIP3   OH277658   4.449   5.657   2.563  0.3704 -0.0857  0.6854
18748TIP3    H177659   4.443   5.751   2.580  0.5447  0.0551 -0.0513
18748TIP3    H277660   4.499   5.622   2.637  0.6684  0.4561  0.7353
18749TIP3   OH277661   4.098   6.241  16.996  0.0072 -0.4669 -0.2854
18749TIP3    H177662   4.191   6.222  17.013 -0.1595  0.0096  1.2446
18749TIP3    H277663   4.072   6.297  17.069 -0.5815  2.2409 -2.4580
18750TIP3   OH277664   1.489   2.022  15.496  0.0338  0.4238  0.0907
18750TIP3    H177665   1.533   1.937  15.487 -1.1741 -0.1304 -0.7194
18750TIP3    H277666   1.416   2.006  15.556  0.6762  1.2457  1.1076
18751TIP3   OH277667   0.041   4.578  12.943 -0.1308 -0.3466 -0.0369
18751TIP3    H177668   0.096   4.506  12.972  1.9184  1.4497  0.6683
18751TIP3    H277669   0.061   4.588  12.849 -0.0895 -0.4374 -0.0365
18752TIP3   OH277670   5.111   0.196   3.981  0.4602  0.2498  0.4908
18752TIP3    H177671   5.175   0.150   4.035  0.2465 -1.0612 -0.3450
18752TIP3    H277672   5.146   0.190   3.892 -0.1522  0.6937  0.2124
18753TIP3   OH277673   3.562   3.215  14.788 -0.1606  0.0153 -0.0763
18753TIP3    H177674   3.628   3.187  14.724  0.5108  1.4319 -0.0076
18753TIP3    H277675   3.565   3.147  14.856 -0.1287 -0.9330 -0.9996
18754TIP3   OH277676   5.372   4.910  13.402  0.2794 -0.2056 -0.6845
18754TIP3    H177677   5.431   4.950  13.465  1.1484 -0.4613 -1.3203
18754TIP3    H277678   5.424   4.903  13.322 -0.7894  0.0815 -1.4160
18755TIP3   OH277679   2.065   0.128  11.044  1.0331 -0.2410 -0.1013
18755TIP3    H177680   2.007   0.080  10.984 -0.3314  1.1771  0.0587
18755TIP3    H277681   2.024   0.117  11.130 -0.5862  3.0574 -0.3641
18756TIP3   OH277682   5.650   4.292  14.172 -0.1044 -0.1111 -0.1978
18756TIP3    H177683   5.668   4.210  14.125  0.6281  0.2892 -0.6374
18756TIP3    H277684   5.736   4.320  14.204 -0.4346  0.2133  0.3934
18757TIP3   OH277685   2.517   4.352  16.136 -0.3910  0.0564 -0.6327
18757TIP3    H177686   2.440   4.320  16.183 -1.1357  0.7457 -1.3590
18757TIP3    H277687   2.481   4.398  16.060  0.7502  0.1015 -1.1577
18758TIP3   OH277688   4.318   4.222   3.902 -0.1721  0.2407 -0.2656
18758TIP3    H177689   4.301   4.130   3.924 -0.1312  0.2651 -0.1304
18758TIP3    H277690   4.413   4.232   3.912 -0.3563  0.6666  1.1626
18759TIP3   OH277691   1.386   4.676  13.149 -0.2786  0.6370  0.5908
18759TIP3    H177692   1.338   4.594  13.161  0.6636 -0.2112 -1.2640
18759TIP3    H277693   1.318   4.741  13.133 -0.9627 -0.0704  0.5999
18760TIP3   OH277694   6.748   4.973   3.797  0.0357 -0.2627  0.7907
18760TIP3    H177695   6.707   5.058   3.810 -1.9459 -1.1164  0.3054
18760TIP3    H277696   6.786   4.952   3.883  1.0330  1.3202  0.7673
18761TIP3   OH277697   6.414   2.214  16.399  0.2184 -0.7896 -0.1340
18761TIP3    H177698   6.430   2.125  16.431  0.3266 -0.9718 -0.6894
18761TIP3    H277699   6.390   2.203  16.307  4.5420  0.0347 -1.4870
18762TIP3   OH277700   6.263   0.898  12.047 -0.0320 -0.2561  0.0749
18762TIP3    H177701   6.256   0.806  12.025  3.5854 -0.2594 -1.4354
18762TIP3    H277702   6.254   0.944  11.963  1.6457  0.5082  0.2826
18763TIP3   OH277703   0.902   4.437  15.239 -0.0961 -0.0410  0.1754
18763TIP3    H177704   0.995   4.433  15.262  0.4286  1.4196 -1.5230
18763TIP3    H277705   0.859   4.465  15.320  0.8809 -1.1302  1.0939
18764TIP3   OH277706   2.169   6.214   5.203 -0.4806  0.2912 -0.4975
18764TIP3    H177707   2.132   6.126   5.189  0.9870 -0.3612 -0.3545
18764TIP3    H277708   2.098   6.274   5.177 -1.0402 -0.9307 -1.8682
18765TIP3   OH277709   6.235   4.373   4.123 -0.2189 -0.0502 -0.2043
18765TIP3    H177710   6.171   4.320   4.076  0.1337  0.0693 -0.8208
18765TIP3    H277711   6.319   4.350   4.084  0.1396 -0.3409  0.7341
18766TIP3   OH277712   3.228   2.826  16.126 -0.0386  0.1353  0.2093
18766TIP3    H177713   3.227   2.916  16.093  2.4368 -0.4749 -1.6878
18766TIP3    H277714   3.149   2.786  16.090  0.4468  0.7050 -1.5695
18767TIP3   OH277715   4.997   0.918  16.035  0.0988 -0.0930  0.3976
18767TIP3    H177716   5.069   0.934  16.096  0.4261  0.2245 -0.0621
18767TIP3    H277717   5.036   0.864  15.966 -0.1314 -0.0177  0.2062
18768TIP3   OH277718   2.432   4.062   4.055 -0.3784 -0.2630 -0.2721
18768TIP3    H177719   2.384   3.988   4.093 -1.0738 -0.2734 -1.1387
18768TIP3    H277720   2.401   4.138   4.104 -0.8918 -0.3431 -0.4617
18769TIP3   OH277721   0.908   4.659   2.294 -0.1518 -0.4291 -0.3316
18769TIP3    H177722   1.002   4.660   2.312 -0.6254 -0.4834  2.2108
18769TIP3    H277723   0.874   4.738   2.337 -1.4323 -0.9568 -0.3555
18770TIP3   OH277724   4.886   5.221   3.447 -0.0874 -0.5076 -0.5514
18770TIP3    H177725   4.869   5.207   3.354  0.2525 -1.7846 -0.4220
18770TIP3    H277726   4.964   5.277   3.448 -0.1094 -0.4633 -1.0286
18771TIP3   OH277727   0.595   4.455  16.851 -0.0265 -0.0510 -0.3437
18771TIP3    H177728   0.511   4.409  16.849  1.0221 -2.0178 -0.3340
18771TIP3    H277729   0.604   4.493  16.764 -0.9513  0.1957 -0.3321
18772TIP3   OH277730   6.582   6.465   2.788 -0.1800  0.2515  0.2610
18772TIP3    H177731   6.589   6.489   2.696 -1.5310  2.1938  0.6556
18772TIP3    H277732   6.499   6.418   2.794  0.4060 -0.8031  0.3151
18773TIP3   OH277733   3.918   1.376  13.579  0.2219  0.0577  0.1996
18773TIP3    H177734   3.914   1.410  13.668  1.4688  0.4965  0.0945
18773TIP3    H277735   3.922   1.281  13.589 -0.3364  0.0773  0.5895
18774TIP3   OH277736   1.531   1.093   5.547 -0.0033 -0.5183 -0.0689
18774TIP3    H177737   1.439   1.068   5.559  0.6477 -3.5823 -1.0798
18774TIP3    H277738   1.542   1.170   5.603 -2.3369 -2.0511  2.6324
18775TIP3   OH277739   6.260   1.252   4.067 -0.7361  0.4190 -0.3493
18775TIP3    H177740   6.225   1.172   4.029  0.1779 -0.2987  0.2869
18775TIP3    H277741   6.246   1.319   4.000 -3.2481  0.1609 -0.1368
18776TIP3   OH277742   3.795   1.781  12.872 -0.5840  0.3012 -0.6908
18776TIP3    H177743   3.802   1.750  12.782 -1.0313  0.6333 -0.8429
18776TIP3    H277744   3.713   1.832  12.874 -1.7555 -1.5889  0.4823
18777TIP3   OH277745   0.787   5.120   1.514 -0.0852  0.1212 -0.1084
18777TIP3    H177746   0.812   5.035   1.551 -0.9516  0.3721  1.0881
18777TIP3    H277747   0.692   5.114   1.503 -0.1758  1.0062  0.1908
18778TIP3   OH277748   4.665   4.911  11.123 -0.1598  0.0383  0.5186
18778TIP3    H177749   4.708   4.940  11.042  2.1390 -3.1622  0.4578
18778TIP3    H277750   4.597   4.850  11.093  1.0522 -1.5722  0.9537
18779TIP3   OH277751   4.921   2.725  16.415  0.1733  0.2066  0.2051
18779TIP3    H177752   4.962   2.762  16.337 -0.9115  1.0895  0.0521
18779TIP3    H277753   4.827   2.726  16.396 -0.2008  1.6312  2.0372
18780TIP3   OH277754   1.809   1.044   3.402  0.4784  0.1362 -0.3985
18780TIP3    H177755   1.781   1.118   3.456  0.1336  0.5841 -1.1804
18780TIP3    H277756   1.842   1.084   3.322  1.6538 -0.4860 -0.2421
18781TIP3   OH277757   1.695   0.329  14.346  0.2731  0.2802 -0.0400
18781TIP3    H177758   1.678   0.417  14.379  1.0495 -0.0977  1.4076
18781TIP3    H277759   1.677   0.272  14.421  3.1289 -0.5069  0.0813
18782TIP3   OH277760   4.048   4.709   5.382 -0.2474  0.4626 -0.4769
18782TIP3    H177761   4.014   4.650   5.315  1.0923  0.4350 -1.1543
18782TIP3    H277762   4.064   4.791   5.335  0.4426  0.5296 -0.1233
18783TIP3   OH277763   4.887   4.653  15.046  0.5763  0.3306  0.7045
18783TIP3    H177764   4.910   4.728  15.100 -0.0647  1.3622 -0.4356
18783TIP3    H277765   4.793   4.642  15.058  0.8863 -1.1545  1.9336
18784TIP3   OH277766   3.191   2.891  14.630  0.3503 -0.1542 -0.2244
18784TIP3    H177767   3.264   2.877  14.690  1.0836  1.4347 -0.7382
18784TIP3    H277768   3.113   2.886  14.686  0.8947 -0.7634  0.5005
18785TIP3   OH277769   2.502   2.285   2.733  0.3412 -0.2169  0.2665
18785TIP3    H177770   2.503   2.305   2.827  1.5472 -3.7905  1.1149
18785TIP3    H277771   2.581   2.327   2.699 -1.0574  2.6614  0.4319
18786TIP3   OH277772   5.001   0.035   0.648  0.1919  0.7839  0.1486
18786TIP3    H177773   4.925   0.010   0.701  0.9669 -1.0273  0.4662
18786TIP3    H277774   4.998  -0.023   0.572  1.0958  0.8796  0.0264
18787TIP3   OH277775   0.757   2.111  11.966  0.0223 -0.2598 -0.2245
18787TIP3    H177776   0.718   2.024  11.962 -2.0208  0.6472 -0.8973
18787TIP3    H277777   0.839   2.103  11.918 -0.1579 -1.8118 -0.2932
18788TIP3   OH277778   5.768   2.957   4.660  0.7327 -0.0822  0.5231
18788TIP3    H177779   5.716   3.014   4.717  1.3193  1.4678 -0.4471
18788TIP3    H277780   5.820   2.904   4.719  0.5856  0.7937  1.4439
18789TIP3   OH277781   2.743   3.823   4.779 -0.3415  0.2527  0.1421
18789TIP3    H177782   2.650   3.843   4.791  0.0701  1.1763  1.9433
18789TIP3    H277783   2.749   3.728   4.786 -1.2858  0.0842 -1.1007
18790TIP3   OH277784   5.984   1.716  17.032  0.0268  0.3328  0.0489
18790TIP3    H177785   6.006   1.808  17.047  0.3658  0.7001 -2.5088
18790TIP3    H277786   5.903   1.719  16.981  1.3930 -0.6691 -2.2662
18791TIP3   OH277787   6.257   4.466   0.497 -0.6462 -0.5552 -0.0393
18791TIP3    H177788   6.311   4.481   0.575  1.0090 -0.3077 -1.2097
18791TIP3    H277789   6.249   4.371   0.491  0.4686 -0.6299 -0.3976
18792TIP3   OH277790   5.192   3.090  13.350  0.2196 -0.3094  0.0915
18792TIP3    H177791   5.195   3.029  13.424 -0.2740  0.3935  0.6943
18792TIP3    H277792   5.112   3.065  13.303 -0.5360  0.5307  0.9138
18793TIP3   OH277793   4.218   4.325   4.160 -0.3916 -1.1738  0.0823
18793TIP3    H177794   4.245   4.316   4.068  0.5915 -0.9613  0.3430
18793TIP3    H277795   4.126   4.297   4.161 -1.0202  0.7233 -1.3382
18794TIP3   OH277796   6.078   0.774   5.822  0.3623 -0.2163  0.1787
18794TIP3    H177797   5.987   0.746   5.824  0.6549 -1.1615  0.8147
18794TIP3    H277798   6.110   0.747   5.736  0.6976 -2.0681  0.8684
18795TIP3   OH277799   5.129   4.625  15.738  0.0427 -0.0102  0.1293
18795TIP3    H177800   5.130   4.531  15.719 -2.4566 -0.5391  2.2369
18795TIP3    H277801   5.141   4.629  15.833 -1.2939  1.7110  0.2446
18796TIP3   OH277802   1.220   3.790  11.904 -0.0369  0.3838  0.0280
18796TIP3    H177803   1.242   3.735  11.829 -3.1909 -1.7507  0.5926
18796TIP3    H277804   1.210   3.878  11.867  0.8687 -0.1783 -1.5967
18797TIP3   OH277805   4.408   2.757  16.087  0.1721 -0.9203 -0.2543
18797TIP3    H177806   4.332   2.813  16.069  0.4115 -0.8552 -1.0611
18797TIP3    H277807   4.403   2.740  16.181  0.6421  1.2992  0.2169
18798TIP3   OH277808   0.814   2.713   4.964 -0.2673 -0.0821 -0.6614
18798TIP3    H177809   0.848   2.775   5.029 -0.6745  1.0084 -1.4720
18798TIP3    H277810   0.874   2.639   4.969  1.0548  0.9650 -0.6386
18799TIP3   OH277811   5.413   4.807  15.033  0.2111 -0.2889  0.2249
18799TIP3    H177812   5.365   4.737  14.989 -1.2229 -0.5940  2.2245
18799TIP3    H277813   5.378   4.888  14.997 -0.5804 -0.5476  0.4142
18800TIP3   OH277814   2.155   6.242  12.713 -0.0948 -0.2634 -0.3264
18800TIP3    H177815   2.133   6.230  12.805 -0.4362 -0.3829 -0.4202
18800TIP3    H277816   2.083   6.198  12.666  0.4549 -0.8396 -0.6386
18801TIP3   OH277817   6.323   4.076   0.217 -0.0908 -0.0719 -0.2593
18801TIP3    H177818   6.237   4.111   0.239 -0.1644  1.2428 -2.5739
18801TIP3    H277819   6.320   4.060   0.123  2.3351  0.4333 -0.4556
18802TIP3   OH277820   2.352   1.496  14.105 -0.2013 -0.2459 -0.1209
18802TIP3    H177821   2.333   1.525  14.194  0.7857  0.0031  0.0143
18802TIP3    H277822   2.371   1.576  14.057  1.6764 -0.5906  0.0397
18803TIP3   OH277823   1.564   5.072  16.003 -0.1721  0.2078  0.1275
18803TIP3    H177824   1.648   5.089  15.961  0.1734 -3.5291 -0.8714
18803TIP3    H277825   1.500   5.113  15.946  0.8391  1.6371 -0.0027
18804TIP3   OH277826   2.551   4.994   1.579  0.2186  0.4536 -0.0674
18804TIP3    H177827   2.645   4.985   1.563  0.7273 -2.5186  3.7407
18804TIP3    H277828   2.544   5.067   1.640  0.1673  0.0955  0.3583
18805TIP3   OH277829   6.183   1.530   1.812 -0.2112  0.6001  0.0661
18805TIP3    H177830   6.137   1.448   1.793  0.1506  0.8225 -1.9211
18805TIP3    H277831   6.220   1.556   1.727  1.3960  1.7477  1.0962
18806TIP3   OH277832   5.196   6.376  16.056  0.1465 -0.6127  0.0825
18806TIP3    H177833   5.170   6.390  15.965  1.0902 -0.4624 -0.1675
18806TIP3    H277834   5.196   6.281  16.067  1.7531 -0.7045 -0.5910
18807TIP3   OH277835   3.235   5.989  11.597 -0.1032  0.4247  0.3044
18807TIP3    H177836   3.271   5.960  11.681 -0.5749  1.9699  1.0486
18807TIP3    H277837   3.310   5.988  11.537 -0.2273 -2.9651  0.1086
18808TIP3   OH277838   1.163   4.781   1.864  0.4227 -0.5542  0.5149
18808TIP3    H177839   1.098   4.767   1.933  0.3781 -1.5984  0.2661
18808TIP3    H277840   1.141   4.717   1.796  1.7572 -0.9832  0.4691
18809TIP3   OH277841   3.916   4.508   2.901 -0.0525  0.0793  0.4516
18809TIP3    H177842   3.981   4.482   2.967  2.3094  0.9678 -1.4927
18809TIP3    H277843   3.865   4.577   2.944  1.2538  0.4310  1.4738
18810TIP3   OH277844   4.750   6.737  14.453 -0.2906 -0.0478 -0.1453
18810TIP3    H177845   4.684   6.797  14.419  1.2297  1.1490 -1.0641
18810TIP3    H277846   4.831   6.764  14.411  0.9124 -1.0782  1.4323
18811TIP3   OH277847   2.313   2.890  15.372 -0.0560  0.4723  0.6548
18811TIP3    H177848   2.357   2.886  15.287 -0.3871 -0.2586  0.5186
18811TIP3    H277849   2.361   2.828  15.427 -1.0579 -0.5286  0.4322
18812TIP3   OH277850   6.711   4.770   1.884  0.5022  0.5172  0.3253
18812TIP3    H177851   6.661   4.848   1.859  1.3386  0.9459 -0.0351
18812TIP3    H277852   6.682   4.703   1.823 -0.2686  0.5316  0.6750
18813TIP3   OH277853   5.164   5.919   4.554  0.3183 -0.1515 -1.0071
18813TIP3    H177854   5.127   5.997   4.596  0.3548 -0.5150 -0.2864
18813TIP3    H277855   5.125   5.846   4.602  0.0668 -0.5799 -1.8668
18814TIP3   OH277856   1.012   0.754  11.297 -0.4606  0.4170  0.3771
18814TIP3    H177857   1.033   0.759  11.204 -0.4903  0.2728  0.3635
18814TIP3    H277858   0.971   0.668  11.308  1.6867 -0.5837  0.9369
18815TIP3   OH277859   5.177   2.908   3.608 -0.1448 -0.0540 -0.3192
18815TIP3    H177860   5.267   2.930   3.584 -0.5613  1.9049 -0.1327
18815TIP3    H277861   5.125   2.933   3.532 -0.7369  0.4169  0.2379
18816TIP3   OH277862   3.536   2.600  15.055  0.0754  0.0643  0.7780
18816TIP3    H177863   3.527   2.620  14.962  1.7678  0.5248  0.6853
18816TIP3    H277864   3.508   2.509  15.063  0.4761 -0.1592 -0.2886
18817TIP3   OH277865   0.462   6.652  13.825  0.6194 -0.0081 -0.1388
18817TIP3    H177866   0.469   6.724  13.762 -0.6032 -0.0845 -0.3651
18817TIP3    H277867   0.477   6.694  13.910 -1.5219  0.7922 -0.1286
18818TIP3   OH277868   5.697   6.353   3.901  0.3902 -0.2300  0.3245
18818TIP3    H177869   5.656   6.309   3.826  0.3504  1.5200 -0.7004
18818TIP3    H277870   5.736   6.281   3.952 -0.5659 -1.5488 -0.7511
18819TIP3   OH277871   4.649   0.898   1.705 -1.3767 -0.2856  0.4290
18819TIP3    H177872   4.740   0.871   1.694 -0.7091  1.9073  0.2868
18819TIP3    H277873   4.601   0.853   1.636 -0.0889 -0.0344 -0.6401
18820TIP3   OH277874   3.892   4.968   1.930 -0.2969  0.2313 -0.6522
18820TIP3    H177875   3.910   4.874   1.922 -0.3530  0.3019 -1.6450
18820TIP3    H277876   3.967   5.003   1.977 -1.1443 -0.6148  1.4225
18821TIP3   OH277877   0.752   5.384  12.726  0.2923 -0.2513  0.7604
18821TIP3    H177878   0.696   5.366  12.651  0.7931  1.3814 -0.0100
18821TIP3    H277879   0.805   5.305  12.736 -1.7173 -1.6012  1.1536
18822TIP3   OH277880   0.545   3.700  13.605 -0.0076  0.6629  0.2880
18822TIP3    H177881   0.462   3.664  13.637  0.2158  0.2518  0.4126
18822TIP3    H277882   0.601   3.704  13.682  0.7452 -0.9501 -0.1549
18823TIP3   OH277883   4.985   5.105  11.154 -0.1907 -0.3602  0.0244
18823TIP3    H177884   5.044   5.170  11.193  0.2284 -0.7304  0.0167
18823TIP3    H277885   4.928   5.156  11.096 -0.7319  0.1762  1.0096
18824TIP3   OH277886   2.330   5.280   2.539 -0.3895  0.2525 -0.4129
18824TIP3    H177887   2.291   5.261   2.454  0.4713  0.6514 -0.9025
18824TIP3    H277888   2.424   5.263   2.527 -0.0495  1.7506  0.0176
18825TIP3   OH277889   2.167   5.931  14.243 -0.1741  0.5317 -0.0864
18825TIP3    H177890   2.085   5.981  14.234 -0.5365  0.3613  2.0588
18825TIP3    H277891   2.139   5.839  14.239 -0.0563  0.4755  0.3868
18826TIP3   OH277892   3.839   0.433  15.015  0.4464 -0.0574 -0.4599
18826TIP3    H177893   3.817   0.479  14.934 -1.3885  0.4974  0.3278
18826TIP3    H277894   3.855   0.343  14.989  2.6172  0.6833 -1.8207
18827TIP3   OH277895   2.742   1.884  13.283 -0.6914 -0.0292  0.2196
18827TIP3    H177896   2.747   1.952  13.350  2.2898  1.2219 -1.1628
18827TIP3    H277897   2.652   1.852  13.287 -1.2481  1.7415  3.1017
18828TIP3   OH277898   5.596   4.973   0.930 -0.3730 -0.0749  0.0926
18828TIP3    H177899   5.687   4.976   0.958  0.0782  0.9791 -1.4536
18828TIP3    H277900   5.552   4.919   0.997  0.8953  1.3202  2.1065
18829TIP3   OH277901   2.750   0.508  13.368  0.3629  0.1569  0.0161
18829TIP3    H177902   2.670   0.455  13.377  0.9011 -0.5851  0.4509
18829TIP3    H277903   2.806   0.478  13.439  1.1779  0.4322 -0.5127
18830TIP3   OH277904   0.710   2.397   5.348  0.8450  0.4030 -0.2430
18830TIP3    H177905   0.671   2.425   5.431 -1.1138 -0.2684 -0.9254
18830TIP3    H277906   0.680   2.462   5.285  1.9579  0.6465 -0.5284
18831TIP3   OH277907   4.502   2.785   0.586 -0.4143 -0.5291 -0.9534
18831TIP3    H177908   4.488   2.864   0.533  0.5293  0.5101  0.3363
18831TIP3    H277909   4.430   2.785   0.649  0.2188 -0.0867 -0.2255
18832TIP3   OH277910   4.271   4.942   0.189 -0.1125 -0.3232  0.0656
18832TIP3    H177911   4.184   4.932   0.229  0.7106 -2.2263  1.4434
18832TIP3    H277912   4.260   4.911   0.100 -0.8980 -0.3798  0.1763
18833TIP3   OH277913   3.311   3.128  13.680  0.0014  0.1729  0.2101
18833TIP3    H177914   3.247   3.160  13.743 -0.8556 -1.0078 -0.0541
18833TIP3    H277915   3.396   3.147  13.721 -0.5463 -1.1955  2.0405
18834TIP3   OH277916   4.212   3.132  12.913  0.1310  0.1007  0.1818
18834TIP3    H177917   4.182   3.195  12.979  2.0375 -0.0444  1.2310
18834TIP3    H277918   4.247   3.186  12.842  0.4254  0.2543  0.4386
18835TIP3   OH277919   4.040   5.364   0.182 -0.0732  0.4934 -0.1593
18835TIP3    H177920   3.993   5.437   0.222 -0.8481 -0.7978  1.3123
18835TIP3    H277921   4.000   5.355   0.095 -0.0282  1.7570 -0.3192
18836TIP3   OH277922   1.897   4.445   3.777 -0.1474 -0.2554  0.5451
18836TIP3    H177923   1.928   4.496   3.852 -1.0666  0.0816  0.6983
18836TIP3    H277924   1.969   4.449   3.714  0.6327 -0.5243  1.3952
18837TIP3   OH277925   2.407   4.965  11.288  1.0540  0.2748 -0.1479
18837TIP3    H177926   2.320   4.947  11.324  1.9192  0.4825  2.1515
18837TIP3    H277927   2.391   5.018  11.210 -0.9835 -1.5636 -1.0411
18838TIP3   OH277928   5.482   0.533   4.360  0.4230 -0.3218  0.8120
18838TIP3    H177929   5.567   0.544   4.403  1.0778  0.3052 -0.6006
18838TIP3    H277930   5.466   0.438   4.364  1.4453 -0.5139  0.6331
18839TIP3   OH277931   1.136   3.573  13.913  0.0061 -0.1881 -0.3489
18839TIP3    H177932   1.133   3.624  13.832 -2.5057 -0.9249 -0.7795
18839TIP3    H277933   1.107   3.634  13.981  0.4374 -0.0569 -0.2803
18840TIP3   OH277934   0.303   4.663   5.620 -0.0862  0.4078  0.5359
18840TIP3    H177935   0.265   4.705   5.698  1.1457  0.6520  1.0182
18840TIP3    H277936   0.319   4.735   5.559 -2.2689  0.0633 -0.4875
18841TIP3   OH277937   0.455   3.772  13.920 -0.4877  0.3715  0.2098
18841TIP3    H177938   0.473   3.827  13.997 -0.6019  0.7163 -0.0059
18841TIP3    H277939   0.414   3.832  13.858  1.6600  0.6195 -1.0041
18842TIP3   OH277940   4.883   2.715  12.115 -0.0005 -0.2734  0.4765
18842TIP3    H177941   4.945   2.668  12.171  1.6346 -1.6484 -2.3692
18842TIP3    H277942   4.937   2.778  12.067 -1.4853  1.4111  0.9762
18843TIP3   OH277943   2.779   5.886  12.778 -0.4513  0.7745  0.2385
18843TIP3    H177944   2.758   5.828  12.851 -0.4799  0.7007  0.1711
18843TIP3    H277945   2.874   5.881  12.768 -0.3951  1.1656  0.5922
18844TIP3   OH277946   2.741   2.897  14.702  0.3804 -0.1560 -0.3707
18844TIP3    H177947   2.723   2.990  14.714 -0.8428 -0.6688  1.9620
18844TIP3    H277948   2.655   2.856  14.692  0.7828 -1.2959  0.6681
18845TIP3   OH277949   3.874   0.300  14.232  0.2558 -0.4849  0.4473
18845TIP3    H177950   3.865   0.212  14.267 -1.0209 -0.4835  0.1396
18845TIP3    H277951   3.820   0.300  14.153 -0.0097  0.6680  0.6248
18846TIP3   OH277952   4.741   4.385  16.214 -0.3606  0.0747  0.1907
18846TIP3    H177953   4.830   4.390  16.247 -0.0043  0.2648 -0.8034
18846TIP3    H277954   4.722   4.291  16.209  0.7313 -0.0399 -2.1363
18847TIP3   OH277955   5.068   2.529  16.138 -0.8267  0.0284 -0.0792
18847TIP3    H177956   5.110   2.608  16.170 -2.9888  2.0292 -2.0132
18847TIP3    H277957   5.110   2.511  16.054 -2.8144  1.2260 -1.3496
18848TIP3   OH277958   3.323   1.348  14.862 -0.6558  0.3274  0.3070
18848TIP3    H177959   3.386   1.418  14.840  0.7895 -0.5877  1.4751
18848TIP3    H277960   3.240   1.379  14.826 -0.2092  3.0199  1.4635
18849TIP3   OH277961   3.141   3.665  12.058 -0.1496  0.1180  0.2547
18849TIP3    H177962   3.229   3.630  12.070 -0.7073 -1.0443  0.9727
18849TIP3    H277963   3.145   3.752  12.098  0.4992 -0.1819  0.8591
18850TIP3   OH277964   5.049   3.640   4.101 -0.7625 -0.1995 -0.3192
18850TIP3    H177965   5.140   3.669   4.094 -0.7909 -0.1520 -0.4991
18850TIP3    H277966   5.008   3.669   4.019 -0.2228 -2.8341 -1.5677
18851TIP3   OH277967   5.094   6.711  14.733 -0.3118  0.1019 -0.2051
18851TIP3    H177968   5.066   6.797  14.703 -1.2060  0.4759  1.5957
18851TIP3    H277969   5.035   6.649  14.690  0.1940  0.4100 -1.3331
18852TIP3   OH277970   3.320   1.949   2.995  0.5475  0.1051 -0.1757
18852TIP3    H177971   3.360   1.889   2.933  0.7252 -0.8306  0.8310
18852TIP3    H277972   3.294   1.894   3.069  1.9039  1.4490  1.3308
18853TIP3   OH277973   5.450   0.235   5.922 -0.0457  0.0963 -0.2959
18853TIP3    H177974   5.536   0.271   5.943  0.5391 -1.5083  0.1749
18853TIP3    H277975   5.395   0.258   5.997  0.0713  0.7935 -0.4242
18854TIP3   OH277976   3.011   0.502   3.719  0.2407 -0.0775  0.0084
18854TIP3    H177977   3.065   0.573   3.755 -0.9369  0.4220  0.8501
18854TIP3    H277978   3.041   0.493   3.629  0.8131  1.1043  0.0594
18855TIP3   OH277979   3.477   3.635   3.890 -1.0227 -0.2724  0.2141
18855TIP3    H177980   3.536   3.608   3.820 -2.5807 -3.0795 -0.0913
18855TIP3    H277981   3.534   3.654   3.964  0.4248 -0.2369 -0.8975
18856TIP3   OH277982   0.816   1.623   6.035  0.5855 -0.1962 -0.1565
18856TIP3    H177983   0.876   1.634   5.962 -2.4559 -0.2405 -2.7563
18856TIP3    H277984   0.740   1.677   6.013 -1.0792 -1.4453  2.2069
18857TIP3   OH277985   5.451   2.152  14.667  0.4933  0.0535 -0.4990
18857TIP3    H177986   5.539   2.147  14.632  0.9710 -0.5064  0.7510
18857TIP3    H277987   5.460   2.202  14.748  0.0456 -2.0001  0.8368
18858TIP3   OH277988   1.365   4.398   1.114 -0.9922 -0.6972 -0.0454
18858TIP3    H177989   1.377   4.486   1.079 -1.8011 -0.6133 -0.1032
18858TIP3    H277990   1.325   4.412   1.200 -2.1723 -1.0590 -0.5294
18859TIP3   OH277991   1.836   4.806   3.880 -0.5298  0.2511 -0.9678
18859TIP3    H177992   1.801   4.722   3.909  1.2959  0.1415  1.0954
18859TIP3    H277993   1.927   4.788   3.856 -0.0315  1.6582 -0.2287
18860TIP3   OH277994   4.886   4.169  15.409 -0.4328 -0.2951 -0.0724
18860TIP3    H177995   4.851   4.157  15.321 -0.6564  0.2739 -0.0628
18860TIP3    H277996   4.811   4.150  15.467 -1.0330  1.9203 -0.0747
18861TIP3   OH277997   4.107   2.706  12.240 -0.2866 -0.5858  0.5552
18861TIP3    H177998   4.133   2.780  12.294  0.8383 -2.1485  2.2239
18861TIP3    H277999   4.032   2.668  12.286 -0.4059 -0.9219  0.0901
18862TIP3   OH278000   5.655   2.862  15.840  0.0915 -0.2725 -0.4081
18862TIP3    H178001   5.616   2.900  15.918 -0.4613 -2.9523  0.7004
18862TIP3    H278002   5.597   2.886  15.769 -1.2978 -0.6870  0.5779
18863TIP3   OH278003   0.505   2.388   5.571 -0.3599 -0.4806 -0.2156
18863TIP3    H178004   0.473   2.308   5.615 -1.1876 -0.2267 -0.3476
18863TIP3    H278005   0.429   2.421   5.524 -0.5736  1.4852  1.4470
18864TIP3   OH278006   5.444   2.717   1.793  0.3710 -0.8229 -0.1195
18864TIP3    H178007   5.501   2.641   1.778 -1.7714 -2.5779  0.3643
18864TIP3    H278008   5.478   2.757   1.873  2.3243 -0.4830 -1.0926
18865TIP3   OH278009   0.957   5.578  11.509 -0.0163  0.1243  0.5141
18865TIP3    H178010   0.867   5.581  11.477  0.2197  1.2934 -0.0682
18865TIP3    H278011   0.948   5.577  11.605 -0.6526  0.2983  0.4603
18866TIP3   OH278012   5.744   2.553   1.194  0.2091  0.1533 -0.0422
18866TIP3    H178013   5.740   2.585   1.284  0.9070 -0.5784  0.2568
18866TIP3    H278014   5.653   2.555   1.163  0.1487  1.6843  0.2161
18867TIP3   OH278015   5.106   5.956   0.675  0.3290  0.6632  0.0543
18867TIP3    H178016   5.182   5.976   0.619  1.0479 -0.9999  0.4200
18867TIP3    H278017   5.063   5.883   0.632  0.4848 -0.1630  1.2963
18868TIP3   OH278018   1.794   1.858  15.096  0.3222  0.5121  0.5235
18868TIP3    H178019   1.745   1.936  15.122  0.7802  1.5070 -1.4766
18868TIP3    H278020   1.815   1.872  15.003  2.0476 -1.1310  0.6201
18869TIP3   OH278021   5.931   6.482  14.401  0.0263  0.8412 -0.0330
18869TIP3    H178022   5.987   6.446  14.331  1.6190 -0.8981  2.0831
18869TIP3    H278023   5.849   6.434  14.393 -0.2603  1.5475 -1.5066
18870TIP3   OH278024   5.705   4.444  12.865 -0.1549  0.0571 -0.6106
18870TIP3    H178025   5.757   4.366  12.845 -2.5558 -1.8933  0.4853
18870TIP3    H278026   5.662   4.465  12.783 -0.2262 -0.3495 -0.6808
18871TIP3   OH278027   5.518   0.332   6.637  0.2624 -0.0723 -0.5175
18871TIP3    H178028   5.506   0.277   6.560  0.9765 -0.3511 -0.4367
18871TIP3    H278029   5.450   0.302   6.698  0.7593 -0.9839 -0.4111
18872TIP3   OH278030   5.417   1.568  12.367 -0.2116 -0.3518  0.5923
18872TIP3    H178031   5.333   1.527  12.388 -2.2389  1.0906 -4.0473
18872TIP3    H278032   5.474   1.495  12.343 -1.2129 -1.1002  0.4618
18873TIP3   OH278033   5.013   0.173  10.502 -0.1537 -0.0549 -0.1283
18873TIP3    H178034   4.933   0.221  10.521  0.8707  1.6880 -0.0647
18873TIP3    H278035   4.985   0.084  10.484 -1.8797 -0.0005  2.1600
18874TIP3   OH278036   2.939   6.063  16.288  0.0636 -0.1837 -0.5389
18874TIP3    H178037   2.983   6.070  16.372 -1.5833 -0.2341  0.3552
18874TIP3    H278038   2.990   5.999  16.238  2.0651  1.1507 -0.2531
18875TIP3   OH278039   6.717   1.466   6.570  0.2214 -0.3545 -0.8495
18875TIP3    H178040   6.677   1.392   6.615 -0.5725 -0.6980 -2.1320
18875TIP3    H278041   6.800   1.432   6.536  0.7857 -0.1163  0.2491
18876TIP3   OH278042   1.139   0.489  13.004 -0.3518  0.4625 -0.4546
18876TIP3    H178043   1.170   0.497  13.094 -2.3809  0.0436  0.3060
18876TIP3    H278044   1.139   0.395  12.987 -1.4016  0.4386 -0.3622
18877TIP3   OH278045   5.211   4.629  16.002 -0.0915 -0.6957  0.2349
18877TIP3    H178046   5.202   4.718  16.037  2.4220 -0.3571  0.1205
18877TIP3    H278047   5.272   4.586  16.061  0.0218 -1.8195 -0.6816
18878TIP3   OH278048   0.935   4.092  12.802  0.1571  0.6624 -0.3799
18878TIP3    H178049   0.998   4.037  12.756 -0.6153 -0.5749  0.0137
18878TIP3    H278050   0.916   4.045  12.883 -2.5212  0.1687 -1.2448
18879TIP3   OH278051   4.005   5.346   0.658 -0.1984 -0.4302 -0.2252
18879TIP3    H178052   3.932   5.390   0.615 -1.3727 -1.6302  0.4862
18879TIP3    H278053   4.033   5.407   0.727  0.9295  0.9823 -1.9037
18880TIP3   OH278054   3.014   6.663  12.583 -0.1535 -0.0816  0.1314
18880TIP3    H178055   2.993   6.714  12.662  0.5945  1.1481 -0.4497
18880TIP3    H278056   2.934   6.613  12.565 -0.4282 -0.1612  1.5079
18881TIP3   OH278057   5.866   5.763  13.346  0.0814  1.0486  0.6222
18881TIP3    H178058   5.800   5.701  13.376  0.9512  0.1044  0.5989
18881TIP3    H278059   5.816   5.840  13.318 -0.9415  0.7259  1.5304
18882TIP3   OH278060   0.536   6.642   2.419 -0.8230  0.3870  0.4053
18882TIP3    H178061   0.620   6.621   2.459 -1.2528  1.5682  1.9612
18882TIP3    H278062   0.484   6.561   2.426 -0.7176  0.4386  1.7679
18883TIP3   OH278063   5.887   3.911  13.884  0.1378 -0.3490 -0.6548
18883TIP3    H178064   5.967   3.859  13.888  0.7985  0.6977  0.0566
18883TIP3    H278065   5.916   3.997  13.853 -0.5947  0.2494  0.2808
18884TIP3   OH278066   1.132   2.678  11.369 -0.1024  0.0379  0.2636
18884TIP3    H178067   1.082   2.759  11.380 -0.3902 -0.1115  0.0456
18884TIP3    H278068   1.136   2.640  11.457  0.7171  0.6937  0.5130
18885TIP3   OH278069   6.683   0.063  16.085  0.4875 -0.0702 -0.0387
18885TIP3    H178070   6.724  -0.022  16.066  0.0592 -0.4228  0.6034
18885TIP3    H278071   6.642   0.051  16.170  1.0765  1.0193  0.4141
18886TIP3   OH278072   0.994   1.342  16.769  0.4329 -0.3395 -0.4780
18886TIP3    H178073   1.055   1.405  16.730  1.2003 -0.0769  1.1173
18886TIP3    H278074   1.050   1.279  16.814 -0.3438 -2.0087 -1.8051
18887TIP3   OH278075   0.552   4.612  14.765  0.3354 -0.1495 -0.3919
18887TIP3    H178076   0.605   4.586  14.840  0.3409  1.4411  0.1605
18887TIP3    H278077   0.528   4.703  14.782 -0.6974 -0.1513 -1.7233
18888TIP3   OH278078   0.950   1.612  10.546  0.2601 -0.4196 -0.1524
18888TIP3    H178079   1.033   1.639  10.585 -0.0063  0.5665 -0.2608
18888TIP3    H278080   0.884   1.661  10.595 -0.1162  0.4248 -1.4722
18889TIP3   OH278081   0.814   3.627  12.896  0.0758 -0.2036  0.0451
18889TIP3    H178082   0.826   3.534  12.913  1.3739 -0.4850 -2.2752
18889TIP3    H278083   0.878   3.671  12.952  1.2358 -0.8617 -0.7483
18890TIP3   OH278084   0.212   1.174   3.650  0.0056  0.7872 -0.4633
18890TIP3    H178085   0.242   1.130   3.571  1.4856 -0.0248  0.5193
18890TIP3    H278086   0.134   1.125   3.677  1.4465 -1.0995  0.4381
18891TIP3   OH278087   2.662   6.291  12.520  0.3079 -0.4906 -0.3198
18891TIP3    H178088   2.707   6.209  12.539 -2.8831 -2.6251 -1.5355
18891TIP3    H278089   2.571   6.274  12.544 -0.4436  2.6480 -0.7666
18892TIP3   OH278090   3.611   3.028  15.065  0.1266  0.5247  0.3379
18892TIP3    H178091   3.630   3.098  15.128  1.0473 -0.6935  1.4417
18892TIP3    H278092   3.692   2.978  15.060 -1.1840 -1.7291  1.1835
18893TIP3   OH278093   0.953   6.129   5.524 -0.0258 -0.5737 -0.2452
18893TIP3    H178094   0.910   6.112   5.608  0.4456 -3.1902 -0.4766
18893TIP3    H278095   0.936   6.221   5.507 -0.3063 -0.0273  2.6227
18894TIP3   OH278096   0.510   2.399  15.614 -0.3047 -0.1842  0.0987
18894TIP3    H178097   0.580   2.443  15.566  2.4226 -4.1382  0.1816
18894TIP3    H278098   0.545   2.388  15.702 -0.9733 -2.2594  0.1378
18895TIP3   OH278099   0.487   6.143   0.568 -0.1374 -0.3426  0.1523
18895TIP3    H178100   0.448   6.092   0.496  0.1193  1.3570 -1.2213
18895TIP3    H278101   0.565   6.094   0.592 -0.8742 -1.5766  0.1060
18896TIP3   OH278102   3.811   4.040  16.083 -0.2109  0.1303 -0.0945
18896TIP3    H178103   3.738   4.102  16.088 -1.7464 -1.7502  1.7953
18896TIP3    H278104   3.853   4.046  16.168  0.7861 -0.0496 -0.5730
18897TIP3   OH278105   3.317   2.641  13.900  0.7609  0.1735  0.0371
18897TIP3    H178106   3.326   2.737  13.900  0.6110  0.1901  1.5225
18897TIP3    H278107   3.379   2.611  13.834  0.2230  1.3535 -1.0302
18898TIP3   OH278108   4.587   1.928   1.202 -0.2367 -0.0068 -0.2365
18898TIP3    H178109   4.620   1.961   1.119 -2.1851  1.1768 -0.5780
18898TIP3    H278110   4.498   1.899   1.183 -0.4754 -0.3199  1.2914
18899TIP3   OH278111   6.622   6.730   2.050  0.1669  0.4338  0.1696
18899TIP3    H178112   6.694   6.793   2.051  1.3795 -0.9469  0.8295
18899TIP3    H278113   6.565   6.760   1.979  1.3674  1.5592 -0.3282
18900TIP3   OH278114   4.599   5.097   4.963  0.1408 -0.4293 -0.4460
18900TIP3    H178115   4.609   5.134   4.875 -0.4620 -1.4388 -0.9437
18900TIP3    H278116   4.636   5.164   5.021  3.2719 -1.0204 -1.6805
18901TIP3   OH278117   1.457   3.465  16.088 -0.3508 -0.9676  0.4970
18901TIP3    H178118   1.443   3.555  16.059  0.3884 -0.5728  1.3252
18901TIP3    H278119   1.426   3.411  16.016 -1.1383 -0.0534  0.1424
18902TIP3   OH278120   4.917   5.249   0.359 -0.5311 -0.1700  0.3343
18902TIP3    H178121   4.982   5.185   0.390  0.9826  1.3967  0.4705
18902TIP3    H278122   4.837   5.227   0.406  0.1199 -1.6327  0.7801
18903TIP3   OH278123   5.303   1.121  12.692 -0.1771 -0.1052  0.2392
18903TIP3    H178124   5.317   1.194  12.752 -1.2936  1.9529 -1.9477
18903TIP3    H278125   5.390   1.105  12.653  0.3176 -0.7507  1.5786
18904TIP3   OH278126   3.019   3.605  16.346 -0.0094 -0.0091 -0.6236
18904TIP3    H178127   3.072   3.608  16.426  0.3232  2.4101 -0.8887
18904TIP3    H278128   3.082   3.609  16.275 -0.4553  1.3211 -0.9598
18905TIP3   OH278129   3.971   0.256  10.939  0.2347  0.1048 -0.2073
18905TIP3    H178130   3.943   0.166  10.923  2.9274 -0.8911  0.3811
18905TIP3    H278131   3.919   0.284  11.014  2.0247 -2.3191  2.0332
18906TIP3   OH278132   4.105   0.832  14.525 -0.1528 -0.2077  0.2982
18906TIP3    H178133   4.088   0.814  14.432 -2.4759  0.5394  0.5373
18906TIP3    H278134   4.186   0.883  14.525 -0.1415 -0.1942 -1.3345
18907TIP3   OH278135   2.409   1.398  11.525  0.0929 -0.2243  0.1779
18907TIP3    H178136   2.375   1.391  11.436 -0.2777 -2.6470  0.4802
18907TIP3    H278137   2.504   1.394  11.515  0.0537 -0.4584 -0.1052
18908TIP3   OH278138   4.014   2.361  12.095 -0.1116  0.1919 -0.1628
18908TIP3    H178139   4.074   2.338  12.024  0.4170  0.3866  0.2191
18908TIP3    H278140   3.995   2.454  12.082  1.3720  0.6764  0.9624
18909TIP3   OH278141   4.103   1.219   0.477  0.0928  0.8525  0.2230
18909TIP3    H178142   4.122   1.139   0.526 -0.8775 -0.0673 -0.8776
18909TIP3    H278143   4.183   1.234   0.425 -0.0511  0.1044 -0.2225
18910TIP3   OH278144   1.471   3.547   0.056  0.1361 -0.1119  0.5352
18910TIP3    H178145   1.422   3.466   0.067  0.8150 -0.5234  0.5834
18910TIP3    H278146   1.563   3.520   0.061  0.3819  0.4958 -0.6566
18911TIP3   OH278147   0.344   2.718   1.976 -0.4772  0.7567  0.1690
18911TIP3    H178148   0.288   2.674   1.912 -2.0749  1.5088  1.0138
18911TIP3    H278149   0.358   2.805   1.940  1.4801  0.0537 -0.8029
18912TIP3   OH278150   4.433   3.998  17.195 -0.2111  0.2991 -0.5064
18912TIP3    H178151   4.455   4.064  17.130 -0.1414  2.7757  1.9171
18912TIP3    H278152   4.482   4.023  17.273 -1.4349 -1.6990  0.9822
18913TIP3   OH278153   3.853   5.521   0.473  0.1502 -0.2543 -0.8665
18913TIP3    H178154   3.939   5.485   0.454  0.6452  0.3951  0.0886
18913TIP3    H278155   3.854   5.608   0.433  0.1619 -0.0165 -0.3608
18914TIP3   OH278156   2.875   1.411   3.960 -0.2823 -0.3547  0.0990
18914TIP3    H178157   2.951   1.469   3.958  0.9406 -1.7645  3.1094
18914TIP3    H278158   2.802   1.467   3.985  0.2304  0.5504 -0.4353
18915TIP3   OH278159   3.855   0.162  12.111 -0.1746  0.1987  0.4403
18915TIP3    H178160   3.814   0.086  12.068 -1.0759  0.4829  0.7983
18915TIP3    H278161   3.782   0.218  12.136  0.5533  1.8721 -1.0503
18916TIP3   OH278162   3.978   3.649  17.103 -0.3121  0.2975  0.6341
18916TIP3    H178163   3.903   3.610  17.057 -0.3315  1.4894 -0.3590
18916TIP3    H278164   4.044   3.579  17.104 -0.6997 -0.0870 -0.2678
18917TIP3   OH278165   5.992   1.151  13.496  0.0418  0.2841  0.3395
18917TIP3    H178166   5.901   1.138  13.522 -0.1716  2.0742  0.5936
18917TIP3    H278167   6.025   1.063  13.479 -1.5133 -0.4498  0.9751
18918TIP3   OH278168   2.085   1.842   3.408  0.7214 -0.5686  0.3247
18918TIP3    H178169   2.096   1.882   3.495  0.8605 -0.3114  0.1883
18918TIP3    H278170   2.173   1.843   3.370  0.8786 -1.7242  0.6328
18919TIP3   OH278171   2.742   2.864  16.850 -0.0834 -0.2687  0.3903
18919TIP3    H178172   2.689   2.934  16.888 -1.5139 -1.2668  0.2881
18919TIP3    H278173   2.720   2.865  16.757 -0.6191 -1.2580  0.4946
18920TIP3   OH278174   6.216   6.071   5.079 -0.3392  0.4958 -0.1651
18920TIP3    H178175   6.120   6.066   5.080 -0.2969 -0.2745  0.2659
18920TIP3    H278176   6.235   6.162   5.056 -1.1726  0.2281 -2.0207
18921TIP3   OH278177   6.053   0.486  15.760 -0.0688  0.6594  0.4582
18921TIP3    H178178   5.998   0.564  15.751  0.3213  1.0490  1.4603
18921TIP3    H278179   6.142   0.520  15.763  0.1429  0.1219  0.2357
18922TIP3   OH278180   1.655   5.844   1.364 -0.6540 -0.4629 -0.7903
18922TIP3    H178181   1.699   5.914   1.316  0.4358 -0.3888  0.2707
18922TIP3    H278182   1.620   5.888   1.442  0.7230 -1.2293  0.2771
18923TIP3   OH278183   0.342   4.804   0.676 -0.4683  0.1504 -0.1670
18923TIP3    H178184   0.342   4.889   0.720  1.0038 -0.2566  0.6274
18923TIP3    H278185   0.296   4.820   0.593 -0.8867  1.5356  0.3218
18924TIP3   OH278186   4.857   6.323  14.198  0.3792  0.0397  0.0972
18924TIP3    H178187   4.802   6.333  14.275  0.8160  0.9143  0.3052
18924TIP3    H278188   4.824   6.244  14.155 -0.4377  0.0429  0.7025
18925TIP3   OH278189   1.356   4.216   5.690  0.0941 -0.0996  0.2026
18925TIP3    H178190   1.372   4.189   5.780  0.3050 -0.4889  0.0506
18925TIP3    H278191   1.442   4.217   5.649  0.1455  1.2792  0.3298
18926TIP3   OH278192   6.683   0.457   6.507  0.5105  0.7052  0.2716
18926TIP3    H178193   6.706   0.542   6.469  2.3654  0.1921  0.1870
18926TIP3    H278194   6.738   0.395   6.460 -1.5229 -0.6710 -0.3242
18927TIP3   OH278195   4.576   6.621   0.805  0.1107 -0.0797 -0.4625
18927TIP3    H178196   4.671   6.629   0.795  0.2226 -0.3933  0.2835
18927TIP3    H278197   4.540   6.689   0.749  0.8430  1.5752  1.0107
18928TIP3   OH278198   2.950   6.779   1.028 -0.0148  0.6697  0.2446
18928TIP3    H178199   2.922   6.712   0.966 -0.7151  1.7546 -0.6424
18928TIP3    H278200   2.925   6.745   1.114 -0.7839 -0.0017 -0.2357
18929TIP3   OH278201   4.256   4.385  17.075  0.1132 -0.4442 -0.3845
18929TIP3    H178202   4.251   4.377  16.979 -1.0638  2.6127 -0.6402
18929TIP3    H278203   4.167   4.367  17.105 -0.1532  1.2398 -0.1253
18930TIP3   OH278204   4.650   3.167  13.581 -0.2681  0.3246  0.0293
18930TIP3    H178205   4.569   3.152  13.629 -1.0713  0.3600 -1.2682
18930TIP3    H278206   4.638   3.121  13.498  0.3924  1.6165 -0.8186
18931TIP3   OH278207   1.725   3.868   6.660  0.0809  0.2102 -0.0353
18931TIP3    H178208   1.680   3.828   6.586 -1.3469 -0.2218  1.0289
18931TIP3    H278209   1.677   3.836   6.737  0.8624  1.4779  1.0081
18932TIP3   OH278210   2.900   5.688  12.530  0.5126  0.0765  0.1075
18932TIP3    H178211   2.848   5.697  12.610  1.6382  1.2497  0.7246
18932TIP3    H278212   2.839   5.707  12.459  0.5723  3.7135  0.9237
18933TIP3   OH278213   5.157   4.380  13.213 -0.2744 -0.8441 -0.1197
18933TIP3    H178214   5.164   4.384  13.308 -0.6764  1.8218 -0.1598
18933TIP3    H278215   5.069   4.413  13.194  0.5228  0.5734 -1.4953
18934TIP3   OH278216   4.850   4.303  15.763 -0.2374  0.9362 -0.3870
18934TIP3    H178217   4.816   4.310  15.852 -0.2428  2.7350 -0.5235
18934TIP3    H278218   4.819   4.218  15.732  0.2678  0.0276  1.5340
18935TIP3   OH278219   0.960   6.025   3.177  0.1460 -0.0249  0.2967
18935TIP3    H178220   0.923   6.079   3.248 -0.4607 -2.6451  2.0498
18935TIP3    H278221   0.897   5.953   3.167  0.7306 -0.2124 -2.2802
18936TIP3   OH278222   1.573   3.589  16.334 -0.6626 -0.4146 -0.6631
18936TIP3    H178223   1.513   3.531  16.287 -1.7105  3.1420 -3.9182
18936TIP3    H278224   1.656   3.581  16.286 -0.4603 -0.1119 -0.3685
18937TIP3   OH278225   1.148   2.262  13.338  0.0472 -0.1935  0.6777
18937TIP3    H178226   1.209   2.197  13.371  1.9382  1.5135  0.6664
18937TIP3    H278227   1.137   2.324  13.410 -0.4462  0.3518  0.1413
18938TIP3   OH278228   5.473   1.145   2.350  0.4383  0.4967 -0.1494
18938TIP3    H178229   5.565   1.136   2.326  0.2329 -1.1754 -0.4037
18938TIP3    H278230   5.425   1.121   2.271 -0.2109 -0.4048  0.4969
18939TIP3   OH278231   1.772   2.499   1.678  0.4588  0.3279  0.2566
18939TIP3    H178232   1.762   2.566   1.611  0.7409  0.2817  0.1696
18939TIP3    H278233   1.766   2.416   1.631  1.7176  0.3028  0.1411
18940TIP3   OH278234   1.476   6.586   1.443 -0.2741 -0.1526 -0.4453
18940TIP3    H178235   1.423   6.561   1.519 -0.6127 -1.1686 -1.0043
18940TIP3    H278236   1.559   6.540   1.455 -0.6343 -1.0085 -1.1035
18941TIP3   OH278237   3.795   2.546   2.499 -0.2368 -0.1554  0.0450
18941TIP3    H178238   3.840   2.497   2.430 -1.4337 -0.5951 -0.4343
18941TIP3    H278239   3.715   2.577   2.457  0.3140  1.8888  0.4539
18942TIP3   OH278240   0.985   3.755  11.688 -0.0732  0.1511  0.2207
18942TIP3    H178241   0.938   3.838  11.682  0.3043  0.2206 -2.5144
18942TIP3    H278242   1.076   3.778  11.673  0.1897 -0.5871  0.7030
18943TIP3   OH278243   0.545   3.343   5.210  0.2248  0.6786 -0.8871
18943TIP3    H178244   0.604   3.390   5.152  0.0585  1.3857 -0.4938
18943TIP3    H278245   0.548   3.393   5.292 -0.6816  0.5495 -0.7731
18944TIP3   OH278246   5.890   2.362   1.562 -0.0800 -0.2329 -0.1822
18944TIP3    H178247   5.861   2.289   1.507 -0.9999 -0.6453  0.8395
18944TIP3    H278248   5.980   2.377   1.536  0.5757 -2.6387  0.5499
18945TIP3   OH278249   0.130   4.985   4.294 -0.5690  0.3679  0.4376
18945TIP3    H178250   0.148   5.075   4.268 -2.8330  0.4795 -0.8386
18945TIP3    H278251   0.067   4.992   4.366 -2.6101 -0.2202 -1.2496
18946TIP3   OH278252   1.732   5.165  11.383 -0.8019  0.1565  0.4739
18946TIP3    H178253   1.784   5.235  11.344  0.2578 -1.7543 -1.6078
18946TIP3    H278254   1.642   5.198  11.380 -0.5448  0.7265 -2.1210
18947TIP3   OH278255   4.273   4.876   1.760 -0.2565  0.4563 -0.4373
18947TIP3    H178256   4.247   4.793   1.722 -0.2399  1.0520 -1.7586
18947TIP3    H278257   4.206   4.938   1.731 -0.7677  0.7505  1.2632
18948TIP3   OH278258   5.550   1.066  11.298 -0.4030  0.0581  0.3777
18948TIP3    H178259   5.580   1.033  11.213  0.0552  1.1836  0.0893
18948TIP3    H278260   5.482   1.130  11.275 -0.1755  0.4715  0.8534
18949TIP3   OH278261   1.166   5.190  11.916  0.0149  0.1758 -0.1677
18949TIP3    H178262   1.194   5.170  11.827  0.8857  1.2618 -0.1411
18949TIP3    H278263   1.245   5.180  11.969  0.2979  2.8530 -0.0321
18950TIP3   OH278264   5.855   2.139   1.421  0.1292  0.5639 -0.2756
18950TIP3    H178265   5.925   2.076   1.440  0.1734  0.7361  0.1357
18950TIP3    H278266   5.775   2.095   1.451  0.2152  0.8899  0.4465
18951TIP3   OH278267   5.126   3.568  15.166  0.2547  0.4109 -0.5245
18951TIP3    H178268   5.180   3.624  15.110  1.2435  0.7857  0.7747
18951TIP3    H278269   5.153   3.479  15.143 -0.8810  0.4710 -2.1521
18952TIP3   OH278270   4.430   0.726   6.171  0.1166 -0.3520 -0.3718
18952TIP3    H178271   4.372   0.780   6.224  0.3485 -0.4760  0.0111
18952TIP3    H278272   4.379   0.648   6.151 -0.1262 -0.1082 -0.7010
18953TIP3   OH278273   0.703   0.966  11.589  0.2194 -0.2956  0.8439
18953TIP3    H178274   0.732   1.026  11.658  1.1758  0.5644 -0.2941
18953TIP3    H278275   0.650   1.021  11.530 -0.2298 -0.9302  0.6452
18954TIP3   OH278276   0.104   4.454  16.274  0.3503  0.3605 -0.1514
18954TIP3    H178277   0.158   4.378  16.254 -1.5956 -0.7140 -1.5399
18954TIP3    H278278   0.084   4.445  16.368 -0.2370 -1.0855 -0.4083
18955TIP3   OH278279   1.541   6.104  12.119 -0.2140  1.1307 -0.5314
18955TIP3    H178280   1.537   6.172  12.187 -0.6786  0.2563  0.3186
18955TIP3    H278281   1.450   6.080  12.103  0.0674 -1.5229  1.4492
18956TIP3   OH278282   3.353   0.511   5.386 -0.3883 -0.9175  0.0053
18956TIP3    H178283   3.433   0.564   5.380 -1.3323  0.7503  1.7616
18956TIP3    H278284   3.383   0.426   5.419  0.5349  0.0045  1.5741
18957TIP3   OH278285   3.404   0.787   3.368 -0.1191 -0.0416 -0.4702
18957TIP3    H178286   3.392   0.881   3.380  1.1396 -0.2376  3.2804
18957TIP3    H278287   3.364   0.748   3.446  0.7082 -2.4983 -1.2128
18958TIP3   OH278288   3.563   6.103   2.706  0.0488  0.0021 -0.1510
18958TIP3    H178289   3.641   6.156   2.688  0.6633 -0.7327  0.2974
18958TIP3    H278290   3.577   6.069   2.794 -0.8673  0.0004 -0.0031
18959TIP3   OH278291   3.541   3.507  11.237 -0.1724 -0.1744  0.3641
18959TIP3    H178292   3.573   3.591  11.204 -2.6068  0.5867 -0.1099
18959TIP3    H278293   3.524   3.456  11.158 -0.6840 -0.3649  0.6017
18960TIP3   OH278294   0.683   2.455   2.963 -0.1141 -0.2167 -0.3156
18960TIP3    H178295   0.662   2.533   2.911  0.0299 -0.4727 -0.7554
18960TIP3    H278296   0.767   2.425   2.928  1.6142  1.4474  2.1385
18961TIP3   OH278297   2.594   3.171   0.153  0.2017  0.3104  0.4085
18961TIP3    H178298   2.546   3.211   0.226 -0.2320 -0.3900  0.5096
18961TIP3    H278299   2.529   3.120   0.106  1.1187 -1.8434  1.4051
18962TIP3   OH278300   0.376   0.759  15.777  0.3656  0.2571  0.0503
18962TIP3    H178301   0.424   0.723  15.702  1.8499 -0.4656  1.3105
18962TIP3    H278302   0.412   0.712  15.852 -2.1633 -0.1022  1.0704
18963TIP3   OH278303   4.109   6.044   2.173 -0.2998 -0.2883 -0.1630
18963TIP3    H178304   4.054   6.106   2.125 -0.9081 -0.4791  0.2737
18963TIP3    H278305   4.110   5.965   2.119 -3.3328 -1.5263  1.4309
18964TIP3   OH278306   0.344   5.481   0.812 -0.3630  0.1802 -0.5823
18964TIP3    H178307   0.410   5.420   0.844 -0.0610  0.3759 -0.8344
18964TIP3    H278308   0.383   5.567   0.824 -1.2161  0.3972  0.7812
18965TIP3   OH278309   2.962   5.989  16.913 -0.5229  0.0197 -0.1330
18965TIP3    H178310   2.982   5.905  16.870  0.5102 -0.4599  1.2376
18965TIP3    H278311   2.900   5.966  16.983  1.7041 -0.0430  1.8884
18966TIP3   OH278312   6.462   5.004  14.921 -0.1665 -0.3806  1.0270
18966TIP3    H178313   6.427   4.966  15.001  0.6399  0.3187  1.7141
18966TIP3    H278314   6.400   5.073  14.898 -1.0571 -1.3705  0.3613
18967TIP3   OH278315   3.787   4.073   3.515  0.2029 -0.4039  0.8195
18967TIP3    H178316   3.811   3.994   3.564  0.3712 -0.7696  0.1508
18967TIP3    H278317   3.859   4.134   3.531  1.1362 -1.1654 -0.4319
18968TIP3   OH278318   3.191   4.668   5.758  0.0490 -0.3672 -0.0072
18968TIP3    H178319   3.266   4.695   5.704  1.6295 -2.6384  0.9645
18968TIP3    H278320   3.177   4.742   5.817  3.1309 -0.8336  1.4216
18969TIP3   OH278321   6.294   5.307   5.392 -0.0352  0.0627  0.7835
18969TIP3    H178322   6.266   5.254   5.467 -1.5363 -0.4071 -0.1034
18969TIP3    H278323   6.384   5.280   5.377  0.5042  0.6155  2.8208
18970TIP3   OH278324   4.014   3.955  12.557 -0.1590  0.2376  0.0129
18970TIP3    H178325   4.037   3.870  12.594  0.6250  0.7833  0.8112
18970TIP3    H278326   4.020   4.016  12.631  2.0033  1.4552 -1.0974
18971TIP3   OH278327   4.328   2.203   0.979  0.2146 -0.5030  0.0127
18971TIP3    H178328   4.418   2.192   0.951  0.1569  0.5345 -0.6046
18971TIP3    H278329   4.276   2.189   0.901 -0.0200  1.1135 -0.1378
18972TIP3   OH278330   5.800   2.513   2.240 -0.0067 -0.4176 -0.4387
18972TIP3    H178331   5.887   2.547   2.218  0.6867 -2.6840 -1.4151
18972TIP3    H278332   5.749   2.525   2.160 -0.0948 -0.6108 -0.4117
18973TIP3   OH278333   0.348   0.817   0.759  0.2974 -0.8941  0.5008
18973TIP3    H178334   0.299   0.745   0.796  1.2841 -1.8314  0.0071
18973TIP3    H278335   0.296   0.845   0.683 -0.6597 -0.3282  1.3574
18974TIP3   OH278336   0.075   5.717  16.509  0.2110 -0.3504  0.1162
18974TIP3    H178337   0.111   5.787  16.564 -1.2446  0.3262  0.2238
18974TIP3    H278338   0.152   5.669  16.478  1.2884  1.8085 -0.6353
18975TIP3   OH278339   1.042   4.711  13.904  0.6363 -0.4678  0.1975
18975TIP3    H178340   1.028   4.725  13.998  2.1417  1.0583  0.2108
18975TIP3    H278341   0.970   4.757  13.862 -0.2847 -1.5054  0.5886
18976TIP3   OH278342   0.815   5.112   3.744  0.1668 -0.5136 -0.5912
18976TIP3    H178343   0.830   5.048   3.814  0.6195 -1.2868 -1.3871
18976TIP3    H278344   0.902   5.149   3.726 -0.0197  0.0100 -0.4445
18977TIP3   OH278345   3.250   3.778   3.246  0.5014 -0.0947  0.0137
18977TIP3    H178346   3.329   3.823   3.214  0.1019  0.8970  0.4218
18977TIP3    H278347   3.233   3.818   3.331  0.0787 -0.9521  0.3326
18978TIP3   OH278348   4.483   1.770  17.020 -0.3958  0.6321  0.2855
18978TIP3    H178349   4.433   1.830  16.965  0.1996  0.6990 -0.1830
18978TIP3    H278350   4.471   1.804  17.109 -2.5012 -0.2774  0.3802
18979TIP3   OH278351   3.550   2.548  14.776 -0.7098 -0.1317 -0.1535
18979TIP3    H178352   3.624   2.489  14.762  0.1005  1.1583 -1.3968
18979TIP3    H278353   3.473   2.492  14.763  0.0451 -0.9245 -1.3167
18980TIP3   OH278354   1.532   3.576   3.237  0.2125  0.3304 -0.6656
18980TIP3    H178355   1.593   3.510   3.273  0.9656  1.2637 -0.2136
18980TIP3    H278356   1.588   3.632   3.183  0.2859  2.9132  2.0188
18981TIP3   OH278357   1.132   4.287   2.260  0.8483  0.0487 -0.8750
18981TIP3    H178358   1.224   4.262   2.264  0.4660 -1.2417  0.6018
18981TIP3    H278359   1.108   4.278   2.167  1.7312 -1.4725 -0.9724
18982TIP3   OH278360   5.943   5.794   2.604 -0.2255 -0.1971  0.5766
18982TIP3    H178361   6.008   5.733   2.640  0.3833  0.3093  0.3454
18982TIP3    H278362   5.977   5.881   2.627 -0.9066  0.0633  0.5928
18983TIP3   OH278363   3.885   3.964   0.136  0.5162 -0.2292 -0.7090
18983TIP3    H178364   3.900   4.052   0.100  1.1671 -0.1767 -0.3285
18983TIP3    H278365   3.881   3.977   0.231  1.1419 -0.6778 -0.6162
18984TIP3   OH278366   5.261   5.357  11.050  0.0044  0.3731 -0.3443
18984TIP3    H178367   5.238   5.421  10.983 -0.4002  2.8807  2.0603
18984TIP3    H278368   5.178   5.339  11.094  0.2767 -1.1608 -0.4535
18985TIP3   OH278369   3.464   0.816  14.255  0.1893  0.5873 -0.0796
18985TIP3    H178370   3.470   0.907  14.227  0.9728  0.5025 -0.1772
18985TIP3    H278371   3.417   0.772  14.183  0.2880  0.8025 -0.2742
18986TIP3   OH278372   6.341   4.947   4.770  0.2578 -0.0620  0.7218
18986TIP3    H178373   6.318   4.907   4.854 -0.1347  0.9208  1.0845
18986TIP3    H278374   6.259   4.946   4.720  0.1112  0.8307  0.9493
18987TIP3   OH278375   6.308   6.541   5.855 -0.0171  0.5001  0.5538
18987TIP3    H178376   6.386   6.538   5.799 -0.2253  1.7124  0.1754
18987TIP3    H278377   6.330   6.605   5.923 -0.2781  0.0396  1.0768
18988TIP3   OH278378   1.266   2.551  12.419  0.0450 -0.1876  0.2023
18988TIP3    H178379   1.361   2.557  12.409  0.2047 -0.2079  1.6321
18988TIP3    H278380   1.234   2.525  12.332  1.3273 -0.0584 -0.3135
18989TIP3   OH278381   6.690   6.596   0.094  0.3490  0.0112  0.5123
18989TIP3    H178382   6.703   6.587   0.189 -0.5214  1.6311  0.8077
18989TIP3    H278383   6.666   6.508   0.065 -0.6329 -0.2489  2.0131
18990TIP3   OH278384   6.153   1.139   1.047 -0.2620  0.2495  0.2141
18990TIP3    H178385   6.125   1.202   1.114  0.9721  2.4222 -1.2572
18990TIP3    H278386   6.232   1.099   1.083 -0.4331  0.3272  0.6866
18991TIP3   OH278387   0.690   2.128   5.542 -0.0989  0.2990 -0.0955
18991TIP3    H178388   0.690   2.196   5.475 -1.8426 -0.4133 -0.8359
18991TIP3    H278389   0.762   2.153   5.601  0.3672  1.8421 -1.2821
18992TIP3   OH278390   3.090   2.360  13.312  0.2225 -0.3219  0.2787
18992TIP3    H178391   3.177   2.351  13.350 -0.7144  1.0106  2.8082
18992TIP3    H278392   3.098   2.432  13.250  0.1977  1.8838  2.7829
18993TIP3   OH278393   5.092   2.422  12.789 -0.3893 -0.0263  0.2657
18993TIP3    H178394   5.004   2.432  12.754 -0.4048 -1.1307  0.0011
18993TIP3    H278395   5.150   2.447  12.716 -0.4763  1.0200  0.5425
18994TIP3   OH278396   4.901   4.833  15.269 -0.0575  0.1398  0.4624
18994TIP3    H178397   4.917   4.926  15.289  3.4597 -0.8290  2.5545
18994TIP3    H278398   4.943   4.786  15.340 -2.0154 -3.0924 -0.4589
18995TIP3   OH278399   0.360   1.930  16.838  0.3767  0.2721  0.8586
18995TIP3    H178400   0.440   1.887  16.807 -0.7022 -2.9851  2.4078
18995TIP3    H278401   0.379   1.952  16.929 -0.3457 -0.0721  1.0920
18996TIP3   OH278402   6.190   6.641  14.257  0.1622  0.0630  0.0749
18996TIP3    H178403   6.190   6.546  14.270  0.6912 -0.0212 -0.5203
18996TIP3    H278404   6.274   6.669  14.292  0.4415  0.1812 -0.6884
18997TIP3   OH278405   3.839   2.104   5.225  0.3650 -0.6668  0.0430
18997TIP3    H178406   3.896   2.032   5.199 -0.5254 -0.7785 -1.7250
18997TIP3    H278407   3.886   2.183   5.199  0.8299 -0.6666  0.9039
18998TIP3   OH278408   4.192   1.330   4.083  0.4821  0.2862 -0.1767
18998TIP3    H178409   4.192   1.375   4.168  1.7698  0.5065 -0.2951
18998TIP3    H278410   4.254   1.258   4.094  1.8008  1.2286 -1.4233
18999TIP3   OH278411   3.130   5.228  11.361  0.4677 -0.2764 -0.1382
18999TIP3    H178412   3.164   5.190  11.280  1.9290  0.7582 -0.0347
18999TIP3    H278413   3.159   5.319  11.358  0.7797 -0.3110  1.6841
19000TIP3   OH278414   6.762   0.600  16.579  0.0812  0.1645  0.0779
19000TIP3    H178415   6.729   0.682  16.542 -0.0711 -0.4527 -1.1702
19000TIP3    H278416   6.719   0.593  16.664 -0.7970  0.8036 -0.3101
19001TIP3   OH278417   3.064   2.650  17.226 -0.0770 -0.2573 -0.9287
19001TIP3    H178418   3.159   2.655  17.214 -0.3065 -0.5117 -2.9669
19001TIP3    H278419   3.047   2.705  17.303  1.8902 -1.5024  0.4429
19002TIP3   OH278420   2.290   2.686   0.725  0.0114 -0.1582  0.2246
19002TIP3    H178421   2.346   2.618   0.688 -1.6117 -0.4547 -1.7649
19002TIP3    H278422   2.337   2.716   0.803  2.4647 -1.0409 -0.8688
19003TIP3   OH278423   6.326   3.200  13.690  0.1462 -0.4180  0.6357
19003TIP3    H178424   6.307   3.116  13.732 -1.8083  0.0312  0.6697
19003TIP3    H278425   6.413   3.224  13.723  0.6758 -2.3754  0.6800
19004TIP3   OH278426   0.585   1.759   3.981  0.2576  0.0004 -0.0699
19004TIP3    H178427   0.605   1.685   4.038 -1.0339 -0.6390 -0.4239
19004TIP3    H278428   0.581   1.835   4.040 -0.1691 -0.5064  0.5626
19005TIP3   OH278429   1.489   2.886   2.461  0.0668  0.1358  0.2151
19005TIP3    H178430   1.474   2.891   2.366  0.2388  2.3023  0.2867
19005TIP3    H278431   1.548   2.959   2.480 -1.0220  0.5108  2.2102
19006TIP3   OH278432   5.722   6.119  14.489  0.3637 -0.2701  0.0372
19006TIP3    H178433   5.694   6.032  14.463  2.2441 -1.2875  1.3012
19006TIP3    H278434   5.709   6.173  14.411 -0.9380 -1.6316 -0.7173
19007TIP3   OH278435   2.539   2.429   1.300  0.8875  0.1756 -0.1912
19007TIP3    H178436   2.612   2.367   1.295  0.8577  0.2244 -1.4787
19007TIP3    H278437   2.581   2.515   1.304  0.9106  0.2294 -1.3704
19008TIP3   OH278438   6.406   2.602  13.942  0.5969  0.6713  0.3483
19008TIP3    H178439   6.344   2.669  13.974  0.1733 -0.3174  1.6227
19008TIP3    H278440   6.480   2.653  13.909  0.3982  1.7757  1.5528
19009TIP3   OH278441   6.093   4.863  11.530  0.2479 -0.9379  0.5964
19009TIP3    H178442   6.066   4.848  11.439  0.6933  0.7851  0.1514
19009TIP3    H278443   6.173   4.812  11.540  0.4477 -0.7714 -0.1185
19010TIP3   OH278444   3.159   6.170  16.979 -0.2318  0.4193 -0.2735
19010TIP3    H178445   3.104   6.244  17.004  0.1427  0.1971  1.2626
19010TIP3    H278446   3.098   6.106  16.943 -0.8325  0.6141  0.3917
19011TIP3   OH278447   6.610   0.454   1.292  0.1798  0.3496 -0.0865
19011TIP3    H178448   6.679   0.389   1.283 -2.4509 -2.9366  2.0314
19011TIP3    H278449   6.588   0.478   1.202  3.3349  0.7532 -0.8117
19012TIP3   OH278450   2.897   4.608   4.304  0.0083  0.1969 -0.1722
19012TIP3    H178451   2.908   4.689   4.353  2.6111  0.0725 -0.4971
19012TIP3    H278452   2.938   4.541   4.359 -0.4044 -0.5746 -0.7991
19013TIP3   OH278453   2.229   3.284   3.553 -0.5378 -0.1208  0.1289
19013TIP3    H178454   2.180   3.344   3.497 -0.2552  0.2944  0.3206
19013TIP3    H278455   2.295   3.340   3.596  0.2087 -0.7057 -0.2510
19014TIP3   OH278456   4.175   5.770  13.110  0.0193  0.0343  0.6161
19014TIP3    H178457   4.248   5.717  13.141  0.3583 -0.3346 -0.7579
19014TIP3    H278458   4.166   5.839  13.175  1.7960  0.2630  0.6486
19015TIP3   OH278459   6.030   0.668   2.124  0.6045 -0.0057 -0.5763
19015TIP3    H178460   5.993   0.750   2.093  1.4237  0.4453 -0.3864
19015TIP3    H278461   6.092   0.694   2.193  2.2528 -0.6141 -1.7954
19016TIP3   OH278462   6.750   3.649   2.357  0.4511 -0.0129  0.2366
19016TIP3    H178463   6.844   3.632   2.351  0.8907  2.6536 -1.3583
19016TIP3    H278464   6.709   3.568   2.327  2.2470 -0.7818 -0.2291
19017TIP3   OH278465   5.869   3.440   5.547  0.2972  0.2486 -0.4155
19017TIP3    H178466   5.877   3.449   5.642 -0.7729  1.6782 -0.4467
19017TIP3    H278467   5.922   3.363   5.526  1.3579  0.5084  1.2127
19018TIP3   OH278468   4.119   0.390  11.650  0.1573  0.6701 -0.7312
19018TIP3    H178469   4.151   0.413  11.737  0.5952  1.0539 -0.9946
19018TIP3    H278470   4.024   0.391  11.658  0.1942  1.1545 -0.3771
19019TIP3   OH278471   2.247   5.445  12.188 -0.1341 -0.5995  0.3796
19019TIP3    H178472   2.272   5.353  12.175 -0.1223 -0.3926 -1.1917
19019TIP3    H278473   2.295   5.473  12.266  2.0217 -1.1245 -0.7267
19020TIP3   OH278474   0.225   4.529   0.443  0.1488  0.9158 -0.1033
19020TIP3    H178475   0.284   4.521   0.519 -2.1878 -0.2056  1.6442
19020TIP3    H278476   0.212   4.439   0.413 -0.7589  1.1553 -0.4281
19021TIP3   OH278477   6.580   3.188   3.763 -0.7043 -0.0179  0.3073
19021TIP3    H178478   6.580   3.226   3.675 -0.2021  0.5755  0.5597
19021TIP3    H278479   6.669   3.158   3.776 -0.3593  1.3696  1.2374
19022TIP3   OH278480   4.556   3.024   1.751 -0.1350 -0.6342 -0.5512
19022TIP3    H178481   4.615   3.013   1.826  1.3021 -0.9723 -1.7200
19022TIP3    H278482   4.468   3.009   1.787  0.3665  0.9708  1.4591
19023TIP3   OH278483   3.612   2.538   3.263 -0.3134 -0.4989 -0.0467
19023TIP3    H178484   3.644   2.593   3.192 -1.2757 -0.0592 -0.1335
19023TIP3    H278485   3.581   2.458   3.220 -0.5443 -0.3888 -0.0834
19024TIP3   OH278486   5.464   2.627  15.692  0.5351 -0.3249  0.1373
19024TIP3    H178487   5.550   2.669  15.694  0.2908  0.1587  0.5657
19024TIP3    H278488   5.463   2.578  15.609  1.3134 -0.5346  0.2513
19025TIP3   OH278489   1.697   1.390  11.073  0.3590 -0.1641  0.2055
19025TIP3    H178490   1.789   1.403  11.093  0.9694 -1.7278 -1.3943
19025TIP3    H278491   1.671   1.316  11.128 -0.0205  0.4705  0.8782
19026TIP3   OH278492   1.537   2.943   6.454 -0.0618 -0.2115 -0.3046
19026TIP3    H178493   1.590   2.904   6.384  0.7977  0.8694 -0.2660
19026TIP3    H278494   1.598   2.998   6.503 -0.7072 -0.7667  1.1623
19027TIP3   OH278495   1.081   1.085   3.764 -0.6829  0.1625  0.0616
19027TIP3    H178496   1.136   1.049   3.695 -1.0953 -2.2631  0.9598
19027TIP3    H278497   1.065   1.012   3.823 -2.8981  1.4091  1.0817
19028TIP3   OH278498   2.863   2.513  15.334  0.4043  0.6372 -0.3524
19028TIP3    H178499   2.769   2.531  15.337  0.5361  1.1618  0.7849
19028TIP3    H278500   2.899   2.585  15.282  0.0792 -0.0226 -1.5112
19029TIP3   OH278501   0.742   3.967   2.586 -0.5274 -0.5877 -0.4708
19029TIP3    H178502   0.691   4.047   2.584  1.1706  0.5095 -0.8482
19029TIP3    H278503   0.813   3.982   2.524  1.0455 -1.5144  1.0347
19030TIP3   OH278504   5.565   0.370   2.488 -0.1774  0.3042 -0.1205
19030TIP3    H178505   5.631   0.301   2.486 -1.9330 -1.3996 -2.2732
19030TIP3    H278506   5.591   0.431   2.420 -0.2069  0.2294 -0.1987
19031TIP3   OH278507   0.656   4.752   5.660 -0.0475 -0.3438  0.1781
19031TIP3    H178508   0.655   4.723   5.752  0.1079 -0.3689  0.1709
19031TIP3    H278509   0.606   4.834   5.660 -0.7031 -0.7451  0.1539
19032TIP3   OH278510   0.339   6.171   0.824  0.4031 -0.1623  0.3667
19032TIP3    H178511   0.353   6.128   0.740  1.3554 -1.5184  1.1789
19032TIP3    H278512   0.345   6.099   0.888 -1.8266  0.5795  1.4729
19033TIP3   OH278513   4.996   0.124  14.578  0.1228  0.8809  1.0449
19033TIP3    H178514   5.005   0.088  14.490  0.5241 -0.1591  1.5088
19033TIP3    H278515   4.929   0.192  14.569  0.2578  0.8735 -0.0878
19034TIP3   OH278516   4.814   2.284   0.181 -0.1811  0.2891  0.6765
19034TIP3    H178517   4.890   2.335   0.153  0.5650 -0.9718  0.3862
19034TIP3    H278518   4.833   2.260   0.271  0.8883 -2.0734 -0.1522
19035TIP3   OH278519   3.978   0.673   1.706 -0.7440  0.2620  0.1570
19035TIP3    H178520   4.006   0.663   1.797 -1.8928  0.4126  0.5413
19035TIP3    H278521   4.057   0.660   1.655  0.1649  1.3777  1.2424
19036TIP3   OH278522   5.313   1.731  13.549 -0.1505 -0.1567 -0.1316
19036TIP3    H178523   5.299   1.724  13.454 -0.6074  0.0390 -0.0794
19036TIP3    H278524   5.240   1.682  13.587 -0.0951 -0.0399  0.1220
19037TIP3   OH278525   4.011   5.659   2.685  0.0596 -0.1704  0.0517
19037TIP3    H178526   4.065   5.620   2.616  0.2757  2.0629 -1.1025
19037TIP3    H278527   3.922   5.628   2.666 -0.2810  2.2949 -2.7236
19038TIP3   OH278528   5.752   4.983  14.782  0.1225 -0.6005  0.0784
19038TIP3    H178529   5.755   4.957  14.690 -1.7560  3.1487 -1.1424
19038TIP3    H278530   5.816   5.054  14.789 -1.9670  1.2989  0.8361
19039TIP3   OH278531   3.984   4.713  10.647  0.7983  0.2213 -0.6966
19039TIP3    H178532   4.002   4.766  10.569  0.2176  0.4034 -0.7090
19039TIP3    H278533   3.956   4.777  10.713  1.0523  0.0405 -0.4123
19040TIP3   OH278534   2.222   5.808  12.668 -0.1625  0.2011 -0.0170
19040TIP3    H178535   2.187   5.744  12.731  1.7962  0.0427  0.9824
19040TIP3    H278536   2.155   5.876  12.663 -1.2293 -0.7642  0.7308
19041TIP3   OH278537   6.739   4.896  17.044  0.1723 -0.0577  0.3535
19041TIP3    H178538   6.702   4.811  17.066 -2.9855  0.7250 -1.7709
19041TIP3    H278539   6.779   4.884  16.958 -1.2156  0.8351 -0.4379
19042TIP3   OH278540   1.328   2.242   5.258 -0.3594  0.3575  0.0549
19042TIP3    H178541   1.386   2.175   5.222  0.8356  1.7040 -0.5813
19042TIP3    H278542   1.241   2.202   5.256  0.4379 -1.4394  0.4013
19043TIP3   OH278543   0.095   3.527  10.844 -0.3985  0.1276  0.0096
19043TIP3    H178544   0.117   3.590  10.913 -0.8540 -0.0677  0.3356
19043TIP3    H278545   0.179   3.507  10.803 -0.1063  0.1635  0.5765
19044TIP3   OH278546   6.464   5.505   4.586  0.2015  0.0089  0.5649
19044TIP3    H178547   6.420   5.566   4.646 -0.4257 -0.5387  0.6622
19044TIP3    H278548   6.432   5.419   4.612 -0.9533 -0.1496 -1.3009
19045TIP3   OH278549   3.636   2.905  12.064  0.0258 -0.0558 -0.7598
19045TIP3    H178550   3.559   2.925  12.117  0.5515 -0.5880  0.2263
19045TIP3    H278551   3.603   2.848  11.995 -0.3020 -1.1466  0.2677
19046TIP3   OH278552   5.303   5.466   5.642  0.0164 -0.0310  0.1963
19046TIP3    H178553   5.388   5.428   5.664  0.2619  0.7237  0.5565
19046TIP3    H278554   5.324   5.544   5.591 -0.5016 -0.6545 -0.9767
19047TIP3   OH278555   5.703   6.436   3.508 -1.1257 -0.5401  0.2936
19047TIP3    H178556   5.694   6.506   3.573 -0.3080 -0.2822  0.1345
19047TIP3    H278557   5.744   6.364   3.556  0.3384 -0.0193 -0.1628
19048TIP3   OH278558   2.253   2.976   5.582 -0.3682 -0.4333  0.3229
19048TIP3    H178559   2.214   3.051   5.626  1.7676  0.5936  0.5433
19048TIP3    H278560   2.239   2.903   5.643 -0.7451  0.1873  0.9844
19049TIP3   OH278561   0.515   3.824   0.849 -0.1838  0.0601  0.2282
19049TIP3    H178562   0.440   3.879   0.824 -0.0108  0.0115 -0.4119
19049TIP3    H278563   0.481   3.735   0.849 -0.3886  0.1371  0.9701
19050TIP3   OH278564   0.616   3.649  11.379 -0.0409 -0.2519 -0.0491
19050TIP3    H178565   0.639   3.626  11.469  1.1327  1.9817  0.2582
19050TIP3    H278566   0.700   3.665  11.336 -0.7224  2.6319 -0.4110
19051TIP3   OH278567   0.601   0.985  12.885  0.1772 -0.8978 -0.5425
19051TIP3    H178568   0.636   0.977  12.974  0.2222  1.2520 -0.3376
19051TIP3    H278569   0.507   1.001  12.897  0.5559  1.7016 -0.7613
19052TIP3   OH278570   3.501   0.399  14.947  0.5799  0.0847  0.4212
19052TIP3    H178571   3.578   0.360  14.990  0.9386  0.3921  0.0589
19052TIP3    H278572   3.519   0.391  14.854  0.1483  0.1249  0.3347
19053TIP3   OH278573   4.994   5.750  13.873 -0.4873  0.1756  0.3026
19053TIP3    H178574   5.040   5.741  13.789  1.7323  1.8630  1.2767
19053TIP3    H278575   4.931   5.820  13.859  1.5587  2.1518  0.6794
19054TIP3   OH278576   4.671   3.751   3.729 -0.7023 -0.2033 -0.5739
19054TIP3    H178577   4.637   3.699   3.802 -0.9992 -1.0267 -1.3011
19054TIP3    H278578   4.688   3.688   3.659 -0.2066  0.5536 -1.1484
19055TIP3   OH278579   0.136   1.450  14.650 -0.1447 -0.0567 -0.0703
19055TIP3    H178580   0.170   1.372  14.608 -1.4025  1.5602 -4.3155
19055TIP3    H278581   0.207   1.514  14.642 -0.8655  0.6477 -0.9721
19056TIP3   OH278582   4.566   4.792   3.779  0.4785  0.0793 -0.4633
19056TIP3    H178583   4.524   4.835   3.705 -0.2077 -0.3766 -0.3338
19056TIP3    H278584   4.654   4.771   3.747 -0.2726 -1.3565 -1.5990
19057TIP3   OH278585   2.873   0.104   0.738 -0.4632  0.4898 -0.4568
19057TIP3    H178586   2.851   0.187   0.696  2.9794  0.6256 -2.1590
19057TIP3    H278587   2.933   0.128   0.809 -0.1247 -0.4507 -0.4143
19058TIP3   OH278588   1.125   6.222  16.338  0.4275  0.7151 -0.3060
19058TIP3    H178589   1.147   6.277  16.414 -2.3850 -1.2063  1.9998
19058TIP3    H278590   1.068   6.278  16.285  1.4837  1.6812 -0.4470
19059TIP3   OH278591   1.697   1.988   5.373 -0.0098  0.3015 -0.5153
19059TIP3    H178592   1.781   2.030   5.389  0.7289 -1.0079 -0.9363
19059TIP3    H278593   1.697   1.910   5.429 -0.1789 -0.6777 -1.8462
19060TIP3   OH278594   6.260   3.581  15.334  0.4367  0.2113  0.5646
19060TIP3    H178595   6.352   3.580  15.309  0.1755  0.8364 -0.4662
19060TIP3    H278596   6.222   3.505  15.290  0.6205 -0.5492  1.6836
19061TIP3   OH278597   2.503   2.835   2.598 -0.0753 -0.0262 -0.0935
19061TIP3    H178598   2.417   2.870   2.577 -1.1495 -0.8356  2.8133
19061TIP3    H278599   2.492   2.740   2.595  0.4854 -0.1425  1.1349
19062TIP3   OH278600   4.986   6.101   1.889 -0.3190  0.3387 -1.0673
19062TIP3    H178601   5.010   6.021   1.844 -3.8956 -1.2307 -0.3367
19062TIP3    H278602   4.934   6.150   1.826 -0.3107  0.9107 -0.6410
19063TIP3   OH278603   2.483   4.272  15.706 -0.5033 -0.0020 -0.2743
19063TIP3    H178604   2.527   4.288  15.623  0.2992 -0.3148  0.0837
19063TIP3    H278605   2.532   4.199  15.746  0.3367  1.4037  1.3458
19064TIP3   OH278606   0.132   4.383   3.634 -0.4052  0.4066 -0.3172
19064TIP3    H178607   0.053   4.329   3.630 -0.4365  0.5273 -1.3291
19064TIP3    H278608   0.201   4.321   3.660 -0.6001  0.0544 -0.6279
19065TIP3   OH278609   3.368   2.697  14.477  0.4068  0.0495  0.0320
19065TIP3    H178610   3.373   2.758  14.404 -0.3890 -0.7746 -0.7199
19065TIP3    H278611   3.457   2.661  14.483  0.1570 -0.8673 -1.4009
19066TIP3   OH278612   4.870   4.075   3.004  0.4238 -0.4871  0.2215
19066TIP3    H178613   4.807   4.144   2.982  0.2327 -1.5704 -2.7742
19066TIP3    H278614   4.955   4.119   3.004  0.1232  0.1019  0.0844
19067TIP3   OH278615   5.613   4.700   6.210  0.2852 -0.3853 -0.1811
19067TIP3    H178616   5.640   4.659   6.128  0.9298 -0.5561  0.1079
19067TIP3    H278617   5.544   4.644   6.245  0.6500 -0.8150 -0.1536
19068TIP3   OH278618   1.522   0.767  10.327  0.4161  0.3521 -0.2882
19068TIP3    H178619   1.552   0.681  10.357  0.9869  0.9926  1.0138
19068TIP3    H278620   1.602   0.818  10.316  0.0256  0.9687 -0.2740
19069TIP3   OH278621   1.515   3.287   1.869  0.0950 -0.2535  0.8290
19069TIP3    H178622   1.538   3.341   1.793  0.2458  0.8095  1.6131
19069TIP3    H278623   1.455   3.221   1.834  0.3966  0.0345 -0.2696
19070TIP3   OH278624   0.130   1.992  12.250 -0.4300 -0.1946 -0.2030
19070TIP3    H178625   0.155   1.955  12.166  2.6853  0.1753  0.5149
19070TIP3    H278626   0.100   1.917  12.301 -0.2525 -0.7455 -0.9061
19071TIP3   OH278627   4.533   2.909  12.685 -0.1435  0.1774 -0.7533
19071TIP3    H178628   4.517   2.833  12.629 -0.7328 -1.1726  1.1850
19071TIP3    H278629   4.627   2.907  12.702 -0.1983 -0.2435 -0.5124
19072TIP3   OH278630   0.871   6.644  15.248  0.9285 -0.5026 -0.5841
19072TIP3    H178631   0.915   6.650  15.163  2.8809 -0.9084  0.3688
19072TIP3    H278632   0.835   6.731  15.263  3.0761  0.3828 -0.5160
19073TIP3   OH278633   0.478   1.065  11.422 -0.0095  0.4054 -0.4883
19073TIP3    H178634   0.468   1.146  11.472  0.6276 -1.6244  3.0790
19073TIP3    H278635   0.389   1.042  11.395 -0.4945  1.0000  0.5696
19074TIP3   OH278636   6.185   5.823  11.870  0.1226 -0.1318  0.8657
19074TIP3    H178637   6.239   5.760  11.821  0.1958  2.7293 -2.9806
19074TIP3    H278638   6.247   5.867  11.928  0.9359 -0.4524  0.2589
19075TIP3   OH278639   0.758   2.746  16.803  0.2841  0.3286  0.4445
19075TIP3    H178640   0.812   2.680  16.759  0.2981 -0.3297  1.4307
19075TIP3    H278641   0.733   2.807  16.733 -0.1905 -1.0271 -0.6029
19076TIP3   OH278642   0.635   5.432  15.994 -0.4222 -0.1753 -0.6321
19076TIP3    H178643   0.636   5.338  16.009  1.7550 -0.3862 -1.9627
19076TIP3    H278644   0.687   5.445  15.915  0.3594  2.2650  0.2271
19077TIP3   OH278645   1.593   2.794  11.691  0.0992 -0.2179 -0.0713
19077TIP3    H178646   1.665   2.816  11.751 -0.3539 -1.8405  1.1107
19077TIP3    H278647   1.516   2.833  11.731  0.4261  2.4193 -1.8791
19078TIP3   OH278648   2.765   0.376  13.115 -0.1476 -0.2074 -0.2661
19078TIP3    H178649   2.769   0.280  13.115  0.0047 -0.2187  1.1401
19078TIP3    H278650   2.716   0.397  13.195  1.3707  0.9307  0.3878
19079TIP3   OH278651   1.032   5.908   4.848 -0.1579  0.0707  0.0484
19079TIP3    H178652   1.025   5.826   4.799 -0.7561 -1.0750  1.9934
19079TIP3    H278653   0.976   5.969   4.800  2.7108  0.2915 -3.2063
19080TIP3   OH278654   2.569   5.462  16.420 -0.1336  0.3228  0.2293
19080TIP3    H178655   2.611   5.443  16.336  0.7086 -0.4174  0.8047
19080TIP3    H278656   2.531   5.378  16.448  1.0586  0.1366  1.3819
19081TIP3   OH278657   0.709   1.335  15.697 -0.1574 -0.7085  0.3904
19081TIP3    H178658   0.629   1.384  15.715 -1.3636 -2.2491 -0.6104
19081TIP3    H278659   0.689   1.245  15.724  0.8329 -1.3335 -0.8596
19082TIP3   OH278660   6.682   3.003  13.595  0.3188  0.1910  0.1673
19082TIP3    H178661   6.759   3.014  13.540 -0.2864  1.2740 -0.4680
19082TIP3    H278662   6.661   2.909  13.588  2.0275 -0.2738  0.9730
19083TIP3   OH278663   0.045   3.583  13.742 -1.0372 -0.4926 -0.0969
19083TIP3    H178664   0.068   3.607  13.831 -0.5549  0.0539 -0.3653
19083TIP3    H278665  -0.051   3.583  13.741 -1.0523  1.7848 -0.1760
19084TIP3   OH278666   6.208   0.357  13.222  0.1822 -0.0294 -1.0635
19084TIP3    H178667   6.145   0.315  13.163  1.8552 -3.2012 -0.7088
19084TIP3    H278668   6.284   0.375  13.167 -0.0764  1.4514 -0.9365
19085TIP3   OH278669   6.446   3.597   0.172  0.3156  0.2505 -0.1443
19085TIP3    H178670   6.421   3.605   0.080 -2.0635 -0.1902  0.4113
19085TIP3    H278671   6.411   3.512   0.199  0.3191  0.7063  1.3474
19086TIP3   OH278672   2.850   6.202  14.329 -0.4529 -0.1139 -0.5368
19086TIP3    H178673   2.809   6.137  14.386  1.4716  0.3501  1.4339
19086TIP3    H278674   2.878   6.272  14.388  1.5253  0.4219 -2.0372
19087TIP3   OH278675   3.987   4.715   1.662  0.3510  0.0826  0.0770
19087TIP3    H178676   3.943   4.672   1.589 -1.6057 -0.5987  1.6108
19087TIP3    H278677   4.033   4.789   1.622 -1.0059 -0.0371 -1.7646
19088TIP3   OH278678   1.965   4.931   2.722 -0.4718  0.0582 -0.2667
19088TIP3    H178679   1.897   4.976   2.672 -1.0894  2.0537  2.2883
19088TIP3    H278680   2.047   4.963   2.685 -0.8624 -1.5939 -2.6836
19089TIP3   OH278681   5.019   4.638   3.365 -0.0374 -0.0384 -0.1278
19089TIP3    H178682   4.969   4.682   3.296 -0.4735 -0.6470 -0.1958
19089TIP3    H278683   4.966   4.563   3.390 -0.9207  1.3460  2.3768
19090TIP3   OH278684   0.390   0.407  13.849  0.4214 -0.1808  0.0116
19090TIP3    H178685   0.298   0.427  13.867  0.1903  1.2734 -2.5160
19090TIP3    H278686   0.411   0.459  13.772  3.7977  0.5886  1.3595
19091TIP3   OH278687   2.571   4.495  14.793  0.7627 -0.4006  0.4381
19091TIP3    H178688   2.638   4.545  14.839 -1.2192  0.9086  2.0166
19091TIP3    H278689   2.521   4.561  14.744 -0.5932 -1.0617  0.8960
19092TIP3   OH278690   3.474   3.021  14.490 -0.7194  0.4587  0.4402
19092TIP3    H178691   3.479   2.977  14.405 -0.7613  1.9284 -0.3379
19092TIP3    H278692   3.469   2.949  14.553  1.0486 -0.6935 -0.6653
19093TIP3   OH278693   5.904   6.484  15.141  0.7631 -0.4585  0.5974
19093TIP3    H178694   5.863   6.467  15.227 -0.2077  1.7892  0.6080
19093TIP3    H278695   5.879   6.409  15.088 -0.4492 -0.8166  1.6456
19094TIP3   OH278696   5.680   0.110   2.716 -0.1738  0.0845 -0.1362
19094TIP3    H178697   5.755   0.090   2.660  0.3648  1.8145 -0.0677
19094TIP3    H278698   5.718   0.158   2.791 -1.3905  1.4880 -0.3879
19095TIP3   OH278699   2.545   1.611   6.460 -0.9612  0.2973  0.3855
19095TIP3    H178700   2.634   1.587   6.483 -0.6313  0.0023 -1.1637
19095TIP3    H278701   2.490   1.555   6.516 -0.1924 -0.2586  0.5928
19096TIP3   OH278702   2.278   3.766  16.355 -1.3167 -0.6038  0.4530
19096TIP3    H178703   2.297   3.784  16.263  0.0679  2.3729  1.2493
19096TIP3    H278704   2.183   3.764  16.361 -1.4939  2.8765 -0.4329
19097TIP3   OH278705   4.305   2.164   5.121 -0.0878 -0.4164  0.1145
19097TIP3    H178706   4.267   2.108   5.053 -1.7262  1.4573 -0.5482
19097TIP3    H278707   4.272   2.129   5.203 -0.3269 -1.0059 -0.2313
19098TIP3   OH278708   1.534   5.811   3.777  0.1395  0.2236  0.0499
19098TIP3    H178709   1.488   5.885   3.818  0.4528  1.0794 -1.1043
19098TIP3    H278710   1.464   5.751   3.751 -0.1255  0.1622  0.8736
19099TIP3   OH278711   3.518   5.776   4.766 -0.2598  0.1137  0.0464
19099TIP3    H178712   3.498   5.760   4.674 -1.4587 -0.5440  0.4078
19099TIP3    H278713   3.562   5.696   4.795 -1.6305 -0.4814  0.5302
19100TIP3   OH278714   6.049   3.731  15.151 -0.5120 -0.1731  0.1441
19100TIP3    H178715   5.975   3.676  15.177 -0.1675 -0.2209  1.0100
19100TIP3    H278716   6.011   3.818  15.138 -0.9451 -0.4698 -0.6310
19101TIP3   OH278717   3.827   2.462   0.278 -0.5029 -0.0878  0.2537
19101TIP3    H178718   3.870   2.509   0.349  0.1869  1.2533 -1.0448
19101TIP3    H278719   3.893   2.401   0.246 -0.9417 -0.9757  0.9969
19102TIP3   OH278720   1.273   0.550   2.757  0.4963 -0.2278 -0.3893
19102TIP3    H178721   1.321   0.500   2.691 -0.7187 -1.2571 -0.5147
19102TIP3    H278722   1.181   0.532   2.738  0.1525 -1.8207  2.5426
19103TIP3   OH278723   3.188   2.268  16.468 -0.1872  0.7949 -1.2271
19103TIP3    H178724   3.096   2.252  16.488  0.1005 -0.4661 -0.8521
19103TIP3    H278725   3.235   2.202  16.520  0.8404  0.5005 -2.5245
19104TIP3   OH278726   2.461   5.177   4.984 -0.0824 -0.0992 -0.0703
19104TIP3    H178727   2.481   5.245   5.048 -0.9259 -0.0878  0.1787
19104TIP3    H278728   2.428   5.104   5.036 -0.5475 -0.1747 -0.4748
19105TIP3   OH278729   1.012   0.053   2.984 -0.5202  0.0840  0.2076
19105TIP3    H178730   1.014  -0.033   3.026  1.1367 -0.4103 -0.8546
19105TIP3    H278731   1.025   0.115   3.056  1.2348 -0.7112  0.5957
19106TIP3   OH278732   1.580   3.295   5.644 -0.0657  0.4323 -0.2237
19106TIP3    H178733   1.542   3.280   5.730  0.3668  1.0809  0.0856
19106TIP3    H278734   1.635   3.373   5.655 -1.2814  1.4997 -1.4606
19107TIP3   OH278735   4.359   1.526   1.472 -0.0017 -0.3290  0.5613
19107TIP3    H178736   4.454   1.529   1.489  0.0485  0.1586  0.2314
19107TIP3    H278737   4.329   1.614   1.495 -0.6069 -0.8799  1.9350
19108TIP3   OH278738   1.303   3.106   1.994 -0.3513  0.8203 -0.7562
19108TIP3    H178739   1.208   3.108   2.003 -0.3271  1.1157 -0.5469
19108TIP3    H278740   1.328   3.198   1.980  0.1102  1.0615  1.4933
19109TIP3   OH278741   4.292   2.510  16.626 -0.3525  0.2432 -0.4817
19109TIP3    H178742   4.229   2.507  16.554  0.7296  0.6710 -1.4636
19109TIP3    H278743   4.262   2.582  16.682 -1.8228 -0.7933  0.1059
19110TIP3   OH278744   4.360   4.645  13.573  0.0092 -0.0130 -0.1000
19110TIP3    H178745   4.430   4.588  13.541 -0.4828  0.1394 -1.5045
19110TIP3    H278746   4.398   4.692  13.646  0.7428 -1.4109  0.4390
19111TIP3   OH278747   0.305   2.024  13.986  0.1609  0.0247  0.4031
19111TIP3    H178748   0.229   2.032  14.044  0.5852 -3.6670  1.5880
19111TIP3    H278749   0.378   2.003  14.045  1.5304  0.5995 -1.0301
19112TIP3   OH278750   6.329   0.653  14.589 -0.4989  0.0539  0.5413
19112TIP3    H178751   6.416   0.650  14.627 -0.4638  0.1154  0.4661
19112TIP3    H278752   6.344   0.663  14.495 -0.5692 -0.7918  0.4288
19113TIP3   OH278753   0.761   0.202   0.030  0.0137  0.2563 -0.3291
19113TIP3    H178754   0.780   0.166  -0.057  2.7035  0.7671  0.0056
19113TIP3    H278755   0.689   0.149   0.063  1.5577 -2.5342 -1.2898
19114TIP3   OH278756   3.626   5.900   5.811  0.6551  0.7766 -0.3201
19114TIP3    H178757   3.630   5.830   5.877 -0.1737  0.9547 -0.0669
19114TIP3    H278758   3.604   5.979   5.861 -0.5158  0.8157 -0.8568
19115TIP3   OH278759   4.679   5.060   1.342  0.6409 -0.2348  0.0569
19115TIP3    H178760   4.695   5.136   1.397 -0.3612 -0.3831  0.5609
19115TIP3    H278761   4.742   4.995   1.372  1.0512  0.1630  0.0698
19116TIP3   OH278762   5.211   3.802  12.459 -0.0613 -0.6698  0.8297
19116TIP3    H178763   5.206   3.749  12.539  1.3994 -1.1841  0.6083
19116TIP3    H278764   5.287   3.858  12.474  0.2144 -0.7707 -0.2024
19117TIP3   OH278765   5.965   6.185  17.216  0.0366  0.4523 -0.2751
19117TIP3    H178766   5.874   6.157  17.220  0.5411 -1.1756  0.3662
19117TIP3    H278767   5.973   6.230  17.132 -1.5339  1.3132  0.0206
19118TIP3   OH278768   3.951   4.571   0.569  0.0321  0.5139 -0.1125
19118TIP3    H178769   3.972   4.593   0.660  1.3572  1.6351 -0.6774
19118TIP3    H278770   3.869   4.617   0.551  1.6447  3.2461 -0.6047
19119TIP3   OH278771   3.792   4.551  13.471  0.1650 -0.0552 -0.5950
19119TIP3    H178772   3.741   4.540  13.552  1.8667 -2.8417  0.1877
19119TIP3    H278773   3.857   4.618  13.492 -1.4827  1.6317 -0.7611
19120TIP3   OH278774   1.600   2.559   4.199 -0.2279 -0.2031 -0.0843
19120TIP3    H178775   1.507   2.566   4.220 -0.5940  0.2409 -1.7300
19120TIP3    H278776   1.602   2.552   4.103  1.4119 -0.5268 -0.0378
19121TIP3   OH278777   0.952   0.869   4.248 -0.6963 -0.1081  0.2663
19121TIP3    H178778   1.016   0.800   4.265 -0.9425 -0.3717  0.1214
19121TIP3    H278779   0.869   0.823   4.236 -0.7843  0.1789 -0.2515
19122TIP3   OH278780   5.877   6.032   3.876 -0.5196 -0.0227 -0.2036
19122TIP3    H178781   5.966   6.005   3.851 -0.0629 -0.2312  1.6209
19122TIP3    H278782   5.822   5.959   3.849 -0.2817  0.5037 -2.2111
19123TIP3   OH278783   1.325   2.774  13.574 -0.0621 -0.2492 -0.2935
19123TIP3    H178784   1.247   2.806  13.620  1.9660  1.6169  1.9987
19123TIP3    H278785   1.348   2.845  13.514  1.5186  0.4810  1.1354
19124TIP3   OH278786   1.087   5.740  15.620 -0.5755 -0.0478 -0.1930
19124TIP3    H178787   1.148   5.674  15.587 -0.1350  0.2754 -0.0287
19124TIP3    H278788   1.122   5.823  15.587 -0.6552  0.1850  0.3130
19125TIP3   OH278789   3.654   0.812   6.087 -0.3067 -0.6537 -0.6190
19125TIP3    H178790   3.624   0.756   6.158 -2.4549  3.2105  1.7194
19125TIP3    H278791   3.573   0.851   6.052  1.1771  2.4355 -0.8007
19126TIP3   OH278792   4.059   1.323  11.996 -0.5366  0.2655  0.2377
19126TIP3    H178793   4.053   1.419  12.002  1.3074  0.3762  0.7239
19126TIP3    H278794   4.021   1.292  12.078  0.9834  0.7168  1.1543
19127TIP3   OH278795   5.225   3.614  13.303  0.1757  0.8035  0.0201
19127TIP3    H178796   5.270   3.674  13.362  0.3456 -0.0260  0.7452
19127TIP3    H278797   5.246   3.527  13.337 -2.9160  0.4038  1.1059
19128TIP3   OH278798   1.294   3.958   5.295 -0.7260  0.5229 -0.0924
19128TIP3    H178799   1.332   3.894   5.233 -1.3385 -1.7439  1.8145
19128TIP3    H278800   1.205   3.972   5.263  0.3030  2.7340 -2.2058
19129TIP3   OH278801   0.246   3.073   0.421 -0.1164 -0.0954 -0.0539
19129TIP3    H178802   0.327   3.119   0.441 -1.0036  2.0955 -1.2985
19129TIP3    H278803   0.225   3.100   0.331 -0.2425 -3.6111 -1.1585
19130TIP3   OH278804   4.540   4.921   1.698 -0.2771  0.1601 -0.2776
19130TIP3    H178805   4.453   4.924   1.737 -1.0255  2.4519 -2.0198
19130TIP3    H278806   4.550   4.830   1.669 -1.0665 -0.7243  2.0694
19131TIP3   OH278807   4.515   3.451   4.905  0.5976  0.0544  0.6498
19131TIP3    H178808   4.527   3.424   4.996 -0.3906 -2.7549  0.0074
19131TIP3    H278809   4.421   3.446   4.891  0.7432  0.4709 -0.5334
19132TIP3   OH278810   3.973   0.178  15.211 -0.1624 -0.3286  0.1683
19132TIP3    H178811   4.026   0.101  15.192 -0.3887 -0.5565  0.4495
19132TIP3    H278812   3.888   0.159  15.171 -0.4474 -0.5473  0.8702
19133TIP3   OH278813   6.148   6.121   1.448 -0.1381  0.3341 -0.2415
19133TIP3    H178814   6.239   6.090   1.442 -1.2975 -3.0964 -1.4275
19133TIP3    H278815   6.145   6.196   1.389  1.4866 -0.6819 -1.6777
19134TIP3   OH278816   0.082   4.248   2.269  0.0996  0.2104 -0.7978
19134TIP3    H178817   0.175   4.266   2.257  0.0858  0.3206 -0.7416
19134TIP3    H278818   0.053   4.315   2.331 -0.0007  0.1287 -0.7571
19135TIP3   OH278819   0.740   2.092  14.213 -0.5801  0.5544 -0.0082
19135TIP3    H178820   0.803   2.165  14.211 -0.6873  0.6708  0.7461
19135TIP3    H278821   0.787   2.021  14.256 -0.2284 -0.0724 -1.3776
19136TIP3   OH278822   2.962   4.278  14.894 -0.6136  0.4005  0.4924
19136TIP3    H178823   2.946   4.184  14.884  2.0567 -0.0172 -0.1788
19136TIP3    H278824   2.969   4.291  14.988  0.1025 -0.2715  0.5363
19137TIP3   OH278825   3.473   3.046  12.255  0.2008 -0.5277  0.4784
19137TIP3    H178826   3.446   3.137  12.243  1.8780 -0.0587  0.0910
19137TIP3    H278827   3.492   3.039  12.348 -0.8400 -0.7478  0.6778
19138TIP3   OH278828   5.845   6.480  15.992 -0.8313  0.3781  0.0144
19138TIP3    H178829   5.906   6.546  15.959  0.4156 -1.0223 -0.5296
19138TIP3    H278830   5.765   6.529  16.013  0.6733  2.3484  1.3392
19139TIP3   OH278831   0.199   5.884  16.693 -0.1868  0.0623 -0.5772
19139TIP3    H178832   0.194   5.864  16.786 -1.1759 -1.7342 -0.9917
19139TIP3    H278833   0.292   5.892  16.675  0.1023 -1.4305  0.2045
19140TIP3   OH278834   0.786   0.305  13.210  0.0384 -0.4492 -0.3416
19140TIP3    H178835   0.783   0.367  13.137 -0.7498 -0.8280 -0.6325
19140TIP3    H278836   0.822   0.225  13.171  1.9671  0.0962  0.2417
19141TIP3   OH278837   3.866   2.584  14.044 -0.2378  0.1511 -0.1187
19141TIP3    H178838   3.938   2.558  13.986  1.6725  0.8861  1.8636
19141TIP3    H278839   3.787   2.571  13.991  1.3326 -0.7085 -2.3317
19142TIP3   OH278840   3.625   0.534  16.273 -0.6583  0.0071 -0.1576
19142TIP3    H178841   3.681   0.611  16.268  0.0194 -0.4524  0.2548
19142TIP3    H278842   3.625   0.510  16.366  0.0478 -1.1541 -0.4416
19143TIP3   OH278843   5.927   5.869  16.674  0.1257  0.3516  0.4529
19143TIP3    H178844   5.910   5.927  16.600  0.8004 -0.9961 -0.7802
19143TIP3    H278845   5.970   5.925  16.739  1.0468  1.1814 -0.8449
19144TIP3   OH278846   2.627   2.757   4.490 -0.3549  0.1447  0.0464
19144TIP3    H178847   2.609   2.824   4.557  0.0509  0.2656  0.0396
19144TIP3    H278848   2.541   2.729   4.459 -0.5139  1.3853 -0.6639
19145TIP3   OH278849   0.771   3.022   0.812 -0.0579 -0.5812  0.5244
19145TIP3    H178850   0.788   3.112   0.784 -0.0769  0.1632  2.8195
19145TIP3    H278851   0.679   3.007   0.792 -0.6444  0.7051  2.2429
19146TIP3   OH278852   2.601   5.545   3.303  0.2564 -0.1489 -0.9233
19146TIP3    H178853   2.619   5.580   3.216  1.1370  0.1039 -0.6523
19146TIP3    H278854   2.688   5.527   3.339 -0.0844  0.3378  0.1450
19147TIP3   OH278855   4.049   3.598   2.310  0.0037 -0.2373  0.5762
19147TIP3    H178856   4.123   3.659   2.319 -1.3838  1.3574  1.3922
19147TIP3    H278857   4.020   3.583   2.400 -1.6040  0.3330  0.1654
19148TIP3   OH278858   4.209   0.247  12.605  0.3435 -0.2581  0.1813
19148TIP3    H178859   4.193   0.331  12.564  1.0519  0.9662  2.3153
19148TIP3    H278860   4.260   0.197  12.541  3.2036  2.3320  0.3710
19149TIP3   OH278861   4.515   0.507  15.022  0.3720 -0.2611  0.0620
19149TIP3    H178862   4.453   0.569  14.985  2.0468  1.0906 -0.5535
19149TIP3    H278863   4.512   0.523  15.116 -0.2156 -0.2014  0.0319
19150TIP3   OH278864   2.281   4.665  13.622 -0.1866 -0.0414  0.4277
19150TIP3    H178865   2.218   4.598  13.596 -0.1319 -0.4107  1.2225
19150TIP3    H278866   2.354   4.615  13.660  0.4334  0.3968 -0.1680
19151TIP3   OH278867   2.928   1.009  12.969  0.0263 -0.1796 -0.0862
19151TIP3    H178868   2.850   1.011  13.026  1.0812 -2.5225  1.5134
19151TIP3    H278869   2.909   0.941  12.905  1.8685 -2.7964  2.0501
19152TIP3   OH278870   5.609   2.717  12.552  0.8511 -0.1831 -0.4089
19152TIP3    H178871   5.683   2.756  12.506  0.8504  0.2004 -0.0795
19152TIP3    H278872   5.640   2.703  12.641 -0.0726  1.6793  0.2202
19153TIP3   OH278873   2.104   6.668  14.285  0.2146  0.4365  0.2473
19153TIP3    H178874   2.129   6.744  14.233 -2.2600  0.5530 -0.8576
19153TIP3    H278875   2.027   6.697  14.335  0.8680 -0.5311  1.8395
19154TIP3   OH278876   4.516   6.187   0.027 -0.0506  0.3290  0.1209
19154TIP3    H178877   4.485   6.149   0.109  1.7231  1.7779  1.5094
19154TIP3    H278878   4.521   6.281   0.045  2.9870  0.3918 -0.7261
19155TIP3   OH278879   1.181   6.388  14.665 -0.0485 -0.3263 -0.1562
19155TIP3    H178880   1.208   6.460  14.722 -1.4960 -0.4274  0.6697
19155TIP3    H278881   1.246   6.388  14.595  1.6198 -0.0264  1.3419
19156TIP3   OH278882   2.417   0.326   5.631 -0.2779  0.3949 -0.1948
19156TIP3    H178883   2.360   0.308   5.706  0.8023  0.8077  0.7396
19156TIP3    H278884   2.430   0.421   5.634  1.0724  0.2092  0.0549
19157TIP3   OH278885   4.641   5.692  14.647  0.0596  0.5710  0.1250
19157TIP3    H178886   4.573   5.709  14.713 -1.1286  0.4512 -1.0464
19157TIP3    H278887   4.674   5.778  14.623 -0.8370  0.7458 -0.4933
19158TIP3   OH278888   3.489   3.734  14.556 -0.0211  0.2127 -0.2499
19158TIP3    H178889   3.426   3.789  14.509 -0.0381  0.7672  0.4274
19158TIP3    H278890   3.436   3.664  14.594 -0.3226  1.0228  0.8421
19159TIP3   OH278891   6.753   2.091  16.791 -0.4419 -0.2937 -0.1080
19159TIP3    H178892   6.791   2.003  16.785 -1.6638 -0.7022 -2.3133
19159TIP3    H278893   6.691   2.085  16.863 -0.6124 -1.2884 -0.3279
19160TIP3   OH278894   0.667   5.602   3.569  0.3901  0.0582 -0.1761
19160TIP3    H178895   0.647   5.642   3.653 -1.0656  3.1894 -1.9161
19160TIP3    H278896   0.597   5.537   3.556 -0.8093  1.3089 -0.0716
19161TIP3   OH278897   5.733   1.432   1.018 -0.0420  0.5399 -0.1960
19161TIP3    H178898   5.721   1.518   0.978  1.6922  1.8339  1.9444
19161TIP3    H278899   5.774   1.379   0.950 -1.1662  1.3538 -1.5430
19162TIP3   OH278900   1.143   4.713  15.330  0.0599  0.7596 -0.0976
19162TIP3    H178901   1.193   4.731  15.251  1.9189  0.8440  1.0616
19162TIP3    H278902   1.169   4.625  15.356 -0.0348  0.9704  0.7526
19163TIP3   OH278903   0.297   2.807   4.574 -0.0899  0.3554  0.4966
19163TIP3    H178904   0.213   2.777   4.609 -0.2289  0.6567  0.4216
19163TIP3    H278905   0.312   2.892   4.616  0.5325 -0.0353  1.0647
19164TIP3   OH278906   1.365   0.755   3.307  0.2612  0.0518 -0.1745
19164TIP3    H178907   1.368   0.661   3.322 -1.8290 -0.0045  0.1106
19164TIP3    H278908   1.316   0.766   3.226 -0.5759  0.9338  0.4301
19165TIP3   OH278909   3.946   0.582   2.622 -0.6487  0.0239  0.6883
19165TIP3    H178910   4.016   0.517   2.635  1.3752  2.0073  0.1567
19165TIP3    H278911   3.868   0.541   2.657  0.7625 -2.3509  1.1687
19166TIP3   OH278912   5.829   4.529  16.629  0.0281  0.1405  0.1117
19166TIP3    H178913   5.781   4.611  16.633 -0.8919 -0.4003  0.2518
19166TIP3    H278914   5.763   4.463  16.607  1.2077 -0.1540 -2.9035
19167TIP3   OH278915   2.346   5.596  10.410  0.5234 -0.2874 -0.5547
19167TIP3    H178916   2.261   5.601  10.366 -0.1093 -3.5074  0.1053
19167TIP3    H278917   2.407   5.568  10.342  0.6951  0.2521 -0.6253
19168TIP3   OH278918   5.389   1.980   2.194  0.0732  0.3585 -0.7465
19168TIP3    H178919   5.334   2.012   2.266  0.4115 -1.7627  0.5197
19168TIP3    H278920   5.349   1.896   2.170  2.6461 -1.1576  0.1035
19169TIP3   OH278921   1.220   1.188   4.457 -0.4157  0.7720 -0.0569
19169TIP3    H178922   1.142   1.142   4.487  0.1687  1.0133  1.9348
19169TIP3    H278923   1.188   1.271   4.423 -1.2911 -0.3052 -1.9403
19170TIP3   OH278924   1.257   6.192   3.463 -0.3521  0.0341  0.6498
19170TIP3    H178925   1.322   6.207   3.532  2.1512 -2.0913 -1.1526
19170TIP3    H278926   1.191   6.135   3.504  0.7348 -0.6405  1.4873
19171TIP3   OH278927   4.907   0.302   1.809  0.4583  0.7935  0.1360
19171TIP3    H178928   4.825   0.286   1.762  0.0768  2.4526  0.2061
19171TIP3    H278929   4.916   0.227   1.868 -2.1705  1.6564  1.7249
19172TIP3   OH278930   6.115   3.794   5.023 -0.0733 -0.4248  0.0980
19172TIP3    H178931   6.092   3.882   5.052 -0.5112 -1.5854  3.4547
19172TIP3    H278932   6.035   3.743   5.033  0.4948 -1.4905 -0.6211
19173TIP3   OH278933   6.664   3.972  11.828  0.0110 -0.0789  0.0294
19173TIP3    H178934   6.705   4.036  11.770 -0.2870  0.2620  0.1950
19173TIP3    H278935   6.727   3.900  11.832 -0.3192 -0.4625 -1.3464
19174TIP3   OH278936   0.430   2.113  13.746 -0.2067  0.4757  0.2913
19174TIP3    H178937   0.407   2.205  13.732  0.5079  0.6362  0.1291
19174TIP3    H278938   0.384   2.088  13.826 -0.1427  1.0735  0.5167
19175TIP3   OH278939   3.762   5.652   3.507 -0.4112 -0.2758 -0.1660
19175TIP3    H178940   3.805   5.601   3.576  1.3063 -0.9766 -1.7110
19175TIP3    H278941   3.714   5.587   3.455 -1.0464  0.1377 -0.1016
19176TIP3   OH278942   4.961   6.464  16.176  0.2570  0.0439 -0.1059
19176TIP3    H178943   5.028   6.454  16.109  0.5243 -0.5862  0.2532
19176TIP3    H278944   4.921   6.377  16.182 -0.9295  0.5378 -0.6789
19177TIP3   OH278945   4.059   0.915  14.015  0.2202 -0.3456 -0.4176
19177TIP3    H178946   4.127   0.977  13.991 -1.3942  1.2546 -0.9314
19177TIP3    H278947   4.034   0.873  13.932  0.5774 -0.9281 -0.2324
19178TIP3   OH278948   3.042   3.908   0.007  0.0276  0.4830 -0.0094
19178TIP3    H178949   2.960   3.953   0.024 -0.0747  0.9727 -1.7018
19178TIP3    H278950   3.096   3.972  -0.039  0.9994 -0.1385  0.2402
19179TIP3   OH278951   4.989   2.435   5.801  0.3394  0.4728  0.4531
19179TIP3    H178952   5.076   2.397   5.790 -0.3953 -1.1634  0.0829
19179TIP3    H278953   4.949   2.428   5.714 -0.5857  0.1149  0.9008
19180TIP3   OH278954   0.730   1.153   1.591  0.3697  0.0845  0.0931
19180TIP3    H178955   0.637   1.139   1.603  0.4665 -0.1810  0.5702
19180TIP3    H278956   0.738   1.245   1.566 -0.1104 -0.1997 -1.1288
19181TIP3   OH278957   5.788   2.634   1.664 -0.2733 -0.0633  0.1046
19181TIP3    H178958   5.814   2.544   1.646  2.1471  0.7379 -0.4519
19181TIP3    H278959   5.731   2.658   1.591  0.7675 -0.4292 -0.8255
19182TIP3   OH278960   0.300   3.684   0.322  0.2808 -0.0493 -0.1982
19182TIP3    H178961   0.324   3.686   0.415 -1.3586  2.4134  0.2113
19182TIP3    H278962   0.374   3.727   0.278 -0.6360  2.2618  0.4261
19183TIP3   OH278963   4.670   4.193  15.018 -0.0107  0.1058 -0.3957
19183TIP3    H178964   4.580   4.223  15.009  0.2490  1.0420  0.0648
19183TIP3    H278965   4.721   4.257  14.967  0.3476 -0.6874 -1.0416
19184TIP3   OH278966   4.849   2.994   0.287  0.0478 -0.6668 -0.3384
19184TIP3    H178967   4.761   3.016   0.255  0.5608  0.3511 -1.0597
19184TIP3    H278968   4.903   3.069   0.263  1.4336 -1.9185 -1.1898
19185TIP3   OH278969   3.046   1.284  12.991 -0.2801 -0.2140 -0.1968
19185TIP3    H178970   3.002   1.200  12.987 -0.9910  0.1821 -0.8148
19185TIP3    H278971   3.081   1.298  12.903  0.0151  0.0323 -0.0412
19186TIP3   OH278972   0.076   3.935   1.696  0.4503  0.2213 -0.8389
19186TIP3    H178973  -0.006   3.935   1.745  0.9108 -2.0477  0.0150
19186TIP3    H278974   0.049   3.954   1.606 -0.9374  0.1978 -0.4482
19187TIP3   OH278975   4.801   2.984  14.434  0.2463  0.1463  0.8038
19187TIP3    H178976   4.721   2.953  14.393  1.1873  0.8985 -1.6750
19187TIP3    H278977   4.778   3.069  14.471 -0.2811  0.0405  0.7229
19188TIP3   OH278978   0.839   2.685  17.066 -0.1674  0.3655 -0.0079
19188TIP3    H178979   0.787   2.680  16.985  0.9798 -1.9444 -0.6340
19188TIP3    H278980   0.917   2.735  17.041 -0.2437  0.4439 -0.0915
19189TIP3   OH278981   0.249   0.930  11.394  0.0923  0.2215 -0.2827
19189TIP3    H178982   0.245   0.905  11.486 -3.1803  2.7481  0.3691
19189TIP3    H278983   0.228   0.849  11.346 -0.2142 -0.6428  1.2852
19190TIP3   OH278984   0.160   1.401  11.331  0.3711  0.1147 -1.0283
19190TIP3    H178985   0.069   1.411  11.359  1.0602  1.5005  0.8318
19190TIP3    H278986   0.155   1.390  11.236 -1.7120  0.5970 -1.0017
19191TIP3   OH278987   4.689   2.991  16.024 -0.7339  0.2751 -0.0476
19191TIP3    H178988   4.683   3.078  16.063  0.8888  0.5282 -0.2987
19191TIP3    H278989   4.660   3.003  15.934  1.1146  0.9404 -0.5798
19192TIP3   OH278990   6.215   6.006   2.363  0.1715  0.6989 -0.0032
19192TIP3    H178991   6.174   6.040   2.283 -0.4392 -0.7055 -0.2908
19192TIP3    H278992   6.143   5.998   2.425  0.6055  1.5419  0.6254
19193TIP3   OH278993   1.384   0.210   0.622 -0.5847  0.2556  0.1699
19193TIP3    H178994   1.344   0.137   0.573  0.5673  0.3842 -0.9941
19193TIP3    H278995   1.335   0.287   0.594 -0.2091  0.2681 -0.4566
19194TIP3   OH278996   1.040   1.710   2.836  0.1907  0.4456 -0.0355
19194TIP3    H178997   1.002   1.789   2.875  0.6244  0.8425 -0.4029
19194TIP3    H278998   0.976   1.681   2.772 -0.3120  0.0624  0.6275
19195TIP3   OH278999   2.868   1.828   6.030  0.3515  0.1495 -0.1764
19195TIP3    H179000   2.885   1.856   6.120 -1.4618 -2.8181  1.1859
19195TIP3    H279001   2.787   1.873   6.006 -1.2083 -1.8816  1.0988
19196TIP3   OH279002   4.919   1.542  14.419  0.0036  0.6638  0.2717
19196TIP3    H179003   4.843   1.543  14.362 -1.0663  0.3655  1.6604
19196TIP3    H279004   4.934   1.634  14.441 -0.3214  0.6656  0.4801
19197TIP3   OH279005   4.160   3.241   1.320 -0.7249 -0.0628  0.5324
19197TIP3    H179006   4.236   3.253   1.378 -0.0299  1.1938 -0.6229
19197TIP3    H279007   4.174   3.303   1.249 -1.3562 -1.9051 -1.2352
19198TIP3   OH279008   3.758   2.097  15.044  0.4046  0.0912  0.2311
19198TIP3    H179009   3.731   2.104  14.953 -0.2198 -0.6588  0.3499
19198TIP3    H279010   3.676   2.091  15.093  0.7503 -1.9573  0.6162
19199TIP3   OH279011   0.128   6.597   0.483  0.3695 -0.2922 -0.0206
19199TIP3    H179012   0.066   6.540   0.529  0.6887 -0.5272  0.1212
19199TIP3    H279013   0.092   6.685   0.492  0.3300 -0.3611  0.5125
19200TIP3   OH279014   0.284   1.671  11.098 -0.2753  0.1149  0.5869
19200TIP3    H179015   0.338   1.635  11.029 -1.1666  0.9534 -0.5776
19200TIP3    H279016   0.336   1.742  11.135 -0.6297  1.0276 -0.6380
19201TIP3   OH279017   4.872   4.406   4.804  0.2273 -0.2908 -0.0937
19201TIP3    H179018   4.952   4.453   4.779  0.0628 -0.7004 -1.4368
19201TIP3    H279019   4.859   4.342   4.733 -1.7595  0.3304 -0.3091
19202TIP3   OH279020   2.871   2.243  16.223  0.0797 -0.0885  0.0908
19202TIP3    H179021   2.942   2.301  16.195  3.1445 -3.9514 -0.6252
19202TIP3    H279022   2.805   2.251  16.154  1.3348  0.9576 -1.0359
19203TIP3   OH279023   5.586   5.565  16.325  0.2467 -0.8331  0.2364
19203TIP3    H179024   5.546   5.649  16.346  0.4007 -1.1751  1.9606
19203TIP3    H279025   5.530   5.528  16.257 -0.1127  0.4192 -0.1653
19204TIP3   OH279026   5.261   2.832   1.637 -0.1957  0.5571  0.1582
19204TIP3    H179027   5.328   2.798   1.696  0.7122  1.9718 -0.0281
19204TIP3    H279028   5.193   2.866   1.695 -0.0518  0.4886  0.3684
19205TIP3   OH279029   2.152   6.771   3.365 -0.1603  0.1459 -0.6177
19205TIP3    H179030   2.123   6.848   3.316  0.3374  0.6972 -0.0614
19205TIP3    H279031   2.212   6.726   3.305 -0.5967  0.0930 -1.0135
19206TIP3   OH279032   6.783   1.845  13.505  0.8929  0.1592  0.0557
19206TIP3    H179033   6.840   1.833  13.581  0.6711  0.1986  0.2275
19206TIP3    H279034   6.841   1.835  13.430  0.6475 -2.3434  0.1824
19207TIP3   OH279035   2.354   3.685   0.105  0.2944  0.7407  0.0631
19207TIP3    H179036   2.292   3.629   0.152 -0.4872 -0.4247 -2.2780
19207TIP3    H279037   2.412   3.623   0.061  2.4350  1.8192  1.2824
19208TIP3   OH279038   5.403   4.217   4.095  0.1193  0.0986 -0.2212
19208TIP3    H179039   5.378   4.284   4.158 -1.4578 -0.9294  0.2805
19208TIP3    H279040   5.488   4.185   4.126  0.9396  1.9004 -0.5232
19209TIP3   OH279041   3.113   4.814   6.293  0.3627 -0.5562  0.1167
19209TIP3    H179042   3.030   4.855   6.314  0.2501  0.4045 -2.0297
19209TIP3    H279043   3.122   4.743   6.356 -2.1252 -0.7416  0.3080
19210TIP3   OH279044   4.492   5.425  12.094 -0.2396 -0.8578  0.1133
19210TIP3    H179045   4.523   5.420  12.003 -0.6334 -1.0008 -0.0146
19210TIP3    H279046   4.413   5.478  12.088 -1.1128 -2.1433  0.1606
19211TIP3   OH279047   4.968   4.490  14.474  0.3517 -0.3721  0.4561
19211TIP3    H179048   5.062   4.501  14.469  0.7396 -3.7473 -1.0719
19211TIP3    H279049   4.937   4.501  14.384 -0.3858 -1.5289  0.5471
19212TIP3   OH279050   3.893   4.248  12.584 -0.1722  0.2386  0.0759
19212TIP3    H179051   3.928   4.185  12.647  1.9763  1.1920 -0.1297
19212TIP3    H279052   3.962   4.314  12.574 -1.4111  1.3505 -1.5182
19213TIP3   OH279053   2.928   6.580   3.230 -0.5699 -0.4817 -0.1586
19213TIP3    H179054   2.998   6.629   3.272 -2.0689  1.0953  0.5885
19213TIP3    H279055   2.964   6.492   3.217  1.5588  0.3332  0.0873
19214TIP3   OH279056   0.676   3.144  14.641 -0.6078  0.8567  0.1214
19214TIP3    H179057   0.720   3.229  14.640 -0.3556  0.7894  2.2414
19214TIP3    H279058   0.645   3.132  14.552  0.5200  2.5635 -0.5364
19215TIP3   OH279059   0.714   4.284   0.122 -0.6047 -0.4094  0.2811
19215TIP3    H179060   0.662   4.245   0.052 -0.7372 -0.5944  0.4824
19215TIP3    H279061   0.743   4.209   0.174 -2.7342 -0.0918  1.9961
19216TIP3   OH279062   0.057   3.626   4.527 -0.5042  0.6685 -0.3565
19216TIP3    H179063   0.030   3.684   4.456 -1.5334  1.7124  0.8759
19216TIP3    H279064   0.132   3.670   4.567 -0.6695  0.6579 -0.0365
19217TIP3   OH279065   0.452   2.906  14.036  0.3805 -0.5388 -0.4536
19217TIP3    H179066   0.407   2.824  14.019 -0.0156 -0.2975 -0.5730
19217TIP3    H279067   0.392   2.974  14.006  0.1251 -0.1452  0.9066
19218TIP3   OH279068   1.915   2.492   4.749 -0.1786 -0.0484  0.5592
19218TIP3    H179069   1.994   2.493   4.696 -0.2110 -1.8963  0.4442
19218TIP3    H279070   1.844   2.475   4.686 -0.3356 -1.2429  1.0623
19219TIP3   OH279071   3.416   3.841   2.148  0.8128 -0.2184 -0.2684
19219TIP3    H179072   3.370   3.858   2.230  1.7773  1.7551 -0.1058
19219TIP3    H279073   3.359   3.781   2.100 -1.1085  0.8281  0.6554
19220TIP3   OH279074   2.993   4.922   2.406 -0.6351 -0.5763  0.4055
19220TIP3    H179075   2.922   4.927   2.341 -1.2272  0.8210  1.1345
19220TIP3    H279076   3.059   4.865   2.366 -1.1906 -0.0883 -1.2212
19221TIP3   OH279077   5.802   3.710   4.129 -0.3180 -0.7955 -0.2345
19221TIP3    H179078   5.729   3.690   4.189  0.3300  1.4003  1.4046
19221TIP3    H279079   5.871   3.743   4.187  0.8496  0.0570 -2.0753
19222TIP3   OH279080   4.157   2.464  15.726  0.6952  0.3973  0.3458
19222TIP3    H179081   4.219   2.393  15.741 -0.7581 -0.6996  1.2530
19222TIP3    H279082   4.199   2.541  15.764  1.8328 -0.1741  0.2548
19223TIP3   OH279083   3.539   5.256   2.982 -0.2975  0.3228 -0.1205
19223TIP3    H179084   3.622   5.214   3.000 -0.1339 -0.0172 -1.5683
19223TIP3    H279085   3.480   5.225   3.051 -0.0212 -1.8325 -0.8307
19224TIP3   OH279086   6.191   1.042   3.163  0.0985 -0.3915 -0.2701
19224TIP3    H179087   6.235   0.963   3.131  0.3090 -0.1309 -0.6249
19224TIP3    H279088   6.203   1.106   3.093 -1.8546 -0.6681 -0.9085
19225TIP3   OH279089   1.452   5.345  11.140  0.0439  0.5981  0.4038
19225TIP3    H179090   1.533   5.363  11.091  0.2082 -0.1030  0.4061
19225TIP3    H279091   1.405   5.428  11.140 -0.1007  0.5283 -1.2049
19226TIP3   OH279092   3.513   2.153   1.095  0.1145 -0.1111 -0.1266
19226TIP3    H179093   3.439   2.180   1.041 -0.5634  0.1701  0.9467
19226TIP3    H279094   3.563   2.094   1.038 -0.6154  0.1480 -1.0496
19227TIP3   OH279095   0.748   4.923   3.973  0.4718 -0.1115  1.0220
19227TIP3    H179096   0.660   4.913   3.938 -0.4113  0.3566  3.0396
19227TIP3    H279097   0.763   4.843   4.024 -0.2676  1.4092  3.7350
19228TIP3   OH279098   1.588   6.214   2.139 -0.0874  0.4218  0.6544
19228TIP3    H179099   1.518   6.250   2.192 -1.3074 -0.6299 -0.1947
19228TIP3    H279100   1.550   6.136   2.099  1.6779 -0.3662  0.4469
19229TIP3   OH279101   5.172   6.582   1.762  0.2560  0.0977 -0.6963
19229TIP3    H179102   5.101   6.612   1.705  0.3660  0.3688 -0.6900
19229TIP3    H279103   5.214   6.662   1.792  1.0814 -0.0911 -1.3470
19230TIP3   OH279104   1.951   6.498  13.153  0.5035 -0.0116 -0.3341
19230TIP3    H179105   1.932   6.576  13.204  0.9808 -1.1442  1.6419
19230TIP3    H279106   1.866   6.455  13.142  0.5558 -0.3370  0.4949
19231TIP3   OH279107   6.128   2.909   3.821 -0.1929 -0.3597  0.0679
19231TIP3    H179108   6.093   2.995   3.846 -0.1929  0.2686 -2.0074
19231TIP3    H279109   6.077   2.847   3.873 -1.1449  0.8228  0.5798
19232TIP3   OH279110   0.953   3.227  14.472 -0.3200 -0.0638  0.0574
19232TIP3    H179111   1.007   3.181  14.407  1.7539  2.7235 -0.2936
19232TIP3    H279112   0.870   3.244  14.426  0.0165 -0.7610 -0.8302
19233TIP3   OH279113   6.378   6.298  11.620 -0.2410  0.5267 -0.1871
19233TIP3    H179114   6.321   6.374  11.629 -2.1334 -0.7455 -1.1369
19233TIP3    H279115   6.329   6.226  11.659  0.6100 -0.6326 -1.1953
19234TIP3   OH279116   0.566   3.155  12.620  0.2764 -0.5650  0.0414
19234TIP3    H179117   0.511   3.188  12.550  2.7144  0.7095 -1.3256
19234TIP3    H279118   0.527   3.190  12.700 -1.0268  0.1289 -0.8866
19235TIP3   OH279119   0.130   4.260   6.534  0.3275  0.3831  0.2277
19235TIP3    H179120   0.207   4.316   6.525  0.0740  1.0372  1.8973
19235TIP3    H279121   0.165   4.173   6.555  0.6168  0.8354  1.6977
19236TIP3   OH279122   2.273   5.782   4.923  0.6266 -0.2945  0.2482
19236TIP3    H179123   2.254   5.876   4.925  0.3722 -0.3594  0.7973
19236TIP3    H279124   2.188   5.740   4.933  1.0538 -0.5868  2.8036
19237TIP3   OH279125   5.572   5.601   6.450  0.3146  0.7422 -0.7816
19237TIP3    H179126   5.580   5.522   6.396  0.5078  0.6064 -0.5552
19237TIP3    H279127   5.603   5.672   6.393  0.8948  0.5436 -0.7175
19238TIP3   OH279128   2.380   0.376   1.119 -0.1736  0.0101 -0.6002
19238TIP3    H179129   2.401   0.384   1.026 -0.3324 -0.3037 -0.6624
19238TIP3    H279130   2.428   0.448   1.161  1.4783 -1.0500 -0.6550
19239TIP3   OH279131   2.691   1.598  16.641 -0.0510 -0.2782  0.0112
19239TIP3    H179132   2.754   1.569  16.575 -0.7001 -1.0688 -0.2632
19239TIP3    H279133   2.729   1.679  16.675  1.3621 -1.0095  0.2029
19240TIP3   OH279134   4.721   2.998  16.697 -0.7226 -0.4482  0.0140
19240TIP3    H179135   4.780   2.923  16.710 -0.1763 -0.4792 -2.4327
19240TIP3    H279136   4.775   3.075  16.715 -1.4921 -0.6014  3.3104
19241TIP3   OH279137   3.341   5.198  14.163  0.6297 -0.2794 -0.0288
19241TIP3    H179138   3.399   5.198  14.086 -0.3223  0.0974 -0.7558
19241TIP3    H279139   3.368   5.121  14.213  2.5594  0.5505  0.2584
19242TIP3   OH279140   2.827   0.367   0.641  0.2950  0.0069  0.6804
19242TIP3    H179141   2.917   0.396   0.653  0.3187  0.6032 -0.7874
19242TIP3    H279142   2.827   0.325   0.554 -0.5792 -1.0097  1.1611
19243TIP3   OH279143   6.360   5.177  11.477 -0.4784 -0.0281  0.1194
19243TIP3    H179144   6.444   5.178  11.430 -0.9553  0.2571 -0.7180
19243TIP3    H279145   6.306   5.115  11.428 -0.2829 -1.3428  1.5052
19244TIP3   OH279146   1.277   2.881  16.478 -0.2187  0.3307  0.1475
19244TIP3    H179147   1.306   2.961  16.522  0.3091  0.2076  0.0363
19244TIP3    H279148   1.357   2.829  16.470 -0.6628 -0.4516  0.7318
19245TIP3   OH279149   0.386   4.708   5.056  0.6094 -0.0290 -0.6502
19245TIP3    H179150   0.411   4.798   5.077 -1.1909  0.3679 -0.0771
19245TIP3    H279151   0.297   4.715   5.022  0.8160 -1.4983 -1.5439
19246TIP3   OH279152   6.457   4.541   4.195 -0.2170 -0.3258  0.4854
19246TIP3    H179153   6.368   4.506   4.190 -1.2657  2.2689  0.3561
19246TIP3    H279154   6.479   4.564   4.105 -0.0342  0.5470  0.7505
19247TIP3   OH279155   4.621   5.489  16.108  0.8824  0.2331  0.5185
19247TIP3    H179156   4.636   5.411  16.055  1.6963 -0.4525  1.7304
19247TIP3    H279157   4.549   5.465  16.166  0.0842  0.9303 -0.1787
19248TIP3   OH279158   1.063   3.667  14.455  0.0338 -0.4144 -0.2964
19248TIP3    H179159   1.075   3.587  14.507  3.2329 -0.7268 -1.4208
19248TIP3    H279160   1.076   3.738  14.517 -3.1388 -0.6766  0.7833
19249TIP3   OH279161   1.663   2.234  14.561 -0.4745 -0.3676 -0.3890
19249TIP3    H179162   1.713   2.254  14.482 -0.7789  2.5846  0.0836
19249TIP3    H279163   1.576   2.210  14.529 -0.6122  0.8525 -0.9603
19250TIP3   OH279164   2.323   5.603  10.709  0.2445  0.3867  0.1970
19250TIP3    H179165   2.308   5.630  10.619  1.4161 -0.1820 -0.1811
19250TIP3    H279166   2.417   5.583  10.713 -0.0193 -0.7007  1.2530
19251TIP3   OH279167   5.907   2.215  13.732  0.0427  0.2782  0.9239
19251TIP3    H179168   5.812   2.204  13.727  0.0746  0.0767  0.7197
19251TIP3    H279169   5.943   2.130  13.705  0.2831  0.4880  0.5687
19252TIP3   OH279170   3.443   2.350  10.648  0.0294  0.2792  0.2549
19252TIP3    H179171   3.398   2.369  10.730  1.1683  0.0806  0.9268
19252TIP3    H279172   3.516   2.412  10.645 -0.7229  1.1120 -1.1961
19253TIP3   OH279173   0.571   5.032  13.272  0.0997 -0.2833  0.3743
19253TIP3    H179174   0.548   5.030  13.365 -0.1837 -2.3654  0.2890
19253TIP3    H279175   0.517   4.964  13.232  0.1048  0.6843 -1.3529
19254TIP3   OH279176   2.226   5.285   4.889 -0.5138  0.1661  0.5460
19254TIP3    H179177   2.172   5.207   4.875 -0.1644  0.3071 -1.8183
19254TIP3    H279178   2.314   5.251   4.902 -0.0631  0.2020 -2.1817
19255TIP3   OH279179   2.075   3.936   0.877 -0.2321  0.0883  0.1080
19255TIP3    H179180   2.043   3.877   0.945 -0.1800 -0.7699 -0.6030
19255TIP3    H279181   2.052   4.024   0.908 -1.5945 -0.3937  0.4855
19256TIP3   OH279182   5.467   3.815   4.688  0.7153  0.1477  0.3688
19256TIP3    H179183   5.387   3.764   4.706  0.2690  0.2980 -1.1478
19256TIP3    H279184   5.533   3.775   4.744 -0.0822 -0.8998  0.5855
19257TIP3   OH279185   2.036   1.022  15.618  0.3237  0.6840 -0.3242
19257TIP3    H179186   2.062   0.949  15.674 -0.6923 -0.9290 -1.9110
19257TIP3    H279187   2.006   1.089  15.680  2.2839  0.2041  1.2042
19258TIP3   OH279188   1.315   5.843   5.681  0.1120 -0.2035  0.0380
19258TIP3    H179189   1.388   5.834   5.742 -0.0092 -0.1677  0.1896
19258TIP3    H279190   1.331   5.926   5.637  0.9023 -0.8591 -0.9198
19259TIP3   OH279191   0.216   0.139   1.878 -0.1845 -0.4748 -0.5565
19259TIP3    H179192   0.141   0.166   1.931  0.9929 -0.1504  0.9453
19259TIP3    H279193   0.284   0.203   1.896  0.7789 -1.2885 -1.2096
19260TIP3   OH279194   4.862   3.489  15.858  0.6725 -0.2501  0.4636
19260TIP3    H179195   4.862   3.520  15.948  1.5268 -0.1478  0.4245
19260TIP3    H279196   4.775   3.450  15.847  0.2607  0.4700  1.0757
19261TIP3   OH279197   1.575   6.333  15.656  0.1160  0.2679 -0.3060
19261TIP3    H179198   1.517   6.258  15.642  0.0862  0.5585 -1.8175
19261TIP3    H279199   1.517   6.408  15.665  0.2228  0.4146 -0.8407
19262TIP3   OH279200   1.156   3.326  11.676 -0.3595 -0.0674 -0.3224
19262TIP3    H179201   1.184   3.415  11.696 -2.6692  1.1621 -2.3821
19262TIP3    H279202   1.148   3.284  11.762 -0.9084  2.2222  0.7895
19263TIP3   OH279203   4.042   5.502  16.251 -0.2117 -0.2818  0.0374
19263TIP3    H179204   3.967   5.458  16.210 -0.9563 -0.1985  1.2999
19263TIP3    H279205   4.052   5.460  16.336  3.3264 -2.6218 -1.4206
19264TIP3   OH279206   1.123   3.654  12.141  0.1361 -0.1455  0.4828
19264TIP3    H179207   1.030   3.675  12.148  0.4286  0.3984  3.6514
19264TIP3    H279208   1.157   3.714  12.075 -1.6089  0.2087 -0.0907
19265TIP3   OH279209   0.000   5.143   1.703 -0.2299  0.4308  0.2009
19265TIP3    H179210   0.026   5.194   1.626 -1.9245 -0.4657 -0.9893
19265TIP3    H279211  -0.095   5.153   1.707 -0.2070  0.0522  1.9046
19266TIP3   OH279212   4.886   3.596  16.117  0.0335 -0.4783 -1.1114
19266TIP3    H179213   4.875   3.530  16.185  0.6668  0.0759 -0.4660
19266TIP3    H279214   4.837   3.672  16.148 -0.6874 -0.6281 -1.8468
19267TIP3   OH279215   0.357   3.877   3.310 -0.5105  0.0835  0.3531
19267TIP3    H179216   0.332   3.869   3.402 -1.9245 -3.3552 -0.2412
19267TIP3    H279217   0.289   3.931   3.271 -1.2825 -0.5158  0.8504
19268TIP3   OH279218   6.397   4.705   1.895  1.0466 -0.8119 -0.4991
19268TIP3    H179219   6.442   4.781   1.858  1.1898 -0.9304 -0.5702
19268TIP3    H279220   6.365   4.657   1.818 -0.5554  0.0857 -0.4160
19269TIP3   OH279221   5.448   6.505   2.197 -0.0542 -0.2610  0.2551
19269TIP3    H179222   5.514   6.439   2.176  1.0975  1.1238 -0.5935
19269TIP3    H279223   5.380   6.494   2.130 -0.8658 -1.8842  1.3072
19270TIP3   OH279224   6.631   1.859   1.999 -0.1928  0.2361 -0.5860
19270TIP3    H179225   6.672   1.894   1.920  0.4159  1.5507  0.2896
19270TIP3    H279226   6.690   1.789   2.028  1.3955  1.9957  0.5671
19271TIP3   OH279227   6.578   3.439  13.345  0.1583  0.0723  0.1821
19271TIP3    H179228   6.597   3.348  13.322 -0.8612 -0.4930  1.5353
19271TIP3    H279229   6.569   3.484  13.260 -1.2505 -1.4871 -0.5246
19272TIP3   OH279230   3.713   3.052   1.375 -0.7630  0.0245  0.4172
19272TIP3    H179231   3.807   3.035   1.374 -0.7102  0.3005  0.4587
19272TIP3    H279232   3.688   3.053   1.282 -0.4790  1.2315  0.3380
19273TIP3   OH279233   5.922   0.524   4.062 -0.0875  0.0341  0.4934
19273TIP3    H179234   5.942   0.588   3.994 -1.3515  0.0239  0.0978
19273TIP3    H279235   5.830   0.502   4.048 -0.5842  0.5854  2.6436
19274TIP3   OH279236   3.899   3.734   0.952  0.6223  0.0944  0.3302
19274TIP3    H179237   3.924   3.777   1.034  0.3969 -0.3277  0.6245
19274TIP3    H279238   3.812   3.698   0.969  0.6051 -0.0568 -0.0721
19275TIP3   OH279239   5.543   2.556  15.437 -0.3893  0.0964 -1.0215
19275TIP3    H179240   5.459   2.575  15.395 -0.1946  2.6551 -0.3683
19275TIP3    H279241   5.608   2.568  15.368 -0.5015 -1.2535 -1.3686
19276TIP3   OH279242   0.115   3.490  11.906  0.5541 -0.6243  0.5695
19276TIP3    H179243   0.130   3.468  11.998  0.3890 -1.1159  0.4826
19276TIP3    H279244   0.028   3.454  11.887  0.4447 -0.2276  0.3156
19277TIP3   OH279245   1.347   1.959  16.397  0.7751  0.6206  0.1238
19277TIP3    H179246   1.353   1.864  16.386  1.1887  0.7765 -1.0829
19277TIP3    H279247   1.254   1.978  16.385  0.7507  0.4116 -0.0215
19278TIP3   OH279248   2.809   5.373   6.506 -0.5620  0.1014  0.0399
19278TIP3    H179249   2.841   5.463   6.513  0.8106 -0.2425 -1.3944
19278TIP3    H279250   2.714   5.379   6.522 -0.3138  1.6482  0.9355
19279TIP3   OH279251   0.885   6.422  12.108 -0.2873 -0.1871 -0.3621
19279TIP3    H179252   0.820   6.420  12.037  0.3131 -0.7236 -0.9051
19279TIP3    H279253   0.872   6.507  12.150 -0.3333  0.3343 -1.4174
19280TIP3   OH279254   2.174   2.588  14.823 -0.2404 -0.1541 -0.2252
19280TIP3    H179255   2.098   2.539  14.853 -0.3195  0.4788  0.6233
19280TIP3    H279256   2.139   2.646  14.754 -0.4979  0.0287  0.0589
19281TIP3   OH279257   0.150   2.092   3.140  0.2240 -0.2369 -0.2163
19281TIP3    H179258   0.241   2.118   3.129  0.3314 -0.4311  0.1785
19281TIP3    H279259   0.104   2.135   3.068  0.8504 -1.3143 -1.2841
19282TIP3   OH279260   3.844   2.234   4.130 -0.4471 -0.1931 -0.3206
19282TIP3    H179261   3.823   2.141   4.133 -0.7949 -0.1105 -0.1630
19282TIP3    H279262   3.867   2.256   4.220  1.0395 -0.4494 -0.6332
19283TIP3   OH279263   5.345   5.985  16.151 -0.1660 -0.1282  0.5815
19283TIP3    H179264   5.393   6.067  16.135  0.4863 -0.1169  2.4529
19283TIP3    H279265   5.256   6.004  16.124  0.4008  0.5888 -0.8123
19284TIP3   OH279266   1.274   2.873  12.950  0.6830  0.9027  0.2071
19284TIP3    H179267   1.298   2.842  13.037  0.5143  1.0048  0.2901
19284TIP3    H279268   1.201   2.818  12.924  0.0577  1.5534  0.5598
19285TIP3   OH279269   5.232   2.966  15.800  0.1378  0.5407  0.4517
19285TIP3    H179270   5.201   2.908  15.730  0.8393  0.3440  0.2947
19285TIP3    H279271   5.166   2.958  15.869 -2.2419  3.1897 -1.4115
19286TIP3   OH279272   5.320   1.332   1.496 -0.4023 -0.1448 -0.5024
19286TIP3    H179273   5.353   1.264   1.437 -1.0219  0.6431 -1.7884
19286TIP3    H279274   5.351   1.414   1.458 -0.4154  0.3453  0.5328
19287TIP3   OH279275   1.252   0.386  13.569  0.5513 -0.2639  0.0103
19287TIP3    H179276   1.195   0.462  13.557  1.4081  0.2307 -1.0143
19287TIP3    H279277   1.235   0.358  13.659 -0.9904  0.1264 -0.1440
19288TIP3   OH279278   4.201   2.756   4.461  0.2656 -0.0071  0.2006
19288TIP3    H179279   4.261   2.700   4.510 -0.2928 -1.4182 -0.7040
19288TIP3    H279280   4.248   2.839   4.452  2.1120 -1.0909 -0.5161
19289TIP3   OH279281   0.458   4.777   0.002  0.1969  0.3087 -0.4482
19289TIP3    H179282   0.535   4.738   0.042  0.2277  0.3156 -0.5004
19289TIP3    H279283   0.393   4.780   0.072  0.6047  1.3391 -0.0968
19290TIP3   OH279284   4.821   3.355   0.723 -0.2323  0.0216 -0.0227
19290TIP3    H179285   4.778   3.300   0.788  0.9231  0.2655  0.9716
19290TIP3    H279286   4.883   3.408   0.773  1.2616 -0.3530 -1.4009
19291TIP3   OH279287   5.803   2.156  13.060  0.4016  0.0017 -0.0203
19291TIP3    H179288   5.783   2.249  13.065  1.3676  0.1973  0.2389
19291TIP3    H279289   5.750   2.124  12.987 -1.1804  0.4226  0.9269
19292TIP3   OH279290   5.037   4.232   0.892 -0.3587  0.2060 -0.0884
19292TIP3    H179291   5.102   4.275   0.949  1.0934 -1.7980 -0.1959
19292TIP3    H279292   4.964   4.294   0.890  1.2916  2.2726  0.5061
19293TIP3   OH279293   4.881   2.842   5.712  0.3008  0.0610  0.4034
19293TIP3    H179294   4.842   2.924   5.742  1.8779  0.2949  1.9457
19293TIP3    H279295   4.811   2.797   5.666 -0.9142  1.7547  0.5397
19294TIP3   OH279296   3.409   5.615  11.496  0.2318 -0.0916 -0.4036
19294TIP3    H179297   3.457   5.669  11.559 -1.2617 -0.5247  1.1666
19294TIP3    H279298   3.455   5.532  11.495  0.3362 -0.0418  0.0426
19295TIP3   OH279299   6.556   2.780   2.876  0.4866  0.7085  0.3209
19295TIP3    H179300   6.473   2.824   2.860 -0.1017 -0.9993 -1.4648
19295TIP3    H279301   6.618   2.822   2.817  0.1791 -0.0801 -0.5736
19296TIP3   OH279302   5.857   5.809   0.857 -0.3168  0.4256 -0.1053
19296TIP3    H179303   5.902   5.860   0.925 -0.9238  0.5281  0.2256
19296TIP3    H279304   5.841   5.724   0.898 -1.0818  0.6345  0.0400
19297TIP3   OH279305   4.827   4.222  13.282 -0.1106  0.3457 -0.2415
19297TIP3    H179306   4.806   4.273  13.360  0.8577 -1.2362  1.0658
19297TIP3    H279307   4.817   4.131  13.309 -0.6097 -0.2024 -2.2091
19298TIP3   OH279308   4.426   0.861  15.402 -0.3218  0.1311 -0.1433
19298TIP3    H179309   4.369   0.850  15.478 -0.3086  0.9045 -0.0215
19298TIP3    H279310   4.391   0.937  15.356 -1.3702 -1.3360 -1.8459
19299TIP3   OH279311   2.175   0.959   2.738  0.3576  0.2699  0.8298
19299TIP3    H179312   2.237   0.888   2.755  0.1729  0.4070  2.1082
19299TIP3    H279313   2.089   0.917   2.743  0.3106  0.1418 -0.6473
19300TIP3   OH279314   2.842   3.478  12.293 -0.4497  0.0854  0.0554
19300TIP3    H179315   2.897   3.480  12.215 -0.5474 -1.4844 -0.0720
19300TIP3    H279316   2.855   3.563  12.334  2.7513 -0.5350  0.4567
19301TIP3   OH279317   6.652   2.616   3.850 -0.8956  0.0743 -0.4181
19301TIP3    H179318   6.616   2.592   3.765 -0.0275  0.0438 -0.7888
19301TIP3    H279319   6.592   2.682   3.885 -2.3691 -1.3810 -0.1427
19302TIP3   OH279320   6.664   5.010  15.958 -0.3091  0.0415 -0.2949
19302TIP3    H179321   6.589   5.059  15.989  0.5611  1.9351 -1.1242
19302TIP3    H279322   6.712   4.986  16.037 -0.4932  0.9129  0.0768
19303TIP3   OH279323   0.254   5.929  15.482 -0.2056  0.0397  0.1503
19303TIP3    H179324   0.302   5.976  15.550  1.8843 -0.8178 -0.6782
19303TIP3    H279325   0.291   5.961  15.399 -1.7332  0.0574 -0.5413
19304TIP3   OH279326   1.417   3.783  17.162  0.3665 -0.4090  0.5385
19304TIP3    H179327   1.486   3.846  17.140 -0.3110  0.0245 -0.4038
19304TIP3    H279328   1.464   3.703  17.185  1.1630 -0.8721 -2.4321
19305TIP3   OH279329   2.429   1.059  14.601  0.5545 -0.5389  0.0201
19305TIP3    H179330   2.477   0.994  14.550  1.6219  0.5654 -0.4254
19305TIP3    H279331   2.452   1.041  14.692 -1.1035 -2.3146  0.1201
19306TIP3   OH279332   5.730   5.247  16.629  0.0617 -0.3328  0.3372
19306TIP3    H179333   5.758   5.267  16.719  1.2958  2.0114 -0.5205
19306TIP3    H279334   5.799   5.189  16.596 -0.4801 -1.3354  0.9428
19307TIP3   OH279335   2.520   2.015   5.080  0.2255 -0.0819 -0.0304
19307TIP3    H179336   2.516   2.096   5.028  1.3840 -0.6447 -1.0165
19307TIP3    H279337   2.607   2.015   5.118  0.2158 -0.8597 -0.0076
19308TIP3   OH279338   0.315   3.205   2.588  0.4539  0.4632  0.1111
19308TIP3    H179339   0.258   3.146   2.538  0.3046  1.3082 -0.7197
19308TIP3    H279340   0.347   3.267   2.523 -1.5026  2.9686  1.4878
19309TIP3   OH279341   6.097   3.041  14.903  0.1293  0.3133 -0.1361
19309TIP3    H179342   6.121   3.112  14.961  3.4410 -1.4700  0.7838
19309TIP3    H279343   6.040   2.985  14.956 -1.2394  1.4161 -0.3922
19310TIP3   OH279344   6.478   0.722   5.144  0.2857 -0.4678 -0.3837
19310TIP3    H179345   6.523   0.646   5.181  1.6661 -0.0660 -1.2269
19310TIP3    H279346   6.389   0.690   5.127  0.9562 -2.0097 -1.1132
19311TIP3   OH279347   0.285   1.478   3.551  0.0314 -0.3407 -0.3284
19311TIP3    H179348   0.247   1.425   3.482  0.6020 -1.2932  0.0897
19311TIP3    H279349   0.285   1.567   3.515  1.8017 -1.0524 -2.1918
19312TIP3   OH279350   6.349   3.174  16.785  0.0137  0.1816  0.3178
19312TIP3    H179351   6.310   3.251  16.743 -0.9561 -0.0676  0.7620
19312TIP3    H279352   6.294   3.101  16.757  0.5615 -0.2720  0.4091
19313TIP3   OH279353   5.092   6.758  13.868 -0.1219 -0.3437 -0.4032
19313TIP3    H179354   5.117   6.696  13.936 -2.5618  1.8868  2.7339
19313TIP3    H279355   5.138   6.839  13.892  0.7638 -0.1161 -2.7500
19314TIP3   OH279356   4.877   3.903   3.571 -0.4349 -0.2705 -0.2522
19314TIP3    H179357   4.835   3.952   3.500  0.8347  0.0248 -0.8107
19314TIP3    H279358   4.855   3.812   3.553  0.4061 -0.2551 -1.3827
19315TIP3   OH279359   6.501   1.992  12.523 -0.0240 -0.2879  0.6896
19315TIP3    H179360   6.571   2.029  12.470 -0.8052  1.3185  0.7664
19315TIP3    H279361   6.466   1.920  12.470 -0.8167  1.3198 -1.0133
19316TIP3   OH279362   2.138   0.057   6.241  0.0273  0.1531  0.2133
19316TIP3    H179363   2.168   0.131   6.294 -0.2315 -0.9555  1.9445
19316TIP3    H279364   2.218   0.008   6.221  0.4590  1.8231 -2.4815
19317TIP3   OH279365   6.736   6.320   5.439  0.0569  0.1372  0.1715
19317TIP3    H179366   6.761   6.310   5.530 -0.8149 -0.9070  0.3071
19317TIP3    H279367   6.688   6.240   5.418  2.9096 -1.0650 -2.1121
19318TIP3   OH279368   0.293   5.139   5.514  0.3930  0.0878 -1.0527
19318TIP3    H179369   0.201   5.150   5.536  0.7376  0.9651  0.0263
19318TIP3    H279370   0.298   5.054   5.472 -0.4931 -1.2289  1.3897
19319TIP3   OH279371   4.525   0.810  11.968  0.3366 -0.2927 -0.3748
19319TIP3    H179372   4.513   0.731  11.915 -0.2340  0.1167 -0.8594
19319TIP3    H279373   4.559   0.875  11.906  0.6619 -0.1146 -0.0101
19320TIP3   OH279374   5.032   4.133   4.389  0.3337  0.2388 -0.2331
19320TIP3    H179375   5.001   4.051   4.428  0.6156 -0.8942 -2.3449
19320TIP3    H279376   4.997   4.132   4.300  0.9429  2.0901 -0.5133
19321TIP3   OH279377   3.052   1.286   2.723 -0.2160  0.4319 -0.7188
19321TIP3    H179378   3.059   1.198   2.686 -1.6381 -0.2550  0.5865
19321TIP3    H279379   3.139   1.324   2.712  0.2421 -0.9147 -1.8497
19322TIP3   OH279380   3.339   5.260  11.969 -0.0618  0.8643 -0.2981
19322TIP3    H179381   3.377   5.347  11.959  0.0713  0.7646 -0.6786
19322TIP3    H279382   3.311   5.236  11.880 -0.8569  0.8709 -0.0539
19323TIP3   OH279383   5.724   1.341  13.396  0.1202  0.1724  0.3333
19323TIP3    H179384   5.755   1.309  13.311 -0.6867  0.1634  0.0427
19323TIP3    H279385   5.639   1.298  13.408 -0.2116  0.9288  0.6975
19324TIP3   OH279386   3.942   5.115   0.114  0.0551  0.0022 -0.6316
19324TIP3    H179387   3.985   5.056   0.177 -1.9596 -0.3274  0.4790
19324TIP3    H279388   3.971   5.202   0.141  1.2218 -0.3067 -0.8458
19325TIP3   OH279389   6.096   3.212   5.027 -0.3547  1.1484 -0.0079
19325TIP3    H179390   6.083   3.304   5.003 -0.2919  0.9327 -0.8763
19325TIP3    H279391   6.085   3.210   5.122 -0.8569  1.9699 -0.0485
19326TIP3   OH279392   1.766   6.627  17.101 -0.1772  0.5755 -0.3902
19326TIP3    H179393   1.823   6.636  17.178  1.0917 -0.7783 -1.1441
19326TIP3    H279394   1.795   6.546  17.059 -0.5270  1.5490 -2.5762
19327TIP3   OH279395   2.771   6.506   1.448 -0.2701 -0.4336 -0.0793
19327TIP3    H179396   2.785   6.597   1.421 -1.7959 -1.2008 -3.6692
19327TIP3    H279397   2.700   6.511   1.512  0.6375  1.0077  0.8577
19328TIP3   OH279398   6.759   3.295  15.929 -0.5198  0.6182 -0.0912
19328TIP3    H179399   6.715   3.302  16.014 -0.5876  0.3455 -0.1022
19328TIP3    H279400   6.712   3.356  15.872 -2.4017 -1.3635 -0.7502
19329TIP3   OH279401   0.406   4.605   4.741 -0.4351 -0.3707  0.1518
19329TIP3    H179402   0.323   4.652   4.729  0.1326  0.8104  0.8239
19329TIP3    H279403   0.469   4.673   4.765  0.3181 -1.5151  1.4862
19330TIP3   OH279404   1.223   5.552  13.262 -0.6309  0.4302 -0.0207
19330TIP3    H179405   1.222   5.458  13.243  2.1266  0.2689  0.3612
19330TIP3    H279406   1.166   5.561  13.338 -2.1456 -0.6965 -0.9935
19331TIP3   OH279407   1.914   0.253  11.258 -0.0805 -0.8948 -0.3318
19331TIP3    H179408   1.972   0.228  11.330  0.0616  0.7341  0.1372
19331TIP3    H279409   1.838   0.293  11.301 -1.2507 -2.4032 -0.9769
19332TIP3   OH279410   4.301   3.406  13.372 -0.4718 -0.1123  0.6223
19332TIP3    H179411   4.301   3.406  13.468  1.0080  1.4812  0.6515
19332TIP3    H279412   4.327   3.495  13.348 -2.1097 -0.1012 -1.2829
19333TIP3   OH279413   3.799   1.279   1.802  0.1235  0.3694 -0.0514
19333TIP3    H179414   3.892   1.282   1.822  0.0849  1.0185  0.0381
19333TIP3    H279415   3.794   1.286   1.707  0.2019 -0.5217 -0.1273
19334TIP3   OH279416   5.696   0.840   0.808 -0.0669  0.6074  0.3342
19334TIP3    H179417   5.782   0.847   0.851  0.0230  0.9364  0.0963
19334TIP3    H279418   5.682   0.925   0.767  0.8625 -0.4289 -2.2319
19335TIP3   OH279419   5.726   0.318  12.595  0.0345  0.4232  0.0260
19335TIP3    H179420   5.820   0.333  12.582  0.4216 -2.3641 -0.8154
19335TIP3    H279421   5.701   0.259  12.524 -1.8081 -0.7741  1.6219
19336TIP3   OH279422   6.596   4.597  13.406  0.0426 -0.1458  0.5696
19336TIP3    H179423   6.598   4.626  13.315 -0.9749 -2.0441 -0.0862
19336TIP3    H279424   6.585   4.502  13.401  2.8570 -0.6424  2.6450
19337TIP3   OH279425   1.533   5.452   5.031  0.7024 -0.4179 -0.9988
19337TIP3    H179426   1.441   5.457   5.003  0.6768 -1.4886 -1.0988
19337TIP3    H279427   1.567   5.540   5.016 -0.3595  0.0334 -0.7964
19338TIP3   OH279428   6.572   4.436   6.718  0.3155 -0.7253 -0.6384
19338TIP3    H179429   6.541   4.416   6.806  2.8910 -0.2362  0.4175
19338TIP3    H279430   6.519   4.511   6.690 -0.3765 -0.7621  0.5524
19339TIP3   OH279431   3.868   2.802  11.416  0.3803 -0.0004 -0.1794
19339TIP3    H179432   3.945   2.801  11.472  2.2009  0.0594 -2.6120
19339TIP3    H279433   3.870   2.719  11.370 -0.7326  0.2069 -0.6228
19340TIP3   OH279434   6.418   2.757  13.377  0.2678 -0.0942 -0.6112
19340TIP3    H179435   6.348   2.735  13.317 -0.2792 -1.0011  0.3359
19340TIP3    H279436   6.453   2.672  13.405  0.3754  0.3018  0.4937
19341TIP3   OH279437   5.828   1.762  11.957  0.5412  0.5399  0.4019
19341TIP3    H179438   5.883   1.823  12.006  0.5660  1.6501 -0.9844
19341TIP3    H279439   5.763   1.818  11.915  1.8723 -0.1473 -2.6464
19342TIP3   OH279440   0.246   5.191   6.120  0.3761  0.3246  0.1700
19342TIP3    H179441   0.319   5.141   6.155  0.2781 -1.2733 -1.8094
19342TIP3    H279442   0.244   5.169   6.026 -3.1993 -0.4370  0.3363
19343TIP3   OH279443   5.422   3.322   4.292 -0.5674 -0.6102  0.0997
19343TIP3    H179444   5.454   3.284   4.211  0.0369 -0.7784  0.4142
19343TIP3    H279445   5.373   3.251   4.334 -0.7057 -0.5848 -0.0153
19344TIP3   OH279446   4.824   1.687   5.771 -0.0717  0.4484  0.2053
19344TIP3    H179447   4.736   1.700   5.736  0.2511  1.2948 -0.3254
19344TIP3    H279448   4.811   1.643   5.855 -1.2349  3.7016  1.8360
19345TIP3   OH279449   4.223   5.040  11.487 -0.1647 -0.1378  0.0269
19345TIP3    H179450   4.258   4.963  11.442  0.7484  0.1256  0.2846
19345TIP3    H279451   4.257   5.114  11.436 -1.0222  0.0985 -0.2100
19346TIP3   OH279452   1.156   6.559  11.245 -0.2588  0.2806  0.5757
19346TIP3    H179453   1.167   6.534  11.153  1.6652  0.9681  0.5802
19346TIP3    H279454   1.136   6.478  11.290 -0.7440 -0.1451 -0.3896
19347TIP3   OH279455   5.882   3.024  11.900 -0.2543  0.2405  0.4635
19347TIP3    H179456   5.925   3.099  11.859  0.5993  0.4560  1.7045
19347TIP3    H279457   5.858   3.055  11.987 -2.0478 -0.2038  0.1454
19348TIP3   OH279458   3.288   2.253   1.299 -0.0133  0.2089  0.3008
19348TIP3    H179459   3.330   2.214   1.223 -0.7414 -0.7458  0.3797
19348TIP3    H279460   3.360   2.267   1.361  0.4921  0.4463 -0.3355
19349TIP3   OH279461   5.169   1.869  14.952  0.0680 -0.3471 -0.5318
19349TIP3    H179462   5.081   1.903  14.936  0.3232  0.7339  0.2532
19349TIP3    H279463   5.227   1.933  14.910  0.5543  0.1604  0.8819
19350TIP3   OH279464   2.019   0.765   0.308  0.4941  0.3844  0.2803
19350TIP3    H179465   1.994   0.857   0.296 -2.0042 -0.3539 -0.3352
19350TIP3    H279466   1.936   0.717   0.311  1.7486 -1.8116  1.0869
19351TIP3   OH279467   3.245   1.990   0.721  0.2861 -0.3186 -0.4537
19351TIP3    H179468   3.262   2.019   0.632 -1.9719  0.0050 -0.7954
19351TIP3    H279469   3.271   1.898   0.722  0.7761 -0.1941 -1.2907
19352TIP3   OH279470   4.131   0.349  15.072  0.2582 -0.1913 -0.2814
19352TIP3    H179471   4.193   0.382  15.137  1.8259 -0.0916 -1.8069
19352TIP3    H279472   4.072   0.292  15.122 -0.7740  2.6459  1.8679
19353TIP3   OH279473   0.773   1.432  11.067  0.2661 -0.4165  0.0165
19353TIP3    H179474   0.792   1.494  10.997  1.0765 -1.2085 -0.4801
19353TIP3    H279475   0.800   1.477  11.147  0.7400 -0.0833 -0.3283
19354TIP3   OH279476   3.455   1.098   0.883 -0.1546 -0.0362  0.1031
19354TIP3    H179477   3.401   1.131   0.955 -0.7481 -2.0043  0.6114
19354TIP3    H279478   3.521   1.044   0.926  0.3937 -0.0237 -0.7271
19355TIP3   OH279479   1.798   4.778  11.585  0.0003  0.0376 -0.7770
19355TIP3    H179480   1.713   4.760  11.544 -0.5995  2.4023 -0.6420
19355TIP3    H279481   1.801   4.874  11.594  2.1159 -0.1045  0.4407
19356TIP3   OH279482   5.753   3.337   4.709 -0.2654  0.6818  0.1059
19356TIP3    H179483   5.700   3.349   4.787 -0.6498  1.1125 -0.2203
19356TIP3    H279484   5.690   3.328   4.638 -0.0192 -2.6044  0.2201
19357TIP3   OH279485   2.120   4.527  15.825  0.5480  0.1762  0.2320
19357TIP3    H179486   2.106   4.457  15.888 -0.6340 -0.0634 -0.2767
19357TIP3    H279487   2.174   4.487  15.757  0.2832 -0.1021  0.1830
19358TIP3   OH279488   3.882   2.727   5.857  0.1331  0.1695  0.0009
19358TIP3    H179489   3.973   2.753   5.838  0.8506 -2.5406 -0.5266
19358TIP3    H279490   3.873   2.738   5.951  0.4966  1.9492 -0.1536
19359TIP3   OH279491   1.323   4.237   4.057  0.0748 -0.1528  0.3328
19359TIP3    H179492   1.376   4.210   3.981 -0.5586 -1.2886  0.2876
19359TIP3    H279493   1.253   4.290   4.019  2.2098  2.9427  0.5773
19360TIP3   OH279494   3.199   4.206  16.707 -0.4303  0.5282  0.3960
19360TIP3    H179495   3.233   4.133  16.759  0.9683 -0.1925 -1.4418
19360TIP3    H279496   3.104   4.196  16.710 -0.3673  0.5969  2.9033
19361TIP3   OH279497   4.326   1.536   5.450  0.1654 -0.0482  0.3395
19361TIP3    H179498   4.362   1.607   5.502 -1.2035  0.5571  0.4912
19361TIP3    H279499   4.236   1.525   5.482  0.0060 -1.1104 -0.4202
19362TIP3   OH279500   5.685   2.383  14.125 -0.5960 -0.6377 -0.4028
19362TIP3    H179501   5.774   2.373  14.092 -1.1904 -0.4142 -2.1120
19362TIP3    H279502   5.687   2.467  14.172  0.1777 -0.7845 -0.1728
19363TIP3   OH279503   4.914   2.558  13.412  0.2270 -0.0349  0.0942
19363TIP3    H179504   4.997   2.512  13.400  0.8522  1.5827 -1.9837
19363TIP3    H279505   4.934   2.630  13.472 -0.0952 -0.7015  1.0149
19364TIP3   OH279506   1.000   3.349   5.268  0.1117 -0.3362 -0.1925
19364TIP3    H179507   1.076   3.405   5.287 -0.6394  0.5126  0.3645
19364TIP3    H279508   0.938   3.407   5.224 -0.8324 -0.6145  0.7482
19365TIP3   OH279509   3.420   4.547   0.195 -0.0683  0.2471  0.2047
19365TIP3    H179510   3.353   4.606   0.162 -0.1245  0.5102  0.7790
19365TIP3    H279511   3.503   4.587   0.168 -0.1502 -0.1852 -0.6769
19366TIP3   OH279512   1.751   3.264  14.596 -0.2977 -0.1405  0.1288
19366TIP3    H179513   1.661   3.295  14.589 -0.5355 -0.9905 -0.7329
19366TIP3    H279514   1.805   3.343  14.590 -0.9354  0.2325 -0.8451
19367TIP3   OH279515   1.845   6.068  15.112  0.8133 -0.4623  0.2021
19367TIP3    H179516   1.848   6.003  15.183  0.5378 -2.6454 -1.7027
19367TIP3    H279517   1.751   6.083  15.098  0.8469 -0.6829 -0.2591
19368TIP3   OH279518   3.597   5.838   5.032 -0.2763 -0.2388 -0.1818
19368TIP3    H179519   3.651   5.848   4.954 -2.2374  0.5108 -1.4952
19368TIP3    H279520   3.518   5.888   5.013 -0.7706 -0.0032  2.3236
19369TIP3   OH279521   0.500   4.303  14.756  0.1520 -0.6175 -0.1963
19369TIP3    H179522   0.406   4.305  14.776 -0.3340  0.4552 -2.4085
19369TIP3    H279523   0.536   4.380  14.802 -0.7036  1.0317 -2.2111
19370TIP3   OH279524   4.518   4.790  15.581  0.3096 -0.2009 -0.1819
19370TIP3    H179525   4.562   4.802  15.497  0.7098 -0.5966 -0.0281
19370TIP3    H279526   4.526   4.875  15.625  0.0587  0.0221 -0.5583
19371TIP3   OH279527   1.379   5.597  12.604  0.3697 -0.1755 -0.3606
19371TIP3    H179528   1.425   5.519  12.633  2.1355  1.1083  0.3720
19371TIP3    H279529   1.355   5.643  12.685 -0.7209  0.0076 -0.7759
19372TIP3   OH279530   3.084   4.381  16.361 -0.0983 -0.2958 -0.8020
19372TIP3    H179531   3.011   4.334  16.402  1.0271 -1.0899  0.3301
19372TIP3    H279532   3.134   4.416  16.435 -0.1913  1.5740 -1.6167
19373TIP3   OH279533   5.602   4.029  16.089 -0.5181 -0.3431  0.6807
19373TIP3    H179534   5.695   4.051  16.095 -1.1343  2.2809  1.0682
19373TIP3    H279535   5.569   4.036  16.178 -1.4740  0.5202  0.2618
19374TIP3   OH279536   0.384   5.851   2.411  0.5621  0.5151 -0.2245
19374TIP3    H179537   0.318   5.884   2.350 -0.3220 -0.9834 -0.1214
19374TIP3    H279538   0.357   5.760   2.428  1.7008  0.4155  1.1446
19375TIP3   OH279539   6.458   2.007   3.354  0.3870 -0.4144 -0.4810
19375TIP3    H179540   6.553   2.006   3.346  0.4031  0.6201 -0.5181
19375TIP3    H279541   6.439   2.089   3.401 -0.5917  0.1920 -1.9074
19376TIP3   OH279542   3.638   1.107  12.500  0.4318  0.2274  0.5658
19376TIP3    H179543   3.568   1.171  12.485  0.6723  0.3211 -0.1520
19376TIP3    H279544   3.699   1.120  12.427  0.2890 -1.0947  0.2055
19377TIP3   OH279545   2.058   6.047   4.494 -0.2823  0.0608 -0.5052
19377TIP3    H179546   2.152   6.032   4.484 -0.4237 -1.8749  0.7972
19377TIP3    H279547   2.018   5.993   4.426 -0.4568  0.9120 -1.0811
19378TIP3   OH279548   2.836   2.006   4.531  0.4639  0.1748 -0.0836
19378TIP3    H179549   2.929   1.992   4.552  0.1994  0.9378  1.6469
19378TIP3    H279550   2.795   1.922   4.550  1.1786 -0.9448 -3.2287
19379TIP3   OH279551   1.933   1.564   3.968  0.0169 -0.4174  0.0964
19379TIP3    H179552   2.004   1.531   3.913  0.1965  0.9608 -0.5264
19379TIP3    H279553   1.872   1.606   3.907  1.0846  2.6745  1.0491
19380TIP3   OH279554   5.653   3.054   3.419 -0.3897 -0.4719  0.0379
19380TIP3    H179555   5.704   2.975   3.400  0.0585  0.0305 -0.8727
19380TIP3    H279556   5.718   3.121   3.438 -0.7119  0.1670 -1.0998
19381TIP3   OH279557   4.927   0.480  15.248  0.0002  0.3632  0.4669
19381TIP3    H179558   4.865   0.550  15.229  0.8061  1.3584  1.4510
19381TIP3    H279559   4.935   0.432  15.166 -1.1568  0.9507  0.0064
19382TIP3   OH279560   4.106   0.047  16.658  0.2830  0.5225  0.1022
19382TIP3    H179561   4.177  -0.016  16.647 -1.1244 -1.2749  0.8811
19382TIP3    H279562   4.073   0.062  16.570 -0.3630 -1.0680  0.0519
19383TIP3   OH279563   2.175   3.920   4.057  0.0997 -0.2636 -0.3046
19383TIP3    H179564   2.159   3.967   4.139 -0.9622  1.9142 -1.6928
19383TIP3    H279565   2.112   3.849   4.057  1.4561 -1.5310  1.6554
19384TIP3   OH279566   1.693   3.028   2.039  0.0036 -0.0503  0.3766
19384TIP3    H179567   1.634   3.080   2.094 -1.2277 -3.2758  2.2282
19384TIP3    H279568   1.653   3.030   1.952 -0.8372  0.8449  0.7772
19385TIP3   OH279569   5.294   6.291   5.175  0.4225  0.1838 -0.0455
19385TIP3    H179570   5.379   6.259   5.205  0.3120 -0.2234 -0.1528
19385TIP3    H279571   5.276   6.369   5.228  1.6256  1.2383 -1.1499
19386TIP3   OH279572   5.286   1.181  12.974  0.1648 -0.7782  0.2926
19386TIP3    H179573   5.284   1.086  12.988  2.2930 -1.1307 -1.5786
19386TIP3    H279574   5.194   1.207  12.973 -0.4954 -3.0156 -0.4779
19387TIP3   OH279575   0.204   3.960   0.224 -0.2051 -0.4406  0.3105
19387TIP3    H179576   0.127   4.012   0.245  0.5641  0.5064  0.8441
19387TIP3    H279577   0.230   3.921   0.307  0.5429  0.1574  0.3657
19388TIP3   OH279578   6.521   4.714  16.456  0.0458 -0.1494  0.5213
19388TIP3    H179579   6.521   4.696  16.362  1.2340  2.1515  0.0275
19388TIP3    H279580   6.453   4.780  16.467  0.2156 -0.0863  1.1965
19389TIP3   OH279581   5.112   6.062  16.047 -0.1430  0.4221 -0.5326
19389TIP3    H179582   5.045   5.994  16.041 -1.0558  1.1895  0.5979
19389TIP3    H279583   5.116   6.098  15.958 -1.3627  0.4708 -0.5871
19390TIP3   OH279584   4.141   4.226   2.079 -0.5953 -0.1248  0.2408
19390TIP3    H179585   4.164   4.273   2.159 -0.4825  0.5508 -0.1856
19390TIP3    H279586   4.109   4.294   2.019 -0.2149 -0.5541 -0.4571
19391TIP3   OH279587   6.505   0.379  12.291 -0.0715  0.2423  0.4027
19391TIP3    H179588   6.477   0.395  12.201  1.5543 -1.3885 -0.4210
19391TIP3    H279589   6.503   0.283  12.300  1.7116  0.2788  1.4417
19392TIP3   OH279590   3.634   0.281   1.725  0.0731 -0.1735  0.0539
19392TIP3    H179591   3.555   0.325   1.693  0.9943  1.2653 -0.3128
19392TIP3    H279592   3.621   0.273   1.819 -0.5713 -0.0636 -0.0268
19393TIP3   OH279593   0.545   3.359  12.943 -0.0094 -0.1936  0.1725
19393TIP3    H179594   0.498   3.401  12.871  0.9487  0.4291 -0.1153
19393TIP3    H279595   0.513   3.269  12.944 -0.8476  0.0926 -0.3127
19394TIP3   OH279596   5.946   4.470   2.306 -0.1730  0.1607  0.6315
19394TIP3    H179597   5.851   4.476   2.292 -0.1871 -1.0345  0.1578
19394TIP3    H279598   5.984   4.513   2.230 -0.3284 -0.6750  0.0704
19395TIP3   OH279599   4.886   6.207  12.297 -0.9228  0.3296  0.2059
19395TIP3    H179600   4.800   6.249  12.305 -1.3330 -0.4020 -0.2446
19395TIP3    H279601   4.935   6.262  12.236 -1.2054  0.5487  0.1766
19396TIP3   OH279602   0.437   3.494   4.896  0.0184  0.1328 -0.6492
19396TIP3    H179603   0.417   3.498   4.803  0.2495  3.1183 -0.6092
19396TIP3    H279604   0.378   3.558   4.937 -0.5097 -1.5652  1.3538
19397TIP3   OH279605   0.188   0.489  15.835 -0.3243 -0.5230  0.2632
19397TIP3    H179606   0.233   0.442  15.765 -0.2826 -0.3745  0.1896
19397TIP3    H279607   0.097   0.496  15.805 -0.1235  0.2838 -0.1628
19398TIP3   OH279608   3.041   0.868  10.361  0.7573  0.0453 -0.1304
19398TIP3    H179609   3.039   0.816  10.441 -0.0685  1.1318  0.5659
19398TIP3    H279610   3.130   0.855  10.327  0.7902 -1.2388  0.4031
19399TIP3   OH279611   0.536   4.565   4.230 -0.2574 -0.1596 -0.4531
19399TIP3    H179612   0.630   4.570   4.249 -0.2355 -1.4631 -0.1815
19399TIP3    H279613   0.523   4.625   4.157  0.7510  0.1570 -0.3867
19400TIP3   OH279614   4.568   6.761  14.755  0.0486 -0.1019  0.8280
19400TIP3    H179615   4.645   6.818  14.758  0.9173 -1.1890 -0.4025
19400TIP3    H279616   4.526   6.780  14.671  0.3683 -1.2872  0.3860
19401TIP3   OH279617   0.968   4.814   6.086  0.2083  0.3574 -0.2423
19401TIP3    H179618   0.961   4.784   6.177  0.7478 -0.0427 -0.3302
19401TIP3    H279619   1.022   4.892   6.091  0.5968  0.0922 -0.2681
19402TIP3   OH279620   5.282   1.612  12.088  0.4272 -0.3259  0.2755
19402TIP3    H179621   5.351   1.636  12.150 -0.3435  0.9017  0.6742
19402TIP3    H279622   5.301   1.666  12.011 -0.2004  0.1632  0.4636
19403TIP3   OH279623   5.268   2.542  15.866  0.2227 -0.0013 -0.0993
19403TIP3    H179624   5.335   2.579  15.809 -0.5057 -1.7937 -2.1577
19403TIP3    H279625   5.185   2.560  15.821 -0.6179  1.1099  1.8220
19404TIP3   OH279626   3.734   0.550   3.038  0.4227 -0.1802 -0.4717
19404TIP3    H179627   3.667   0.522   3.100  0.2637  1.8111  0.3193
19404TIP3    H279628   3.809   0.493   3.056 -0.1786 -0.6859  0.4501
19405TIP3   OH279629   0.745   1.349  12.408  0.2382 -0.2140  0.6692
19405TIP3    H179630   0.808   1.299  12.460 -0.1401 -0.7617  0.6080
19405TIP3    H279631   0.775   1.440  12.414  0.4769 -0.3425  1.4351
19406TIP3   OH279632   3.315   1.330   0.067  0.7252 -0.2465  0.0359
19406TIP3    H179633   3.322   1.416   0.027  0.0676  0.2714  1.0100
19406TIP3    H279634   3.369   1.335   0.146 -1.7767  0.2959  1.7690
19407TIP3   OH279635   4.283   2.577  12.091  0.2000  0.5294 -0.1399
19407TIP3    H179636   4.216   2.623  12.143 -1.2120  1.0823 -2.3654
19407TIP3    H279637   4.333   2.648  12.050 -0.3402  0.1094 -1.5473
19408TIP3   OH279638   1.558   1.234  15.291 -0.1019  0.1552 -0.1136
19408TIP3    H179639   1.469   1.267  15.277 -0.2221 -0.0389  0.1967
19408TIP3    H279640   1.596   1.232  15.203 -0.4859  0.0035 -0.2791
19409TIP3   OH279641   1.757   4.392  14.243 -0.0795  0.0666 -0.3914
19409TIP3    H179642   1.707   4.455  14.296 -1.4181 -1.0615 -0.2929
19409TIP3    H279643   1.757   4.429  14.155 -0.5112  0.4093 -0.2455
19410TIP3   OH279644   1.123   0.686  11.974  0.5541  0.2635 -0.9367
19410TIP3    H179645   1.058   0.623  11.943 -0.6969  1.3916 -0.6786
19410TIP3    H279646   1.075   0.741  12.036  2.3900 -0.4120  1.1678
19411TIP3   OH279647   2.607   2.556  12.332 -0.3648 -0.1751 -0.0372
19411TIP3    H179648   2.688   2.530  12.377 -0.6402 -1.5378 -0.2943
19411TIP3    H279649   2.637   2.605  12.256  0.1554  0.7668  0.7571
19412TIP3   OH279650   2.831   1.803  11.596 -1.0191 -0.1731 -0.1099
19412TIP3    H179651   2.737   1.823  11.590 -1.3142 -1.1325  1.1717
19412TIP3    H279652   2.842   1.724  11.543 -0.2575  1.9197 -3.2600
19413TIP3   OH279653   1.573   3.987  16.564  0.6145 -0.0280 -0.2841
19413TIP3    H179654   1.543   4.034  16.642  0.9635 -0.8410  0.3454
19413TIP3    H279655   1.497   3.987  16.505  0.3225  0.5100  0.0859
19414TIP3   OH279656   2.382   1.840  13.259 -0.2458 -0.5228 -0.1480
19414TIP3    H179657   2.393   1.769  13.196 -2.4451 -2.2059  1.2536
19414TIP3    H279658   2.291   1.868  13.248 -0.8076 -1.1419  2.5045
19415TIP3   OH279659   6.109   6.726  15.084 -0.7710 -0.3700 -0.0473
19415TIP3    H179660   6.157   6.677  15.018 -1.1330 -0.3326 -0.3382
19415TIP3    H279661   6.154   6.706  15.166  0.2441  0.3068 -0.4343
19416TIP3   OH279662   4.689   6.588  13.690  0.0604  0.2374  0.2479
19416TIP3    H179663   4.643   6.584  13.606 -0.7042 -0.0000  0.6687
19416TIP3    H279664   4.781   6.599  13.667 -0.3101  1.7496 -0.5996
19417TIP3   OH279665   1.326   6.383   3.892 -0.3031 -0.3197  0.3855
19417TIP3    H179666   1.376   6.459   3.862 -2.3414  0.0552 -2.2653
19417TIP3    H279667   1.321   6.325   3.816 -4.7226  0.1496  0.1714
19418TIP3   OH279668   3.039   0.425  12.902  0.6467 -0.2336 -0.0438
19418TIP3    H179669   2.998   0.486  12.965 -0.5316 -0.3416 -0.6893
19418TIP3    H279670   3.005   0.453  12.817  1.9826 -0.3030 -0.5995
19419TIP3   OH279671   2.518   2.197  11.943 -0.2329 -0.0696 -0.0967
19419TIP3    H179672   2.566   2.219  12.022  0.7830 -0.5339 -0.5732
19419TIP3    H279673   2.508   2.101  11.946  1.1820 -0.2673 -1.2914
19420TIP3   OH279674   4.893   4.658  11.202  0.6635  0.3516 -0.4199
19420TIP3    H179675   4.896   4.710  11.122 -0.3694 -0.4509 -0.9878
19420TIP3    H279676   4.958   4.589  11.188  0.7830  0.4564 -0.3876
19421TIP3   OH279677   2.730   1.434   3.448  0.1373 -0.0965  0.2556
19421TIP3    H179678   2.676   1.355   3.455 -0.6666  0.4427  0.0958
19421TIP3    H279679   2.694   1.482   3.374  0.8283  0.2774  0.1563
19422TIP3   OH279680   6.630   0.915  16.720  0.1746  0.1433  0.2245
19422TIP3    H179681   6.639   0.986  16.658  0.5320  0.9398  1.1747
19422TIP3    H279682   6.536   0.897  16.724  0.1391  0.1916 -0.4185
19423TIP3   OH279683   4.890   4.479   2.048  1.0422 -0.3712  0.0789
19423TIP3    H179684   4.861   4.406   1.994 -0.0485 -0.0831  0.2743
19423TIP3    H279685   4.810   4.526   2.071  1.6861  0.6014  0.3728
19424TIP3   OH279686   1.177   6.008  12.831  0.4494  0.1955 -0.6567
19424TIP3    H179687   1.179   6.073  12.760  0.4366 -1.7473 -2.5090
19424TIP3    H279688   1.265   5.972  12.833  0.4467  0.2500  0.3351
19425TIP3   OH279689   3.181   6.603   1.865  0.0525 -0.3123  0.1707
19425TIP3    H179690   3.190   6.509   1.855  3.6811 -0.1142  0.7564
19425TIP3    H279691   3.166   6.636   1.777  0.9753 -1.2426 -0.3360
19426TIP3   OH279692   4.048   2.417   1.273  0.3073  0.1187  0.7732
19426TIP3    H179693   4.134   2.433   1.311  1.3437 -3.2642 -0.0131
19426TIP3    H279694   4.034   2.323   1.281 -2.4231  0.2884 -0.9874
19427TIP3   OH279695   5.472   4.375  11.422  0.0412 -0.3260 -0.9739
19427TIP3    H179696   5.444   4.286  11.402  1.7526 -1.4525  1.3234
19427TIP3    H279697   5.429   4.396  11.505  2.7702 -0.6413  0.6170
19428TIP3   OH279698   5.573   3.658   4.254 -0.5700  0.2047 -0.1311
19428TIP3    H179699   5.532   3.701   4.329 -1.5809 -0.7144 -0.1524
19428TIP3    H279700   5.502   3.649   4.190  0.2747  0.9455 -1.1906
19429TIP3   OH279701   0.910   0.499   1.210 -0.2630 -1.0674  0.6646
19429TIP3    H179702   0.932   0.492   1.303  0.4330 -0.9985  0.5080
19429TIP3    H279703   0.880   0.589   1.199 -0.4485 -1.1082  0.8503
19430TIP3   OH279704   2.108   3.768   2.818  0.5410  0.0128  0.2113
19430TIP3    H179705   2.202   3.787   2.814 -0.0443  2.6762 -2.5542
19430TIP3    H279706   2.069   3.851   2.847 -1.1617 -0.3214 -1.0888
19431TIP3   OH279707   0.740   5.033   4.446 -0.2790 -0.1762  0.3903
19431TIP3    H179708   0.740   5.127   4.427 -0.1870 -0.0254  1.1083
19431TIP3    H279709   0.651   5.004   4.425 -0.5697  0.2536  1.0233
19432TIP3   OH279710   3.027   5.327  15.918 -0.0276 -0.4148 -0.0298
19432TIP3    H179711   3.032   5.310  15.824 -0.2681  0.0790 -0.1321
19432TIP3    H279712   2.964   5.261  15.950  0.1544 -0.6691 -0.1910
19433TIP3   OH279713   6.240   1.127   2.715  0.1202  0.3681  0.5037
19433TIP3    H179714   6.220   1.131   2.809 -1.0352 -1.9049  0.3883
19433TIP3    H279715   6.332   1.152   2.709  0.3133  0.1681  2.2797
19434TIP3   OH279716   1.428   0.253   1.471 -0.4827  0.0160 -0.0131
19434TIP3    H179717   1.360   0.189   1.493  0.1011 -0.4742  0.3703
19434TIP3    H279718   1.381   0.337   1.467 -0.9855 -0.2187  0.9008
19435TIP3   OH279719   3.071   4.586  13.218  0.0712 -0.0062 -0.0959
19435TIP3    H179720   3.057   4.669  13.172  0.0448 -0.4673 -0.9084
19435TIP3    H279721   3.163   4.588  13.243  0.1732  0.0786 -0.4812
19436TIP3   OH279722   4.127   4.980  13.586  0.5083 -0.0285 -0.5843
19436TIP3    H179723   4.114   5.065  13.628 -1.4497  0.5485 -2.2319
19436TIP3    H279724   4.163   4.924  13.654 -0.9700  1.3350  1.3768
19437TIP3   OH279725   0.151   0.271  12.278  0.1578  0.0246  0.2181
19437TIP3    H179726   0.095   0.273  12.356  0.6414  0.5678  0.5516
19437TIP3    H279727   0.089   0.266  12.204 -0.3038 -0.3066  0.6251
19438TIP3   OH279728   5.921   1.381   3.808  0.7697 -0.4572  0.6990
19438TIP3    H179729   5.931   1.326   3.731 -0.5449 -0.3506  0.4524
19438TIP3    H279730   6.008   1.381   3.848  1.1669 -1.4472 -0.1399
19439TIP3   OH279731   5.747   3.114   5.003  0.3335  0.3985  0.2346
19439TIP3    H179732   5.759   3.129   5.097  1.0479  1.4556 -0.0233
19439TIP3    H279733   5.799   3.036   4.985 -0.2472 -0.1341  0.8126
19440TIP3   OH279734   0.676   6.498  15.781  0.7743 -0.0874 -0.2527
19440TIP3    H179735   0.614   6.451  15.725  1.3116 -1.2683  0.1323
19440TIP3    H279736   0.758   6.449  15.774  0.7598 -0.4743  1.8166
19441TIP3   OH279737   4.191   4.245  11.761 -0.6622  0.3578  0.4891
19441TIP3    H179738   4.149   4.187  11.698  2.0535 -0.9339 -0.2236
19441TIP3    H279739   4.170   4.208  11.846  0.5182 -1.3459  0.0608
19442TIP3   OH279740   4.453   0.578   0.141  0.2362 -0.1867  0.2158
19442TIP3    H179741   4.375   0.634   0.145 -0.4242 -1.1999  2.5267
19442TIP3    H279742   4.418   0.491   0.123  0.8153 -0.6691  1.4101
19443TIP3   OH279743   3.389   6.618   1.593 -0.3302 -0.2460 -0.2271
19443TIP3    H179744   3.318   6.650   1.537  0.4143  1.6389 -0.1449
19443TIP3    H279745   3.400   6.687   1.658  3.4843  0.8478 -1.9225
19444TIP3   OH279746   2.733   2.408   2.658  0.1158  0.0840 -0.1112
19444TIP3    H179747   2.791   2.340   2.624  0.6127 -1.1579  3.0577
19444TIP3    H279748   2.792   2.476   2.690 -0.3368  1.1159 -1.4172
19445TIP3   OH279749   2.662   4.871   6.140  0.1796  0.1461 -0.7752
19445TIP3    H179750   2.705   4.792   6.107  0.0489 -0.5609  0.7010
19445TIP3    H279751   2.580   4.876   6.090 -0.1214 -1.0262 -0.4139
19446TIP3   OH279752   0.021   0.256  12.802 -0.1136 -0.0564 -0.3411
19446TIP3    H179753  -0.051   0.198  12.775  0.6605 -1.0817 -0.2048
19446TIP3    H279754   0.099   0.203  12.794  0.6794  1.1433 -0.7407
19447TIP3   OH279755   4.367   2.014   3.939  0.5147  0.7953 -0.6641
19447TIP3    H179756   4.286   1.982   3.978  0.3888  0.8641 -0.8668
19447TIP3    H279757   4.414   1.935   3.913  1.1113  0.7012  0.6381
19448TIP3   OH279758   5.630   3.131   1.745 -0.5444 -0.5077  0.6113
19448TIP3    H179759   5.719   3.112   1.774 -0.5367 -0.6502  0.4990
19448TIP3    H279760   5.578   3.060   1.782 -0.6223 -0.3820  0.7398
19449TIP3   OH279761   1.569   4.045   2.270 -0.0572 -0.6494 -0.3652
19449TIP3    H179762   1.631   4.082   2.333 -1.3718  2.1429 -0.6760
19449TIP3    H279763   1.602   4.074   2.185 -2.3200  1.7620 -0.4755
19450TIP3   OH279764   1.753   3.260   0.021 -0.3371 -0.0602 -0.3512
19450TIP3    H179765   1.711   3.318  -0.042 -0.2379  2.1446  1.5412
19450TIP3    H279766   1.715   3.284   0.105  0.6414 -1.8823  0.6403
19451TIP3   OH279767   4.541   0.126  14.248 -0.6626 -0.2813 -0.4932
19451TIP3    H179768   4.509   0.062  14.184 -0.4325 -0.0873 -0.8045
19451TIP3    H279769   4.606   0.177  14.200 -0.8854  0.2220 -0.2577
19452TIP3   OH279770   2.682   1.596   4.020 -0.0352  0.1664  0.1971
19452TIP3    H179771   2.721   1.669   3.973  1.4733  0.6542  2.1210
19452TIP3    H279772   2.590   1.620   4.029  0.2412  1.3730 -0.0469
19453TIP3   OH279773   4.072   6.056   4.470  0.1012 -0.4062  0.4318
19453TIP3    H179774   3.980   6.065   4.495  0.4749  1.1173  1.3371
19453TIP3    H279775   4.120   6.056   4.553  0.8681 -1.8748 -0.0078
19454TIP3   OH279776   2.983   4.518   2.586 -0.2279  0.0883  0.8124
19454TIP3    H179777   2.901   4.486   2.550 -0.7406  0.9242  1.2461
19454TIP3    H279778   3.009   4.590   2.529 -0.1771  0.3019  1.0992
19455TIP3   OH279779   1.214   2.163  12.814  0.3500 -0.3430 -0.0194
19455TIP3    H179780   1.228   2.178  12.720  2.6154 -2.4463 -0.0942
19455TIP3    H279781   1.279   2.219  12.857 -0.2607  0.1457  0.2711
19456TIP3   OH279782   1.954   0.011  13.984  0.4468 -0.7877 -0.2957
19456TIP3    H179783   1.973  -0.079  13.958  0.4828 -1.0146  0.5181
19456TIP3    H279784   1.997   0.022  14.069  0.8792  0.1588 -0.6263
19457TIP3   OH279785   3.301   0.470   0.000  0.2902 -0.5197 -0.2388
19457TIP3    H179786   3.388   0.510   0.002  0.4340 -0.8242 -0.5628
19457TIP3    H279787   3.242   0.540   0.031  0.8230 -0.7611  1.3269
19458TIP3   OH279788   2.007   0.685  15.303  0.0705  0.1443 -0.2861
19458TIP3    H179789   1.918   0.714  15.282 -0.0561  1.6379  2.2114
19458TIP3    H279790   2.064   0.741  15.251 -0.4206 -1.9257 -3.2068
19459TIP3   OH279791   0.124   2.643  12.067  0.6549  0.0802 -0.4563
19459TIP3    H179792   0.198   2.683  12.112 -1.0299 -0.2970  2.8619
19459TIP3    H279793   0.132   2.550  12.087 -1.1966  0.1510  0.8101
19460TIP3   OH279794   5.460   5.242  13.224 -0.1126 -0.1436 -0.7178
19460TIP3    H179795   5.366   5.225  13.233  0.2374 -1.6974  0.2307
19460TIP3    H279796   5.501   5.158  13.246  1.5554  0.9453  0.4434
19461TIP3   OH279797   5.911   0.769  14.043  0.2363  0.1428 -0.6099
19461TIP3    H179798   5.925   0.684  14.084  1.5487  0.0052 -1.3167
19461TIP3    H279799   5.896   0.749  13.950 -0.5472  0.6054 -0.5888
19462TIP3   OH279800   3.167   2.998   0.100  0.6253  0.1991 -0.0622
19462TIP3    H179801   3.143   3.063   0.166  1.6860 -0.2672  0.8035
19462TIP3    H279802   3.125   2.917   0.130 -0.0502  0.3045 -0.7170
19463TIP3   OH279803   6.070   6.717   0.545  0.0310 -0.0107  0.1294
19463TIP3    H179804   6.161   6.740   0.561  0.0694 -1.1001  1.5321
19463TIP3    H279805   6.052   6.751   0.457  1.7889  0.1744 -0.1764
19464TIP3   OH279806   4.668   3.472   1.950  0.8597 -0.0936  0.0498
19464TIP3    H179807   4.748   3.429   1.982  1.6489  1.8777  0.7662
19464TIP3    H279808   4.655   3.434   1.863  1.9082 -1.2930  0.3843
19465TIP3   OH279809   2.023   1.867   2.226  0.7844  0.1825 -0.2148
19465TIP3    H179810   2.019   1.892   2.318  0.3831 -0.9140  0.0741
19465TIP3    H279811   2.113   1.889   2.199  0.2331  2.5769 -0.1870
19466TIP3   OH279812   5.994   5.747   2.092  0.8783  0.1502 -0.3532
19466TIP3    H179813   5.974   5.708   2.177  0.1503 -0.8334 -0.9628
19466TIP3    H279814   5.954   5.687   2.028 -0.2284  1.8573 -1.3080
19467TIP3   OH279815   3.985   6.240   4.879  0.2223 -0.3836 -0.4189
19467TIP3    H179816   3.976   6.145   4.872 -1.0756 -0.2651 -0.5053
19467TIP3    H279817   3.896   6.274   4.871  0.1956  0.6168  3.0971
19468TIP3   OH279818   5.249   1.452  15.130 -0.8914 -0.2556 -0.4902
19468TIP3    H179819   5.258   1.530  15.185 -2.7648  0.8351 -1.6444
19468TIP3    H279820   5.168   1.410  15.161 -0.2958 -1.3273 -0.3722
19469TIP3   OH279821   2.578   4.080   0.589  0.4302  0.0706 -0.7430
19469TIP3    H179822   2.582   4.102   0.682  0.6104  0.0710 -0.7510
19469TIP3    H279823   2.655   4.122   0.550  0.0125  0.6081 -1.0081
19470TIP3   OH279824   5.204   3.873   2.749 -0.4631 -0.6496  0.2408
19470TIP3    H179825   5.228   3.927   2.674 -1.8194  0.4701  0.5836
19470TIP3    H279826   5.204   3.784   2.716 -1.1197 -0.1576 -1.1160
19471TIP3   OH279827   6.629   6.388   1.691  0.1624 -0.0818  0.0167
19471TIP3    H179828   6.567   6.449   1.731  1.2851  0.2854  1.2272
19471TIP3    H279829   6.679   6.353   1.764 -1.1332 -3.2720 -0.5344
19472TIP3   OH279830   5.737   3.499   3.434  0.1247  0.1094  0.2775
19472TIP3    H179831   5.712   3.418   3.479  2.0528 -0.9552 -0.4988
19472TIP3    H279832   5.810   3.534   3.485 -0.5156  1.2285  0.4462
19473TIP3   OH279833   3.247   5.738  12.960 -0.0163  0.0642  0.6393
19473TIP3    H179834   3.339   5.762  12.954  0.1074 -0.5787 -0.2918
19473TIP3    H279835   3.203   5.816  12.993  1.0352 -0.0464  2.3181
19474TIP3   OH279836   1.217   5.413   0.368  0.1059 -0.6277  0.3612
19474TIP3    H179837   1.248   5.400   0.458 -0.2478 -1.4050  0.3691
19474TIP3    H279838   1.253   5.499   0.343  1.3700 -1.0331  0.7442
19475TIP3   OH279839   4.388   0.819   2.229 -0.6058  0.3685 -0.2174
19475TIP3    H179840   4.361   0.760   2.300  1.5302  1.7077  1.7518
19475TIP3    H279841   4.440   0.764   2.171  1.6334  0.3155  1.7678
19476TIP3   OH279842   2.813   4.014   3.048 -0.0680 -0.0205 -0.1871
19476TIP3    H179843   2.882   4.008   2.982  1.2042  1.5763  0.9589
19476TIP3    H279844   2.848   3.967   3.124 -0.7929 -0.3580 -0.0569
19477TIP3   OH279845   3.128   4.172  15.133 -0.6594 -0.2246 -0.4882
19477TIP3    H179846   3.078   4.101  15.174 -2.1129  0.5268 -0.9306
19477TIP3    H279847   3.220   4.149  15.150 -1.0372 -2.8771 -1.7327
19478TIP3   OH279848   3.867   1.593   4.740  0.0394 -0.2989 -0.6083
19478TIP3    H179849   3.788   1.544   4.715 -1.0698  1.1837 -0.0730
19478TIP3    H279850   3.926   1.526   4.774 -2.2011 -1.0682  1.9852
19479TIP3   OH279851   4.476   3.418  12.402  0.2217 -0.2480 -0.0278
19479TIP3    H179852   4.393   3.465  12.412 -0.7541 -2.1006  0.6509
19479TIP3    H279853   4.497   3.427  12.309  0.6383  2.4885  0.2897
19480TIP3   OH279854   5.843   2.537  11.178 -0.5293 -0.2538 -0.3073
19480TIP3    H179855   5.872   2.551  11.088  0.2067  0.6806  0.0641
19480TIP3    H279856   5.922   2.548  11.231 -1.2459  0.7055  0.5822
19481TIP3   OH279857   1.792   3.222  16.399 -0.0049 -0.1480  0.1855
19481TIP3    H179858   1.711   3.239  16.351 -0.3253  1.7638  1.3676
19481TIP3    H279859   1.861   3.257  16.343 -0.1491 -0.1214  0.0272
19482TIP3   OH279860   0.145   1.285   4.086 -0.1587  0.4689 -0.1673
19482TIP3    H179861   0.225   1.280   4.035 -0.4775 -0.8313 -0.5581
19482TIP3    H279862   0.169   1.252   4.173 -0.1897  0.4083 -0.1817
19483TIP3   OH279863   5.527   0.391   1.519 -0.2053 -0.0600 -0.6196
19483TIP3    H179864   5.588   0.372   1.589  0.3560 -0.0122 -1.0916
19483TIP3    H279865   5.570   0.459   1.467 -1.0749  0.6687 -0.4050
19484TIP3   OH279866   3.958   2.150  15.251 -0.6975 -0.1191 -0.4684
19484TIP3    H179867   3.891   2.176  15.188  0.6052  1.0755 -1.4014
19484TIP3    H279868   3.953   2.215  15.320 -0.4013  0.0600 -0.6142
19485TIP3   OH279869   4.646   5.525   5.015  0.3166  0.4304 -0.6434
19485TIP3    H179870   4.613   5.604   5.057 -2.5717 -1.1309  0.1128
19485TIP3    H279871   4.694   5.479   5.085 -2.5797 -1.0709  0.4106
19486TIP3   OH279872   1.346   4.754   4.512  0.2804  0.2455  0.3893
19486TIP3    H179873   1.437   4.725   4.509  1.0027  2.2891  1.1724
19486TIP3    H279874   1.296   4.675   4.531  2.0932 -0.5631  2.0121
19487TIP3   OH279875   6.144   1.178   0.558  0.3350  0.3245  0.2204
19487TIP3    H179876   6.114   1.177   0.649  1.0381 -1.9872  0.4636
19487TIP3    H279877   6.196   1.099   0.549  1.2288  1.1091 -1.9006
19488TIP3   OH279878   5.465   6.408  13.452  0.0055 -0.1043 -0.0979
19488TIP3    H179879   5.447   6.412  13.358  1.2211 -0.1458 -0.3424
19488TIP3    H279880   5.549   6.453  13.462  1.0778 -2.1679  0.6224
19489TIP3   OH279881   2.593   5.849   1.878 -0.3796 -0.5656 -0.3143
19489TIP3    H179882   2.604   5.755   1.893 -0.7639 -0.5768 -0.1072
19489TIP3    H279883   2.501   5.859   1.855 -0.6283 -0.0811  0.8585
19490TIP3   OH279884   0.676   4.214   4.990 -0.4667  0.5446  0.0893
19490TIP3    H179885   0.659   4.196   4.898 -0.9259 -1.2597  0.4945
19490TIP3    H279886   0.761   4.174   5.007 -1.1235 -0.5796  0.8252
19491TIP3   OH279887   1.997   2.223   0.308  0.1540 -0.3444 -0.8262
19491TIP3    H179888   2.092   2.226   0.319  0.3028  0.0791 -2.1550
19491TIP3    H279889   1.984   2.229   0.214 -1.1753 -1.0017 -0.6886
19492TIP3   OH279890   2.297   1.577  12.445  0.0499 -0.0620  0.0823
19492TIP3    H179891   2.340   1.540  12.368  0.4408 -1.4638  0.9645
19492TIP3    H279892   2.346   1.658  12.463  0.4780 -0.1558 -0.6363
19493TIP3   OH279893   5.646   3.088   2.122  0.4228  0.2554 -0.2272
19493TIP3    H179894   5.697   3.168   2.106  0.1398  0.3679 -0.5784
19493TIP3    H279895   5.705   3.032   2.172  1.3207 -0.0843 -1.6323
19494TIP3   OH279896   0.429   4.218   3.266 -0.2536 -0.5112 -0.6405
19494TIP3    H179897   0.416   4.288   3.202  1.7295  1.4835  1.0570
19494TIP3    H279898   0.516   4.184   3.248  1.2373  1.5497  2.2958
19495TIP3   OH279899   5.387   0.476   0.847  0.0346 -0.5843  0.2588
19495TIP3    H179900   5.344   0.496   0.764  0.8695 -1.0069 -0.2840
19495TIP3    H279901   5.451   0.408   0.825  1.4997  0.5695  0.9122
19496TIP3   OH279902   3.263   6.039  12.928  0.2385  0.0691  0.0721
19496TIP3    H179903   3.257   6.110  12.992 -1.0289  0.0606 -0.0138
19496TIP3    H279904   3.356   6.031  12.908  0.6116  0.3187  1.6388
19497TIP3   OH279905   5.587   0.500  13.606 -0.4405  0.1655 -0.3443
19497TIP3    H179906   5.632   0.457  13.533 -2.0463 -0.4474 -1.0018
19497TIP3    H279907   5.535   0.568  13.565  0.8350  1.6889  0.5369
19498TIP3   OH279908   5.068   1.134  12.550  0.4194  0.1401  0.2840
19498TIP3    H179909   5.013   1.167  12.621  1.0688  2.5995 -0.3068
19498TIP3    H279910   5.157   1.136  12.586  0.5191 -0.4492  0.0626
19499TIP3   OH279911   2.192   1.953   0.726 -0.0789 -0.5447  0.0116
19499TIP3    H179912   2.127   1.979   0.791 -2.1724 -0.4153 -2.0413
19499TIP3    H279913   2.265   1.918   0.777 -1.5459 -0.2450  2.4090
19500TIP3   OH279914   0.249   2.746  16.536 -0.2931  0.0387  0.0735
19500TIP3    H179915   0.186   2.729  16.466 -1.3197  1.0097  0.7512
19500TIP3    H279916   0.286   2.832  16.513  0.3521 -0.2456  0.0191
19501TIP3   OH279917   5.282   1.135   4.955  0.5162  0.0051  0.2971
19501TIP3    H179918   5.277   1.090   4.870 -0.3136  0.5699  0.0488
19501TIP3    H279919   5.364   1.102   4.994  0.8384 -0.3534 -0.6614
19502TIP3   OH279920   4.222   5.568  16.917  0.3954 -0.7404 -0.4770
19502TIP3    H179921   4.149   5.549  16.858 -0.8081 -2.5025  1.5078
19502TIP3    H279922   4.183   5.621  16.987  1.5074  0.1641 -0.5305
19503TIP3   OH279923   1.371   2.790   4.490  0.0848 -0.5495  0.6390
19503TIP3    H179924   1.405   2.772   4.578 -0.0868  2.3951  1.3801
19503TIP3    H279925   1.276   2.780   4.499  0.0526 -0.0697  0.8368
19504TIP3   OH279926   0.379   0.449   5.607  0.2323  0.2124  0.4079
19504TIP3    H179927   0.407   0.538   5.630  1.4740 -0.2551  0.7493
19504TIP3    H279928   0.321   0.460   5.531  0.1563  1.3298  0.6261
19505TIP3   OH279929   2.038   4.845  15.027  0.0597 -0.0263 -0.2618
19505TIP3    H179930   1.977   4.835  15.100 -0.4738 -1.1184 -0.8556
19505TIP3    H279931   2.049   4.940  15.019  0.2853  0.0993  1.3592
19506TIP3   OH279932   3.005   2.156   0.496 -0.1624  0.3750 -0.1619
19506TIP3    H179933   2.918   2.132   0.462  0.2106  0.6536 -1.3488
19506TIP3    H279934   3.064   2.094   0.454  0.2902  0.6184  0.1226
19507TIP3   OH279935   6.717   6.445  14.621  0.2055 -0.8681 -0.2405
19507TIP3    H179936   6.666   6.458  14.541 -3.2235 -2.2745  1.6234
19507TIP3    H279937   6.691   6.517  14.678  1.4580 -0.7478  0.1844
19508TIP3   OH279938   4.076   4.770  14.804  0.0813  0.2652 -0.5482
19508TIP3    H179939   4.152   4.803  14.757  0.3770 -0.1958 -0.3978
19508TIP3    H279940   4.001   4.813  14.762  0.5765  2.6576  0.9149
19509TIP3   OH279941   2.337   3.269   0.938  0.3568  0.5091  0.1704
19509TIP3    H179942   2.342   3.180   0.974  0.1548 -0.0420 -1.1663
19509TIP3    H279943   2.362   3.259   0.846 -0.4507  1.7199 -0.1789
19510TIP3   OH279944   6.093   4.842  16.680 -0.5354  0.0215 -0.1119
19510TIP3    H179945   6.057   4.780  16.744 -1.0087  0.6501  0.2380
19510TIP3    H279946   6.039   4.921  16.690  0.2587  0.5990 -0.3409
19511TIP3   OH279947   0.398   4.505  12.544 -0.0533 -0.1859  0.1888
19511TIP3    H179948   0.368   4.416  12.524  0.4213 -0.3943  0.4037
19511TIP3    H279949   0.492   4.503  12.528 -0.1979  0.5740 -0.8455
19512TIP3   OH279950   4.701   5.611  11.653  0.1671 -0.0469  0.0420
19512TIP3    H179951   4.690   5.568  11.568 -0.0973  0.6665 -0.2885
19512TIP3    H279952   4.740   5.696  11.632  2.7376 -0.9768  0.8638
19513TIP3   OH279953   1.894   3.452  11.550 -0.1138 -0.2509  0.0595
19513TIP3    H179954   1.800   3.461  11.536 -0.1895 -1.4304 -0.2047
19513TIP3    H279955   1.904   3.443  11.645 -0.1827  0.7461  0.1717
19514TIP3   OH279956   2.269   1.143  15.147  0.0057  0.1840  0.0695
19514TIP3    H179957   2.240   1.053  15.164  4.0822 -1.8666 -3.0405
19514TIP3    H279958   2.362   1.144  15.170 -0.2292  4.0172  1.2629
19515TIP3   OH279959   6.780   0.618  13.449 -0.0041  0.1209  0.3275
19515TIP3    H179960   6.856   0.560  13.456 -1.4797 -1.9340 -0.1893
19515TIP3    H279961   6.776   0.641  13.356  0.3444  0.7620  0.4650
19516TIP3   OH279962   4.390   1.247  10.979  0.2632  0.7882  0.5527
19516TIP3    H179963   4.384   1.208  10.891  0.6292  2.5142 -0.2629
19516TIP3    H279964   4.432   1.180  11.032  0.5615 -0.0700 -0.7367
19517TIP3   OH279965   0.350   5.171   4.624  0.0358  0.5392 -0.4221
19517TIP3    H179966   0.276   5.204   4.572 -0.4713  0.4422  0.2318
19517TIP3    H279967   0.417   5.238   4.615 -0.8267  1.5478  0.5304
19518TIP3   OH279968   0.527   6.766  13.214  0.1427  0.2430 -0.3368
19518TIP3    H179969   0.546   6.852  13.251  1.4728 -1.3007  2.7093
19518TIP3    H279970   0.459   6.729  13.270  0.4436 -1.1679 -0.8797
19519TIP3   OH279971   0.516   5.648   0.604  0.7426 -0.0518 -0.2981
19519TIP3    H179972   0.548   5.668   0.516  0.7473 -1.4217 -0.6190
19519TIP3    H279973   0.582   5.684   0.663  0.8033  0.7553 -0.8527
19520TIP3   OH279974   4.244   2.611  12.733 -0.5722 -0.8446  0.1986
19520TIP3    H179975   4.254   2.701  12.701  1.6676 -1.7124 -1.6373
19520TIP3    H279976   4.270   2.616  12.825 -0.3973  0.3751  0.1004
19521TIP3   OH279977   5.841   5.935  14.708 -0.3984  0.3404  0.3334
19521TIP3    H179978   5.761   5.971  14.669  0.0210  1.7690  0.7877
19521TIP3    H279979   5.847   5.847  14.671 -2.7193 -0.1582  1.0509
19522TIP3   OH279980   4.990   3.859  13.085  0.4192  0.5306 -0.2833
19522TIP3    H179981   4.929   3.923  13.048  0.6390  0.7269 -0.3108
19522TIP3    H279982   5.077   3.899  13.073  0.5725  0.1430 -0.4693
19523TIP3   OH279983   6.378   3.155   1.786 -0.3474  0.0758  0.8081
19523TIP3    H179984   6.329   3.168   1.704 -0.5908  1.1551  1.1211
19523TIP3    H279985   6.383   3.242   1.825  2.2420  0.0857  0.5653
19524TIP3   OH279986   3.197   0.962  17.039 -0.2764  0.2025  0.8880
19524TIP3    H179987   3.121   0.904  17.037  1.5123 -2.1986 -0.7399
19524TIP3    H279988   3.208   0.984  17.131 -1.8445 -0.9231  1.3625
19525TIP3   OH279989   5.714   0.772  12.356 -0.8060  0.1511  0.0133
19525TIP3    H179990   5.694   0.849  12.303 -0.6096  0.7858  0.8580
19525TIP3    H279991   5.631   0.724  12.361 -0.4452 -0.7926 -2.2598
19526TIP3   OH279992   2.204   3.478  15.790  0.0436 -0.1894  0.0712
19526TIP3    H179993   2.174   3.405  15.736  0.7024 -1.0978  0.9097
19526TIP3    H279994   2.283   3.509  15.747  1.7835 -2.3090  1.6662
19527TIP3   OH279995   1.011   0.036  11.380  0.3332 -0.0911 -0.3389
19527TIP3    H179996   0.963  -0.037  11.339  0.8799 -0.7773  0.2204
19527TIP3    H279997   0.985   0.113  11.330 -1.3477 -0.4565 -0.0682
19528TIP3   OH279998   1.409   6.729   2.352  0.6586  0.5574 -0.3746
19528TIP3    H179999   1.406   6.638   2.323  0.8384  0.0611  1.1112
19528TIP3    H280000   1.484   6.766   2.305  1.5487 -0.4895  0.1708
19529TIP3   OH280001   0.540   5.889  15.598 -0.4100  0.3863 -0.4639
19529TIP3    H180002   0.610   5.824  15.603 -0.4996  0.3154 -0.1170
19529TIP3    H280003   0.543   5.934  15.682 -0.7663  0.3966 -0.4553
19530TIP3   OH280004   3.148   0.537  15.567 -0.4914 -0.3296  0.4724
19530TIP3    H180005   3.136   0.527  15.661 -2.2312  0.9230  0.4155
19530TIP3    H280006   3.241   0.520  15.552 -0.4321 -1.6480  2.2558
19531TIP3   OH280007   0.984   4.279  12.330 -0.7871  0.3425 -0.2468
19531TIP3    H180008   0.901   4.279  12.282 -0.7804 -1.4535 -0.2869
19531TIP3    H280009   1.005   4.186  12.341  0.9458  0.7789  0.2301
19532TIP3   OH280010   3.747   1.590  16.675  0.2880 -0.5874 -0.1331
19532TIP3    H180011   3.680   1.587  16.743  0.9267  1.2414  0.5995
19532TIP3    H280012   3.822   1.544  16.713  1.3889  2.2929  1.2712
19533TIP3   OH280013   0.318   2.760   1.548 -0.1155  0.1204  0.2223
19533TIP3    H180014   0.400   2.749   1.501  0.3132 -0.1344  1.0251
19533TIP3    H280015   0.278   2.673   1.547 -1.1546  0.5752 -1.5622
19534TIP3   OH280016   3.513   2.520   5.651 -0.0473 -0.4380 -0.0132
19534TIP3    H180017   3.586   2.573   5.619 -1.2141  0.9289 -0.4467
19534TIP3    H280018   3.533   2.431   5.621  0.6766  0.1891 -1.4194
19535TIP3   OH280019   4.126   5.280  15.281  0.0303  0.1095  0.3928
19535TIP3    H180020   4.126   5.357  15.225  3.0384  0.1694  0.3867
19535TIP3    H280021   4.046   5.288  15.333 -1.4964  1.3677 -2.0501
19536TIP3   OH280022   1.515   5.134   0.155  0.2449 -0.4647  0.4244
19536TIP3    H180023   1.428   5.169   0.136 -0.3796  0.3788  4.2743
19536TIP3    H280024   1.525   5.060   0.096 -1.8972  1.1653 -2.0808
19537TIP3   OH280025   1.970   0.809  13.215  0.1709 -0.3612 -0.5059
19537TIP3    H180026   1.961   0.879  13.151  0.9214  0.6329  0.4497
19537TIP3    H280027   2.016   0.739  13.169  0.5652  0.2845 -1.1038
19538TIP3   OH280028   3.770   4.225   2.536  0.3487 -0.0138  0.5034
19538TIP3    H180029   3.749   4.264   2.621 -0.6754  1.6722 -0.4914
19538TIP3    H280030   3.849   4.272   2.507  0.3574 -0.1779  0.2598
19539TIP3   OH280031   3.185   1.776   5.561 -0.5239  0.4499 -0.0039
19539TIP3    H180032   3.168   1.775   5.467 -1.3947 -0.1513  0.1609
19539TIP3    H280033   3.262   1.719   5.572 -1.7319 -1.2186 -0.1020
19540TIP3   OH280034   4.911   5.816  13.425  0.2506 -0.2292  0.5755
19540TIP3    H180035   4.912   5.905  13.460  0.0815 -0.0234  0.0641
19540TIP3    H280036   4.867   5.764  13.492  2.5863 -0.4213  2.0226
19541TIP3   OH280037   1.013   1.971  16.311  0.4395 -0.4192  0.1194
19541TIP3    H180038   1.007   1.886  16.268 -0.1062  0.5879 -1.8281
19541TIP3    H280039   1.070   2.023  16.254 -0.9798  1.2007  0.1406
19542TIP3   OH280040   4.580   1.541  16.362  0.5067 -0.0253 -0.4185
19542TIP3    H180041   4.519   1.495  16.420  0.9741  0.1019  0.1796
19542TIP3    H280042   4.542   1.628  16.352  0.9887  0.3114  0.5919
19543TIP3   OH280043   0.278   4.879  14.004  0.3787  0.1159  0.1700
19543TIP3    H180044   0.310   4.916  14.087 -1.5445  0.6023  0.7372
19543TIP3    H280045   0.187   4.909  13.999  0.3268 -0.3327 -1.8869
19544TIP3   OH280046   0.745   0.155   1.532  0.0443  0.4364  0.1016
19544TIP3    H180047   0.796   0.196   1.602  0.4112  0.3275 -0.0992
19544TIP3    H280048   0.739   0.063   1.557  3.0287 -0.3104 -1.6404
19545TIP3   OH280049   6.248   6.646   3.350 -0.6213 -0.2423 -0.2805
19545TIP3    H180050   6.248   6.557   3.386 -1.5041 -0.0835  0.0994
19545TIP3    H280051   6.169   6.650   3.296 -1.1476  0.6638  0.5553
19546TIP3   OH280052   6.001   0.433  16.335 -0.5300 -0.4047  0.4009
19546TIP3    H180053   5.943   0.487  16.389  0.0302 -0.4331  1.0438
19546TIP3    H280054   5.961   0.433  16.248  0.3114  2.3940 -0.0324
19547TIP3   OH280055   1.061   1.819   2.423 -0.2665 -0.5033  0.0560
19547TIP3    H180056   1.032   1.752   2.361 -2.0208  0.9016 -0.6649
19547TIP3    H280057   1.050   1.779   2.509 -0.5177 -1.4250 -0.3979
19548TIP3   OH280058   1.799   1.824   3.338  0.1003 -0.4084  0.3611
19548TIP3    H180059   1.797   1.896   3.274  0.4291  0.3232  1.1649
19548TIP3    H280060   1.890   1.822   3.368 -0.3132  0.0126  1.6616
19549TIP3   OH280061   3.112   5.627   1.281 -0.0801  0.3466  0.0803
19549TIP3    H180062   3.115   5.598   1.190 -0.6055  1.6621 -0.3751
19549TIP3    H280063   3.180   5.695   1.287  0.0976  0.1195  0.7237
19550TIP3   OH280064   3.057   1.040   5.155  0.2039  0.3307 -0.5223
19550TIP3    H180065   3.070   1.041   5.250  0.0825  0.5700 -0.5093
19550TIP3    H280066   3.109   1.113   5.123  2.5478 -1.4708 -0.9293
19551TIP3   OH280067   1.878   6.147  13.903 -0.5470 -0.1166  0.1457
19551TIP3    H180068   1.911   6.185  13.985 -0.5970  0.7967 -0.2593
19551TIP3    H280069   1.954   6.101  13.866 -0.4549 -0.3108  0.5738
19552TIP3   OH280070   3.429   6.243   3.392  0.0934 -0.3405 -0.2932
19552TIP3    H180071   3.499   6.187   3.424  0.5013 -0.7765 -1.9373
19552TIP3    H280072   3.348   6.198   3.417  0.3998 -0.6299  0.1804
19553TIP3   OH280073   3.766   6.504  16.334 -0.3488  0.3150  0.4652
19553TIP3    H180074   3.760   6.523  16.427  0.5096  0.2291  0.5398
19553TIP3    H280075   3.749   6.587  16.291 -0.4225  0.4239  0.7041
19554TIP3   OH280076   6.172   1.108  16.717  0.4743  0.1365  0.2545
19554TIP3    H180077   6.152   1.166  16.643  1.8415  0.2912 -0.0061
19554TIP3    H280078   6.119   1.143  16.789  0.5696  1.1478 -0.1522
19555TIP3   OH280079   5.557   0.961   2.887  0.5300  0.1214 -0.0268
19555TIP3    H180080   5.573   0.943   2.980  2.5369 -1.3773 -0.6315
19555TIP3    H280081   5.644   0.980   2.851 -0.4499  2.3982 -1.2720
19556TIP3   OH280082   1.655   5.718   4.987  0.3058 -0.0032  0.3896
19556TIP3    H180083   1.647   5.714   4.892  0.9609  2.2332  0.1970
19556TIP3    H280084   1.602   5.794   5.013  3.4896  2.0381  1.2869
19557TIP3   OH280085   0.682   4.185   5.434  0.4016 -0.3026  0.3064
19557TIP3    H180086   0.734   4.159   5.511  1.8370  1.3608 -0.0737
19557TIP3    H280087   0.739   4.244   5.386 -0.0504 -2.2316 -2.6839
19558TIP3   OH280088   0.417   0.666  12.771 -0.7675  0.1830  0.1362
19558TIP3    H180089   0.497   0.702  12.810 -0.5486  0.4991 -0.5955
19558TIP3    H280090   0.447   0.620  12.693 -1.2770  0.0601  0.0127
19559TIP3   OH280091   6.104   0.849   5.169  0.3908  0.1670  0.6097
19559TIP3    H180092   6.143   0.925   5.127 -0.2766  0.4550  0.4988
19559TIP3    H280093   6.030   0.884   5.218 -0.3027 -0.4956  0.0509
19560TIP3   OH280094   4.587   1.541   4.231 -0.0174 -0.6219  0.4863
19560TIP3    H180095   4.585   1.633   4.257 -0.9688 -0.3625 -0.4494
19560TIP3    H280096   4.532   1.496   4.294 -0.6795 -0.3231  0.1222
19561TIP3   OH280097   5.907   4.691   4.078 -0.1075 -0.4220  0.0922
19561TIP3    H180098   5.844   4.630   4.037 -0.1790 -0.5072  0.3271
19561TIP3    H280099   5.962   4.720   4.005  0.9389 -1.9835  0.2256
19562TIP3   OH280100   4.570   2.368  17.000  0.6742 -0.1775  0.1054
19562TIP3    H180101   4.482   2.393  17.029  1.6969 -0.1834  3.4071
19562TIP3    H280102   4.570   2.272  17.002  0.8164 -0.1740  0.2231
19563TIP3   OH280103   2.306   6.379   0.498 -0.0161 -0.1932  0.4041
19563TIP3    H180104   2.240   6.379   0.429 -0.5580 -3.4832  0.8162
19563TIP3    H280105   2.388   6.361   0.453 -0.1730 -1.0425  0.4486
19564TIP3   OH280106   5.326   5.535  13.765  0.3061  0.5388  0.3078
19564TIP3    H180107   5.284   5.611  13.724 -1.1644  0.0874  0.9425
19564TIP3    H280108   5.378   5.495  13.695 -1.1099  0.5380 -0.7600
19565TIP3   OH280109   1.173   0.959  17.064 -0.1960  0.1025  0.3128
19565TIP3    H180110   1.158   0.870  17.032  0.2219  0.3019 -0.4728
19565TIP3    H280111   1.131   0.962  17.149  3.0354 -2.0351  2.0905
19566TIP3   OH280112   1.868   2.462   2.629 -0.2416 -0.1212  0.6731
19566TIP3    H180113   1.836   2.532   2.686  2.6991  0.4867  1.6835
19566TIP3    H280114   1.916   2.404   2.687 -0.0849 -1.3514 -0.6509
19567TIP3   OH280115   1.255   2.325  16.343  0.3363  0.4517  0.2029
19567TIP3    H180116   1.303   2.321  16.425  0.0909  1.3262  0.3854
19567TIP3    H280117   1.178   2.377  16.362 -0.3887 -0.4302 -0.2499
19568TIP3   OH280118   4.999   0.359  13.088  0.0008 -0.2559  0.0871
19568TIP3    H180119   5.010   0.419  13.014  0.1428  1.5990  1.5594
19568TIP3    H280120   4.958   0.413  13.156 -1.2337 -2.2349  0.9665
19569TIP3   OH280121   4.923   1.233  12.758  0.5634 -0.1851 -0.5861
19569TIP3    H180122   4.965   1.235  12.844 -0.8075 -1.8902  0.1751
19569TIP3    H280123   4.886   1.320  12.747  0.6774  0.0306  0.6196
19570TIP3   OH280124   2.242   2.696  15.976 -0.4668  0.0014 -0.4536
19570TIP3    H180125   2.221   2.721  16.066 -0.6969 -1.9788  0.0723
19570TIP3    H280126   2.157   2.685  15.934 -0.3765 -0.4076 -0.5308
19571TIP3   OH280127   0.023   1.195   5.140 -0.3494  0.2315 -0.0132
19571TIP3    H180128   0.083   1.259   5.177  1.1312 -0.9724 -0.3008
19571TIP3    H280129  -0.063   1.219   5.175  0.7496  0.1364  2.8281
19572TIP3   OH280130   6.652   1.841   1.705 -0.1638  0.7485 -0.6777
19572TIP3    H180131   6.742   1.825   1.678 -0.1203 -0.9200  0.4029
19572TIP3    H280132   6.612   1.754   1.708 -2.1428  1.5650 -2.2560
19573TIP3   OH280133   6.099   1.485  10.924 -0.2418 -0.2713  0.1011
19573TIP3    H180134   6.017   1.436  10.925  0.3678 -1.3452 -0.8503
19573TIP3    H280135   6.095   1.537  10.844  0.5490 -1.3292 -0.6554
19574TIP3   OH280136   2.034   6.706  13.449  0.2005 -0.3363  0.3874
19574TIP3    H180137   1.955   6.740  13.407  0.5643 -0.9838 -0.8760
19574TIP3    H280138   2.060   6.774  13.511 -1.0322  0.1228  0.4191
19575TIP3   OH280139   5.001   0.056   5.372 -0.6706 -0.3049 -0.3741
19575TIP3    H180140   4.936  -0.014   5.374  0.6928 -1.6242 -1.1055
19575TIP3    H280141   5.008   0.086   5.462  0.2580 -2.5596  0.3243
19576TIP3   OH280142   1.906   3.508  14.589 -0.3566  0.8767 -0.0881
19576TIP3    H180143   1.999   3.527  14.604  0.0275 -0.2781 -0.9222
19576TIP3    H280144   1.861   3.588  14.616  0.7854  1.0667  1.3388
19577TIP3   OH280145   5.294   5.329   2.675 -0.0647  0.0145  0.0343
19577TIP3    H180146   5.385   5.302   2.683 -0.8461 -2.6399  0.5051
19577TIP3    H280147   5.276   5.376   2.756  0.4265 -0.9230  0.7024
19578TIP3   OH280148   3.016   2.806  15.454  0.0251  0.2168 -0.1467
19578TIP3    H180149   3.052   2.890  15.484 -0.1182 -0.0189  0.6923
19578TIP3    H280150   2.924   2.825  15.434  0.4606  0.6918 -1.7666
19579TIP3   OH280151   4.621   0.182   5.559  0.2287 -0.1285  0.1871
19579TIP3    H180152   4.683   0.219   5.622  1.0689 -2.9648  1.1223
19579TIP3    H280153   4.674   0.130   5.500 -1.0172 -0.7627 -0.4048
19580TIP3   OH280154   1.098   4.435   3.078  0.0865 -0.1341 -0.2469
19580TIP3    H180155   1.184   4.404   3.051  0.0624 -0.3397 -0.0907
19580TIP3    H280156   1.104   4.531   3.072  0.0927 -0.1799 -0.9279
19581TIP3   OH280157   5.624   3.458   6.278 -0.1667  0.4383  0.0254
19581TIP3    H180158   5.560   3.482   6.345 -0.7178  0.6052 -0.5658
19581TIP3    H280159   5.572   3.424   6.206  0.5371 -1.4990  0.3977
19582TIP3   OH280160   4.430   0.891  12.666 -0.2658 -0.0559 -0.0238
19582TIP3    H180161   4.462   0.979  12.647 -0.6697 -0.4399 -2.6149
19582TIP3    H280162   4.359   0.877  12.604 -2.2486 -1.0734  2.4082
19583TIP3   OH280163   0.285   1.078  14.806  0.6233 -0.2732  0.4280
19583TIP3    H180164   0.319   1.005  14.858  2.0242  0.1501  0.1270
19583TIP3    H280165   0.309   1.156  14.855  0.3807  0.0520  0.0371
19584TIP3   OH280166   2.465   3.475  15.422  0.0615 -0.2782  0.2122
19584TIP3    H180167   2.559   3.491  15.432 -0.3173  1.3905  1.2224
19584TIP3    H280168   2.457   3.434  15.336  1.4421  1.8619 -0.9699
19585TIP3   OH280169   6.412   6.085  12.810  0.2530 -0.1546  0.4694
19585TIP3    H180170   6.370   6.110  12.892  1.3226 -0.4114  1.1104
19585TIP3    H280171   6.396   5.992  12.801  0.2185 -0.1450  0.4323
19586TIP3   OH280172   6.141   6.328   5.016  0.0132  0.1542  0.2818
19586TIP3    H180173   6.167   6.335   4.924  1.8508 -0.8050  0.6998
19586TIP3    H280174   6.132   6.419   5.045 -0.7209  0.4666 -0.8653
19587TIP3   OH280175   1.304   3.962   2.522 -0.7608 -0.0136  0.1410
19587TIP3    H180176   1.236   4.001   2.578 -1.2073  0.8937 -1.0063
19587TIP3    H280177   1.296   4.009   2.439  0.6075 -0.6004 -0.3380
19588TIP3   OH280178   1.892   6.390  10.461  0.2713 -0.2691  0.3031
19588TIP3    H180179   1.974   6.343  10.446  0.7071 -0.0020  1.7655
19588TIP3    H280180   1.919   6.480  10.475 -0.3038 -0.1388  0.5633
19589TIP3   OH280181   5.507   5.859  15.781 -0.0427 -0.0082 -0.0596
19589TIP3    H180182   5.569   5.832  15.849 -1.3919 -1.3095  0.6735
19589TIP3    H280183   5.562   5.900  15.714  1.7268 -1.9375  0.1672
19590TIP3   OH280184   3.075   1.992   3.973  0.4138  0.6186  0.0865
19590TIP3    H180185   3.076   2.003   3.878  0.5533 -1.8144 -0.2267
19590TIP3    H280186   2.984   2.012   3.998 -0.1945 -0.8668 -0.8623
19591TIP3   OH280187   0.206   0.950   1.438 -0.2455  0.3642 -0.0304
19591TIP3    H180188   0.227   0.998   1.358  0.9016  1.4521  0.8865
19591TIP3    H280189   0.174   0.865   1.408  0.7529  0.5299 -1.6216
19592TIP3   OH280190   4.108   6.369  11.038  0.1284 -0.7706  0.3512
19592TIP3    H180191   4.034   6.310  11.049 -1.6627  0.8256 -2.4684
19592TIP3    H280192   4.130   6.362  10.945  2.2119  0.3025  0.7404
19593TIP3   OH280193   6.401   3.384  11.127 -0.1107  0.2400 -0.0686
19593TIP3    H180194   6.460   3.456  11.107  0.1118 -0.0263 -0.3880
19593TIP3    H280195   6.317   3.410  11.089 -1.0036  1.9405  2.9167
19594TIP3   OH280196   3.623   3.666  15.372  0.3017  0.0670  0.1223
19594TIP3    H180197   3.611   3.712  15.456 -1.2239  1.0554 -0.6178
19594TIP3    H280198   3.713   3.684  15.347  0.3233  0.9817  0.8437
19595TIP3   OH280199   4.445   4.671   1.140 -0.0046  0.9215 -0.0710
19595TIP3    H180200   4.459   4.653   1.047  2.2477  0.2557  0.3758
19595TIP3    H280201   4.376   4.609   1.166  0.2176  0.2654 -1.0194
19596TIP3   OH280202   5.777   0.211  12.306 -0.3598  0.1107  0.0035
19596TIP3    H180203   5.868   0.242  12.304  0.3933 -2.1052 -3.5360
19596TIP3    H280204   5.739   0.243  12.225 -2.2281 -0.5568  0.5944
19597TIP3   OH280205   4.167   5.366  10.667  0.7972  0.3866 -0.2255
19597TIP3    H180206   4.089   5.421  10.674  0.5469  0.4572 -3.2391
19597TIP3    H280207   4.205   5.368  10.756 -1.5371  1.9079  0.7906
19598TIP3   OH280208   2.141   5.852  15.325 -0.0912  0.0189 -0.0875
19598TIP3    H180209   2.156   5.830  15.234  1.3846  1.4625 -0.2275
19598TIP3    H280210   2.223   5.828  15.369 -0.3954  0.3389  0.6634
19599TIP3   OH280211   0.504   4.430  12.879  0.4770 -0.0957  0.1976
19599TIP3    H180212   0.596   4.415  12.856  0.9538  0.2245  1.7862
19599TIP3    H280213   0.496   4.394  12.967 -0.9866 -0.3107 -0.0128
19600TIP3   OH280214   0.176   2.023  15.507 -0.4118 -0.9346  0.6538
19600TIP3    H180215   0.194   2.054  15.418 -2.2458 -1.5532  0.0396
19600TIP3    H280216   0.261   1.997  15.542  0.4925  0.4039 -0.4964
19601TIP3   OH280217   0.401   4.449   1.975 -0.4182  0.1267 -0.4070
19601TIP3    H180218   0.312   4.467   2.003 -0.9627 -0.9615 -1.3842
19601TIP3    H280219   0.406   4.353   1.972  1.0625  0.1484  0.5210
19602TIP3   OH280220   3.621   5.892  10.762 -0.3213 -0.3606  0.1177
19602TIP3    H180221   3.683   5.821  10.777  1.3631  0.5791 -2.1619
19602TIP3    H280222   3.660   5.968  10.805  0.3663  0.3256 -1.6501
19603TIP3   OH280223   5.557   3.433  12.544  0.3705 -0.0657  0.6660
19603TIP3    H180224   5.648   3.436  12.575 -0.4273  1.2961  2.9883
19603TIP3    H280225   5.518   3.513  12.578 -1.9944 -1.1395  0.5506
19604TIP3   OH280226   3.536   5.208  13.529 -0.0089 -0.5226  0.5646
19604TIP3    H180227   3.521   5.248  13.443  1.7387 -0.7413  0.1281
19604TIP3    H280228   3.563   5.281  13.584  0.0562 -0.5788  0.6073
19605TIP3   OH280229   5.488   3.214  14.911  0.2780  0.2784  0.0768
19605TIP3    H180230   5.472   3.244  14.821 -1.8681 -1.6484 -0.2398
19605TIP3    H280231   5.519   3.124  14.900 -0.1692 -0.0244  1.2866
19606TIP3   OH280232   2.746   6.779   5.422  0.2300 -0.1323 -0.1162
19606TIP3    H180233   2.709   6.691   5.412  1.5208 -0.8103  0.9516
19606TIP3    H280234   2.693   6.819   5.491 -0.6451  0.0962 -0.9126
19607TIP3   OH280235   4.311   4.957   4.469  0.0266  0.3145 -0.3241
19607TIP3    H180236   4.237   4.903   4.495 -0.3826  1.4438  0.9052
19607TIP3    H280237   4.374   4.895   4.432 -1.3653 -0.6989 -1.0371
19608TIP3   OH280238   0.634   4.576   6.625  0.0665 -0.7651  0.4829
19608TIP3    H180239   0.652   4.486   6.596  0.6362 -0.1098 -1.2795
19608TIP3    H280240   0.548   4.596   6.587  0.8036  0.0929 -0.7731
19609TIP3   OH280241   5.189   3.147  15.446 -0.4031 -0.5626 -0.4865
19609TIP3    H180242   5.251   3.220  15.445 -1.3638  0.2875  0.2601
19609TIP3    H280243   5.128   3.167  15.375 -2.7273  1.2298  1.9237
19610TIP3   OH280244   0.795   0.829   1.434  0.1774  0.6988  0.1304
19610TIP3    H180245   0.708   0.829   1.472  0.3928  0.1379  0.6237
19610TIP3    H280246   0.838   0.905   1.473  0.1206  0.6084  0.3708
19611TIP3   OH280247   6.590   4.677  13.756  0.1859 -0.3028 -0.4264
19611TIP3    H180248   6.627   4.661  13.843  0.2597 -1.4528 -0.6622
19611TIP3    H280249   6.590   4.591  13.714  0.6126  0.3353 -1.7511
19612TIP3   OH280250   5.689   6.757   0.679  0.3740 -0.2988  0.6520
19612TIP3    H180251   5.624   6.689   0.663  0.0521 -0.0439  0.8717
19612TIP3    H280252   5.767   6.710   0.708  0.2893 -0.6041  0.3849
19613TIP3   OH280253   2.855   3.649   4.172  0.4977 -0.5848  0.1159
19613TIP3    H180254   2.864   3.557   4.147  1.1995 -0.4333 -0.1899
19613TIP3    H280255   2.780   3.650   4.232 -0.1128 -1.2127 -0.6218
19614TIP3   OH280256   1.729   0.283  16.050 -0.0305 -0.1550 -0.7632
19614TIP3    H180257   1.648   0.232  16.047  2.1793 -3.8835  0.5416
19614TIP3    H280258   1.750   0.301  15.958 -0.7875 -1.7164 -1.2416
19615TIP3   OH280259   6.689   4.549   4.746 -0.6369 -0.7616  0.1059
19615TIP3    H180260   6.760   4.486   4.758  0.3529  0.3122 -0.0691
19615TIP3    H280261   6.646   4.521   4.665  0.0063 -1.0184 -0.1522
19616TIP3   OH280262   4.708   5.099  10.934 -0.0670  0.4786  0.6649
19616TIP3    H180263   4.636   5.141  10.887  0.4454  1.1708  0.4806
19616TIP3    H280264   4.786   5.147  10.905  0.3717  0.2545  1.4620
19617TIP3   OH280265   4.795   0.156   2.093  0.5982 -0.0424  0.4685
19617TIP3    H180266   4.872   0.117   2.054  1.0675 -0.3793  1.7206
19617TIP3    H280267   4.815   0.249   2.098 -0.0210  0.2162 -1.3487
19618TIP3   OH280268   5.661   4.847  14.493 -0.0043 -0.0922  0.2579
19618TIP3    H180269   5.661   4.797  14.411  1.6812 -1.4883  1.0874
19618TIP3    H280270   5.569   4.867  14.508 -0.2819  0.9961 -2.4381
19619TIP3   OH280271   1.064   4.003  12.331  0.1504  0.1177 -0.1878
19619TIP3    H180272   1.065   4.014  12.235 -0.7983 -0.3910 -0.2679
19619TIP3    H280273   1.013   3.923  12.345 -0.8227  0.9023  0.8087
19620TIP3   OH280274   6.460   0.998  12.926  0.2069  0.0994 -0.1277
19620TIP3    H180275   6.384   1.056  12.921  0.2119  0.0888 -0.3274
19620TIP3    H280276   6.486   0.985  12.835  1.3077  1.2341  0.0042
19621TIP3   OH280277   5.713   1.034   2.290 -0.3230  0.1042  0.3769
19621TIP3    H180278   5.787   0.991   2.247 -0.6408  1.0333 -1.1795
19621TIP3    H280279   5.753   1.093   2.354  0.1946 -0.8266  0.9180
19622TIP3   OH280280   5.359   5.428   4.665 -0.3095  0.2049 -0.1757
19622TIP3    H180281   5.404   5.363   4.719  1.3778  0.2163 -1.5485
19622TIP3    H280282   5.279   5.447   4.713  0.9796 -0.0651  2.1412
19623TIP3   OH280283   2.676   5.335   5.460 -0.3759 -0.2223 -0.0016
19623TIP3    H180284   2.735   5.317   5.532 -0.0129  1.2894  0.0966
19623TIP3    H280285   2.648   5.426   5.473 -0.5426 -0.0229 -1.5770
19624TIP3   OH280286   6.543   1.647  11.393  0.4784  0.3700  0.4188
19624TIP3    H180287   6.571   1.710  11.327  2.6334  0.7294  1.6149
19624TIP3    H280288   6.448   1.642  11.383  0.5429  1.9960 -1.2906
19625TIP3   OH280289   4.184   4.273   5.141 -0.6908 -0.4183  0.1013
19625TIP3    H180290   4.225   4.244   5.223  0.0120 -0.4331 -0.2483
19625TIP3    H280291   4.238   4.346   5.111  0.0587 -1.4574 -1.1873
19626TIP3   OH280292   1.845   4.165   2.723 -0.8246 -0.0854  0.1341
19626TIP3    H180293   1.890   4.109   2.786  0.2579  0.0725 -0.4909
19626TIP3    H280294   1.821   4.244   2.772 -1.5727 -0.7078  0.7888
19627TIP3   OH280295   4.728   6.304   5.029 -0.4614  0.2546  0.0019
19627TIP3    H180296   4.757   6.383   4.983  1.3334  0.0589  0.7305
19627TIP3    H280297   4.800   6.242   5.016 -0.6652 -0.3453  1.6739
19628TIP3   OH280298   4.776   2.615   0.995 -0.2296 -0.0407  0.1609
19628TIP3    H180299   4.816   2.571   1.071 -0.7777  0.1974  0.5977
19628TIP3    H280300   4.810   2.569   0.919  1.3628  0.5694  0.4985
19629TIP3   OH280301   1.805   1.466  15.053  0.4873  0.1502 -0.2910
19629TIP3    H180302   1.828   1.549  15.095 -2.7699  0.7203  0.5855
19629TIP3    H280303   1.842   1.399  15.111  0.4614  0.9861  0.7186
19630TIP3   OH280304   3.934   0.323  12.831 -0.0195 -0.2865  0.5869
19630TIP3    H180305   4.007   0.382  12.849 -1.4549  1.8596 -0.4077
19630TIP3    H280306   3.877   0.331  12.908  0.2202 -1.0804  0.8529
19631TIP3   OH280307   5.481   4.239  13.583 -0.7063 -0.3348 -0.0976
19631TIP3    H180308   5.408   4.296  13.608 -1.1602 -0.7808 -0.3753
19631TIP3    H280309   5.491   4.180  13.657  0.5499  0.8566  0.7024
19632TIP3   OH280310   3.405   4.405  11.774  0.9858  0.5561  0.1744
19632TIP3    H180311   3.345   4.479  11.776  1.0959  0.6336  1.8819
19632TIP3    H280312   3.481   4.437  11.725  1.5951  2.0502  2.0208
19633TIP3   OH280313   1.473   4.628   5.163  0.0410  0.1671  0.0659
19633TIP3    H180314   1.405   4.601   5.101  0.4470  0.2963 -0.4367
19633TIP3    H280315   1.475   4.557   5.228  0.7670 -0.7919 -0.9778
19634TIP3   OH280316   6.331   3.466   2.472  0.4757 -0.2871  0.0267
19634TIP3    H180317   6.372   3.545   2.438 -0.3690  1.0193  1.9452
19634TIP3    H280318   6.262   3.446   2.408  0.3870  0.8058 -0.2404
19635TIP3   OH280319   2.687   1.463   1.897  0.2188  0.7340 -0.2573
19635TIP3    H180320   2.666   1.555   1.876 -0.8002  0.3825 -0.8097
19635TIP3    H280321   2.657   1.453   1.987 -1.4923  0.3962 -0.8556
19636TIP3   OH280322   5.314   0.528  13.422  0.0096  0.1317 -0.2774
19636TIP3    H180323   5.385   0.516  13.359  0.2948 -0.9470  0.2206
19636TIP3    H280324   5.262   0.448  13.415  0.0217  0.0161  0.8049
19637TIP3   OH280325   5.938   5.189  10.968  0.2433  0.2864  0.0748
19637TIP3    H180326   5.947   5.121  10.902  0.3518  0.4854 -0.1188
19637TIP3    H280327   6.028   5.216  10.987  0.1924  0.5026  0.0127
19638TIP3   OH280328   2.688   1.571  12.515  0.5567 -0.0946 -0.1569
19638TIP3    H180329   2.592   1.573  12.514  0.4675 -3.0511 -0.9590
19638TIP3    H280330   2.713   1.608  12.430  0.1754  1.0955  0.2306
19639TIP3   OH280331   3.490   0.050  12.242 -0.1475 -0.6445  0.1134
19639TIP3    H180332   3.577   0.025  12.271 -0.3400  0.5207  1.7150
19639TIP3    H280333   3.459   0.112  12.307 -1.2293  0.7815 -1.7116
19640TIP3   OH280334   4.031   4.016   1.447 -0.1568  0.0888  0.1804
19640TIP3    H180335   3.940   4.025   1.420  0.1006 -0.2678 -0.8052
19640TIP3    H280336   4.043   3.922   1.458 -0.5404  0.2827  2.5319
19641TIP3   OH280337   0.831   3.455  12.628  0.0714 -0.7260  0.5823
19641TIP3    H180338   0.739   3.475  12.645  0.2511 -0.1692  0.9514
19641TIP3    H280339   0.853   3.388  12.692  0.2902  0.1487  1.4406
19642TIP3   OH280340   1.945   1.747   1.820 -0.3176 -0.3490  0.2099
19642TIP3    H180341   1.922   1.761   1.728 -0.9673  0.0185  0.4209
19642TIP3    H280342   1.861   1.731   1.863 -0.0691 -0.0331  0.8199
19643TIP3   OH280343   5.541   4.057  15.547 -0.1064 -0.0165  0.3886
19643TIP3    H180344   5.565   4.012  15.628  0.1159 -0.5811  0.0084
19643TIP3    H280345   5.489   3.993  15.498  0.1081  0.1825 -0.1038
19644TIP3   OH280346   4.219   3.830   0.540 -0.0969 -0.0538 -0.7045
19644TIP3    H180347   4.200   3.844   0.447  0.6301  0.7975 -0.7345
19644TIP3    H280348   4.311   3.803   0.541  0.0396  0.4313 -0.1949
19645TIP3   OH280349   3.844   3.246   2.023 -0.1180  0.1762  0.2912
19645TIP3    H180350   3.756   3.282   2.030  0.3654  1.4061  0.1048
19645TIP3    H280351   3.902   3.319   2.045  0.8562 -0.6318  0.4551
19646TIP3   OH280352   1.314   6.335   1.936 -0.7512 -0.1603  0.5182
19646TIP3    H180353   1.315   6.244   1.965 -1.1419  0.6390  3.1342
19646TIP3    H280354   1.229   6.368   1.964 -1.1378  0.6944 -1.5334
19647TIP3   OH280355   0.432   1.661   2.997  0.1402 -0.2191  0.3447
19647TIP3    H180356   0.468   1.737   3.044 -0.4167  0.8392 -0.9052
19647TIP3    H280357   0.339   1.682   2.985  0.0281 -1.0021 -0.1850
19648TIP3   OH280358   2.286   3.632   5.315  0.3890 -0.4008  0.1114
19648TIP3    H180359   2.304   3.689   5.389 -0.0495 -1.9109  1.3984
19648TIP3    H280360   2.331   3.550   5.335  0.2767 -0.8295 -1.2958
19649TIP3   OH280361   4.053   6.528  13.659 -0.3442  0.6896 -0.3512
19649TIP3    H180362   4.122   6.594  13.650  0.7462 -0.5595 -1.2561
19649TIP3    H280363   4.008   6.552  13.740  1.9998  0.7323  0.9805
19650TIP3   OH280364   5.664   4.382  15.932 -0.1002  0.2679  0.1780
19650TIP3    H180365   5.723   4.397  16.006  0.8708 -1.0111 -0.3139
19650TIP3    H280366   5.585   4.346  15.972  0.8086 -1.4179  0.5255
19651TIP3   OH280367   4.156   6.023  14.831  0.2648  0.3499 -0.4903
19651TIP3    H180368   4.202   6.017  14.747  0.4324 -0.6073 -0.3346
19651TIP3    H280369   4.087   5.956  14.825  1.5236 -1.1241  0.9031
19652TIP3   OH280370   4.872   2.254  13.197 -0.4839  0.3196 -0.0321
19652TIP3    H180371   4.863   2.285  13.107  0.6541  0.2213 -0.1808
19652TIP3    H280372   4.792   2.203  13.213 -1.3939  1.5725 -0.4758
19653TIP3   OH280373   1.775   5.806   2.136 -0.2788 -0.0172 -0.1867
19653TIP3    H180374   1.705   5.741   2.143  0.1356 -0.5678 -1.0753
19653TIP3    H280375   1.817   5.787   2.052 -0.3572  1.6065 -0.6159
19654TIP3   OH280376   5.640   0.277  16.369  0.1614  0.3509 -0.0164
19654TIP3    H180377   5.610   0.275  16.278  0.8619  0.8395 -0.2608
19654TIP3    H280378   5.649   0.370  16.389  0.9679  0.2193  0.2341
19655TIP3   OH280379   5.799   5.381  14.721  0.4867 -0.0225 -0.4006
19655TIP3    H180380   5.808   5.463  14.771  0.0724 -0.4073  0.3232
19655TIP3    H280381   5.707   5.357  14.733  0.5561 -0.4719 -0.8004
19656TIP3   OH280382   3.229   2.933  12.241  0.0472 -0.0203  0.0533
19656TIP3    H180383   3.194   2.952  12.153  2.2426 -4.1041 -1.8196
19656TIP3    H280384   3.316   2.972  12.241  0.6468 -1.3177 -0.1969
19657TIP3   OH280385   0.614   2.609   5.148 -0.4405 -0.1845 -0.5740
19657TIP3    H180386   0.683   2.636   5.087 -0.0403  0.7961  0.2898
19657TIP3    H280387   0.577   2.691   5.179  0.3893 -0.6234  1.6677
19658TIP3   OH280388   0.134   2.972   2.555 -0.2271 -0.1494 -0.2436
19658TIP3    H180389   0.160   2.921   2.479 -0.8376 -0.4864 -0.2343
19658TIP3    H280390   0.194   2.946   2.624  1.0375  0.9765 -0.9054
19659TIP3   OH280391   1.633   1.335   3.772 -0.1625 -0.2402  0.2068
19659TIP3    H180392   1.704   1.279   3.742 -0.9651 -1.7728  1.1051
19659TIP3    H280393   1.565   1.274   3.802  0.0278  1.2076  3.7870
19660TIP3   OH280394   4.603   2.572  12.638  0.4049 -0.5081  0.1627
19660TIP3    H180395   4.624   2.603  12.726  2.0953 -1.2276  0.0457
19660TIP3    H280396   4.575   2.481  12.651 -0.5617 -0.2188  0.0921
19661TIP3   OH280397   6.199   4.243   2.168 -0.0914  0.2561  0.4630
19661TIP3    H180398   6.267   4.288   2.218  0.7212 -1.9185  1.3551
19661TIP3    H280399   6.246   4.177   2.116 -1.2100  0.7069 -1.1856
19662TIP3   OH280400   1.611   3.603  13.002 -0.3237 -0.2457  0.0303
19662TIP3    H180401   1.516   3.608  13.013 -0.2868 -0.4931  0.4898
19662TIP3    H280402   1.634   3.681  12.951 -0.7753 -0.1916 -0.0892
19663TIP3   OH280403   2.604   2.244  16.516  0.3489 -0.4401  0.4446
19663TIP3    H180404   2.622   2.328  16.473  0.9880  0.6994  2.8645
19663TIP3    H280405   2.508   2.239  16.518  0.2840 -1.4494 -2.8203
19664TIP3   OH280406   6.508   1.637   2.757 -0.0381 -0.5398 -0.0770
19664TIP3    H180407   6.519   1.648   2.852  2.9882 -3.9804  0.0544
19664TIP3    H280408   6.548   1.716   2.720  0.8823 -0.2531  1.4509
19665TIP3   OH280409   0.472   4.898  14.594  0.3976  0.1688  0.3150
19665TIP3    H180410   0.456   4.910  14.688 -0.2047  0.5478  0.1616
19665TIP3    H280411   0.492   4.986  14.562  0.9410 -0.0141  0.1533
19666TIP3   OH280412   3.166   5.816  13.326 -0.0525 -0.3893 -0.0854
19666TIP3    H180413   3.091   5.767  13.359  0.8913 -1.4148  0.5613
19666TIP3    H280414   3.142   5.839  13.236 -1.0330 -0.9209  0.0321
19667TIP3   OH280415   0.829   4.569  12.032 -0.2475 -0.4563  0.4341
19667TIP3    H180416   0.760   4.515  11.993  0.8282  0.0869 -2.3264
19667TIP3    H280417   0.896   4.506  12.060 -1.2244 -0.8808  1.9024
19668TIP3   OH280418   4.102   2.037  15.597  0.1957 -0.5607  0.6965
19668TIP3    H180419   4.140   1.968  15.544 -0.6425 -0.4648 -0.0362
19668TIP3    H280420   4.094   1.999  15.685  1.5325 -0.7292  0.7498
19669TIP3   OH280421   4.665   2.826  10.918  0.1508  0.0998 -0.0240
19669TIP3    H180422   4.727   2.836  10.991 -1.2523 -0.4068  1.2837
19669TIP3    H280423   4.719   2.810  10.841  1.6814  0.8728  0.8815
19670TIP3   OH280424   4.347   6.338  11.133  0.0642 -0.1076 -0.3394
19670TIP3    H180425   4.357   6.243  11.126  0.0428 -0.1136 -0.2947
19670TIP3    H280426   4.253   6.353  11.121 -0.1311 -0.2151  0.9499
19671TIP3   OH280427   2.965   5.470   0.043  0.1942 -0.2692 -0.2433
19671TIP3    H180428   2.972   5.423  -0.039  0.0565 -0.6301 -0.0501
19671TIP3    H280429   2.892   5.428   0.089 -0.4872  0.6771 -0.4332
19672TIP3   OH280430   4.492   0.135   1.823  0.2748  0.2873  0.0474
19672TIP3    H180431   4.577   0.159   1.787 -0.0051  1.0959 -0.1040
19672TIP3    H280432   4.434   0.207   1.795 -0.0897  0.5964  1.5676
19673TIP3   OH280433   6.092   0.517   1.817 -0.8824 -0.3175 -0.2069
19673TIP3    H180434   6.009   0.536   1.773 -0.6832 -0.1694 -0.5282
19673TIP3    H280435   6.083   0.428   1.850 -0.9355 -0.5372 -0.7980
19674TIP3   OH280436   1.617   3.001   1.773 -0.1383 -0.0453  0.0167
19674TIP3    H180437   1.564   3.044   1.705 -2.7763 -2.0098  0.7611
19674TIP3    H280438   1.653   2.924   1.729 -0.2066 -0.2267  0.2806
19675TIP3   OH280439   2.069   4.115  12.673  0.4923  0.5827 -0.2769
19675TIP3    H180440   2.020   4.194  12.649  0.5236 -0.1748 -3.0324
19675TIP3    H280441   2.016   4.043  12.638  1.3850 -0.5171  0.6059
19676TIP3   OH280442   4.465   3.279  11.512  0.4056 -0.3768 -0.0227
19676TIP3    H180443   4.390   3.321  11.469  1.2778  1.7627  0.4602
19676TIP3    H280444   4.541   3.323  11.474  1.3451 -1.3454  0.7194
19677TIP3   OH280445   0.397   1.837  14.805  0.0639  0.0545 -0.3965
19677TIP3    H180446   0.468   1.846  14.869 -1.0668 -0.1065  0.9042
19677TIP3    H280447   0.337   1.908  14.826 -0.7549 -0.5360 -0.7200
19678TIP3   OH280448   5.750   2.123   6.389  0.4103  0.0523  0.3015
19678TIP3    H180449   5.776   2.208   6.422  0.2415 -1.3851  4.4547
19678TIP3    H280450   5.679   2.141   6.327 -0.0010  2.8381  1.5537
19679TIP3   OH280451   3.487   5.309   0.895  0.2217  0.4777 -0.1411
19679TIP3    H180452   3.470   5.312   0.801  1.2122  0.9993 -0.3076
19679TIP3    H280453   3.425   5.372   0.933  1.0099  1.5679 -0.6288
19680TIP3   OH280454   0.791   1.323  16.245  0.0990  0.3383  0.0586
19680TIP3    H180455   0.788   1.227  16.248  0.4197  0.3228 -0.1816
19680TIP3    H280456   0.703   1.350  16.273 -0.2408 -0.0412 -0.6348
19681TIP3   OH280457   4.968   2.613   1.771 -0.0678  0.5642 -0.4514
19681TIP3    H180458   4.941   2.679   1.834 -0.6530 -0.3159  0.2248
19681TIP3    H280459   5.044   2.571   1.810  0.5992  1.1551 -1.0986
19682TIP3   OH280460   1.418   3.933  14.004 -0.6379  0.3491  0.5641
19682TIP3    H180461   1.499   3.964  13.962 -1.4819  2.5975  0.5178
19682TIP3    H280462   1.370   4.013  14.025 -1.0497 -0.8035  4.2815
19683TIP3   OH280463   3.684   2.698  10.897  0.1205 -0.0457  0.0427
19683TIP3    H180464   3.648   2.654  10.975  1.6391  0.1812  0.9051
19683TIP3    H280465   3.694   2.789  10.924  4.1606 -0.6421  0.9430
19684TIP3   OH280466   3.532   0.726   4.336 -0.4083  0.4393 -0.3315
19684TIP3    H180467   3.601   0.674   4.377 -0.8318 -0.0280 -0.1982
19684TIP3    H280468   3.469   0.661   4.304  0.2757  0.7377 -2.3927
19685TIP3   OH280469   3.300   0.881   1.735 -0.2306 -0.0497  0.3067
19685TIP3    H180470   3.252   0.931   1.669 -1.4273  0.9764  1.8905
19685TIP3    H280471   3.264   0.793   1.729 -1.2963  0.3637  0.4938
19686TIP3   OH280472   1.400   0.701  16.119  0.0065 -0.1361 -0.6019
19686TIP3    H180473   1.345   0.625  16.099  0.4744 -0.5504 -0.3423
19686TIP3    H280474   1.459   0.709  16.044 -1.4414  1.2771 -1.6186
19687TIP3   OH280475   3.199   6.322  14.433  0.3378  0.5778 -0.4653
19687TIP3    H180476   3.227   6.256  14.370 -0.2254  0.7459 -0.8882
19687TIP3    H280477   3.241   6.403  14.403  1.8179  0.2214  0.6039
19688TIP3   OH280478   1.015   1.065  14.708 -0.6860 -0.3411  0.1820
19688TIP3    H180479   0.930   1.074  14.664 -1.4070  0.5396  1.7168
19688TIP3    H280480   0.999   1.095  14.797  0.9600 -1.3288  0.8218
19689TIP3   OH280481   2.486   3.139   3.239 -0.1934  0.1125  0.2473
19689TIP3    H180482   2.416   3.204   3.241 -1.1050 -0.7834 -1.2359
19689TIP3    H280483   2.439   3.055   3.238  0.8919 -0.4927 -1.0141
19690TIP3   OH280484   4.060   1.868   0.589  0.8077 -0.6356 -0.5938
19690TIP3    H180485   4.133   1.846   0.647 -0.2112  1.5437  1.6113
19690TIP3    H280486   3.994   1.802   0.606  0.7238 -0.3111  0.3504
19691TIP3   OH280487   1.250   0.182   2.271 -0.0565  0.4751 -0.1172
19691TIP3    H180488   1.337   0.160   2.238 -0.2205  1.5637 -1.3074
19691TIP3    H280489   1.190   0.130   2.218 -0.1631 -0.0614  0.5142
19692TIP3   OH280490   4.178   6.653  13.043  0.3664 -0.1025  0.3768
19692TIP3    H180491   4.193   6.738  13.003 -0.9563 -0.7386 -1.5310
19692TIP3    H280492   4.262   6.607  13.034  0.8909  0.7366  0.8560
19693TIP3   OH280493   5.909   1.059   3.169  0.2404 -0.1375  0.2021
19693TIP3    H180494   5.880   1.077   3.259  0.6459 -1.6423  0.6451
19693TIP3    H280495   6.005   1.065   3.173  0.1758  2.0649 -0.6545
19694TIP3   OH280496   0.593   0.589   0.899  0.3052 -0.0086 -0.5135
19694TIP3    H180497   0.688   0.582   0.915  0.2634 -0.4125 -0.4416
19694TIP3    H280498   0.574   0.682   0.914  0.5798 -0.0449  0.0840
19695TIP3   OH280499   4.083   2.723  15.166 -0.1048  0.4750  0.0994
19695TIP3    H180500   4.136   2.741  15.243 -0.0717  1.1255 -0.0718
19695TIP3    H280501   4.007   2.780  15.176 -0.0448  0.6425 -0.4065
19696TIP3   OH280502   5.124   1.262  15.491  0.2577  0.6416  0.2760
19696TIP3    H180503   5.037   1.259  15.530 -0.4181  0.0173 -1.2122
19696TIP3    H280504   5.153   1.171  15.490  0.0106  0.5634 -1.1770
19697TIP3   OH280505   1.417   2.379  13.989 -0.0490 -0.2055 -0.7914
19697TIP3    H180506   1.405   2.435  14.066 -1.9614 -0.7022 -0.7039
19697TIP3    H280507   1.462   2.436  13.926  0.1747  0.6813  0.1465
19698TIP3   OH280508   0.123   4.443   0.805  0.0838  0.0766 -0.1426
19698TIP3    H180509   0.134   4.446   0.900  1.4723  2.0550 -0.3320
19698TIP3    H280510   0.205   4.479   0.770 -0.2242 -1.0121 -2.1140
19699TIP3   OH280511   6.015   1.323   6.397  0.1666 -0.6445 -0.2978
19699TIP3    H180512   6.068   1.392   6.357 -1.9646  1.2782  0.0568
19699TIP3    H280513   5.991   1.266   6.323 -1.3397  1.2696 -1.3727
19700TIP3   OH280514   0.622   3.969   1.918 -0.2638  0.4837 -0.1196
19700TIP3    H180515   0.613   3.906   1.989 -2.4732 -0.6328 -1.3470
19700TIP3    H280516   0.650   4.050   1.961  1.1942 -0.9090  1.6372
19701TIP3   OH280517   5.236   5.961  12.501 -0.1140 -0.1249 -0.8743
19701TIP3    H180518   5.319   5.915  12.510 -0.3329 -0.6413 -1.4762
19701TIP3    H280519   5.188   5.938  12.580  0.2332  0.0106 -0.6215
19702TIP3   OH280520   1.834   2.527  13.824  0.1594  0.2677  0.5518
19702TIP3    H180521   1.780   2.491  13.754  0.0546  0.2857  0.6225
19702TIP3    H280522   1.912   2.560  13.779  0.8959 -1.3006  0.6513
19703TIP3   OH280523   1.142   3.760   1.515 -0.1702  0.1980 -0.7385
19703TIP3    H180524   1.081   3.687   1.504 -0.2451  0.0639  0.5585
19703TIP3    H280525   1.166   3.785   1.425 -1.3430 -0.4033 -1.2254
19704TIP3   OH280526   5.258   6.669  15.418  0.0553  0.5821  0.5114
19704TIP3    H180527   5.233   6.748  15.371 -1.2970 -1.3910 -2.1458
19704TIP3    H280528   5.335   6.636  15.371  0.2630 -0.0223  1.2538
19705TIP3   OH280529   1.316   1.227   0.253  0.2534 -0.1068 -0.5461
19705TIP3    H180530   1.249   1.267   0.309 -0.9892 -0.4594 -1.7804
19705TIP3    H280531   1.386   1.203   0.314  0.1728  2.1179  0.4976
19706TIP3   OH280532   6.125   5.176  16.633 -0.3522 -0.1773  0.0896
19706TIP3    H180533   6.153   5.149  16.721  1.4412 -1.6940 -0.9100
19706TIP3    H280534   6.181   5.252  16.613 -0.9538  0.3417  0.3498
19707TIP3   OH280535   3.142   3.044   2.983  0.4789  0.3180 -0.0374
19707TIP3    H180536   3.059   3.034   2.937 -0.3698 -0.2520  1.5918
19707TIP3    H280537   3.123   3.106   3.053  1.3680 -0.0138  0.4990
19708TIP3   OH280538   6.043   3.304   0.446 -0.8106 -0.1951 -0.0096
19708TIP3    H180539   6.133   3.291   0.473 -0.6162 -0.5410 -0.8212
19708TIP3    H280540   6.040   3.277   0.354 -1.0519  2.5911 -0.8940
19709TIP3   OH280541   1.605   1.008   5.304  0.1607  1.0453 -0.2287
19709TIP3    H180542   1.577   1.017   5.395  1.2955  0.3368  0.2074
19709TIP3    H280543   1.525   1.017   5.252 -0.6482  0.3849  0.9021
19710TIP3   OH280544   0.888   2.846   4.103  0.2298 -0.1132 -0.7562
19710TIP3    H180545   0.973   2.889   4.097  0.6535 -0.4560  2.1929
19710TIP3    H280546   0.858   2.865   4.192 -2.2035 -1.0909 -1.3244
19711TIP3   OH280547   6.133   4.136  13.284 -0.1660  0.5036 -0.3665
19711TIP3    H180548   6.064   4.073  13.304  1.0147 -0.5278  0.5411
19711TIP3    H280549   6.132   4.144  13.189 -0.4647 -0.7276 -0.4716
19712TIP3   OH280550   5.859   6.116   5.976  0.7056  0.6936  1.0070
19712TIP3    H180551   5.774   6.094   6.013  0.6253  2.0514  1.6562
19712TIP3    H280552   5.915   6.041   5.997 -0.9719 -1.4058 -1.6948
19713TIP3   OH280553   3.247   1.459  14.280 -0.1203 -0.2263  0.0578
19713TIP3    H180554   3.220   1.413  14.360  0.7940 -1.3384 -0.2573
19713TIP3    H280555   3.223   1.399  14.210  1.2620 -0.3010 -0.3513
19714TIP3   OH280556   2.303   5.209   1.018  0.4570 -1.0571 -0.6222
19714TIP3    H180557   2.331   5.191   0.928  0.2201  0.3162 -0.9938
19714TIP3    H280558   2.344   5.293   1.039 -0.1514 -0.9698  0.2529
19715TIP3   OH280559   4.758   4.766   3.035 -0.0071 -0.3138  0.4490
19715TIP3    H180560   4.801   4.819   2.968  0.2401  1.8071  2.2558
19715TIP3    H280561   4.795   4.796   3.118 -2.1891 -1.0825  1.7526
19716TIP3   OH280562   4.535   4.922   4.196 -0.0394 -0.7358  0.4661
19716TIP3    H180563   4.606   4.974   4.234 -0.0406 -0.4719  0.1142
19716TIP3    H280564   4.519   4.852   4.260  0.2941 -0.5885  0.7126
19717TIP3   OH280565   3.254   1.843  13.413 -0.2811  0.2332 -0.6586
19717TIP3    H180566   3.173   1.821  13.367 -0.1211 -1.1965 -0.2816
19717TIP3    H280567   3.323   1.825  13.350 -0.1284 -0.6747 -0.2402
19718TIP3   OH280568   1.389   4.291   0.321  0.2451  0.4388 -0.4953
19718TIP3    H180569   1.393   4.358   0.390  0.5420 -0.0142 -0.0693
19718TIP3    H280570   1.470   4.305   0.271 -0.0521  0.8773 -0.8573
19719TIP3   OH280571   3.086   0.363  16.287  0.4167  1.0258  0.2836
19719TIP3    H180572   3.104   0.269  16.286 -1.8769  0.5520 -0.6323
19719TIP3    H280573   3.092   0.388  16.379  2.7978  0.3834  0.3460
19720TIP3   OH280574   1.680   1.736   5.478 -0.1650  0.5170  0.7507
19720TIP3    H180575   1.647   1.705   5.393 -0.6229 -0.3837  1.2557
19720TIP3    H280576   1.726   1.660   5.515 -0.4866  0.7301  1.5819
19721TIP3   OH280577   5.174   6.719   2.830 -0.5762  0.5338 -0.2702
19721TIP3    H180578   5.251   6.675   2.794  0.4318  1.8646  0.2175
19721TIP3    H280579   5.152   6.785   2.765 -3.0157 -1.6462 -1.7269
19722TIP3   OH280580   3.411   3.229   5.589  0.3974  0.6440  0.0037
19722TIP3    H180581   3.504   3.207   5.599  0.5263  1.6883  1.1587
19722TIP3    H280582   3.403   3.317   5.625 -1.3897 -0.1442  1.6089
19723TIP3   OH280583   0.704   2.633   1.002  0.1103  0.1720  0.4706
19723TIP3    H180584   0.761   2.604   1.073  0.2426 -1.2424 -0.2097
19723TIP3    H280585   0.636   2.566   0.997 -1.5665  1.7904  1.2068
19724TIP3   OH280586   5.912   3.540   6.200 -0.2252  0.5569  0.4924
19724TIP3    H180587   5.822   3.511   6.213  0.0061 -0.2218  0.3933
19724TIP3    H280588   5.947   3.550   6.289  0.7635 -2.8971  0.5578
19725TIP3   OH280589   3.898   0.829  15.869 -0.0396  0.1055 -0.1263
19725TIP3    H180590   3.963   0.761  15.889  0.3031  0.3905 -0.2804
19725TIP3    H280591   3.913   0.896  15.935 -0.3732  0.0384  0.0187
19726TIP3   OH280592   2.124   0.599  12.730 -0.1587  0.2481 -0.4070
19726TIP3    H180593   2.189   0.595  12.660 -0.4176  0.3713 -0.6517
19726TIP3    H280594   2.151   0.675  12.783  1.4227 -1.2534  0.9952
19727TIP3   OH280595   2.728   5.367   0.128 -0.7631 -0.0076 -0.4651
19727TIP3    H180596   2.674   5.363   0.208 -2.5975  1.6148 -1.5858
19727TIP3    H280597   2.665   5.382   0.058  1.0306  0.4041 -2.0134
19728TIP3   OH280598   1.787   5.769   3.272 -0.4857  0.0644 -0.0420
19728TIP3    H180599   1.761   5.689   3.226  0.0166 -1.4143  2.1971
19728TIP3    H280600   1.743   5.764   3.357  1.5461  0.9216  1.0934
19729TIP3   OH280601   3.948   5.686   1.126  0.3348 -0.0008  0.2269
19729TIP3    H180602   3.869   5.713   1.174 -0.7525 -5.0294  1.6003
19729TIP3    H280603   3.922   5.690   1.034 -0.3058  1.7542  0.4540
19730TIP3   OH280604   5.385   5.669   5.468 -0.2722 -0.6413 -0.6813
19730TIP3    H180605   5.386   5.761   5.443 -0.4398 -1.0142 -2.1015
19730TIP3    H280606   5.446   5.627   5.407 -2.5176 -1.9623 -2.0771
19731TIP3   OH280607   6.664   4.531  14.419 -0.5259 -1.3204 -0.2464
19731TIP3    H180608   6.595   4.514  14.483  0.8007 -0.8415  1.3377
19731TIP3    H280609   6.681   4.625  14.426  0.0873 -1.3843 -0.8239
19732TIP3   OH280610   6.642   1.755  15.903 -0.2450 -0.3310 -0.5053
19732TIP3    H180611   6.561   1.722  15.863 -0.1493 -0.3898 -0.6508
19732TIP3    H280612   6.669   1.826  15.845  1.3464 -2.1513 -2.0371
19733TIP3   OH280613   0.446   3.103   4.259 -0.1688 -0.2272 -0.3580
19733TIP3    H180614   0.529   3.123   4.216  0.1908 -2.0845 -0.5717
19733TIP3    H280615   0.440   3.167   4.331  0.9022  0.6272 -1.0215
19734TIP3   OH280616   3.103   6.709   1.635  0.0561  0.8386 -0.5751
19734TIP3    H180617   3.086   6.703   1.541 -0.5984  1.9254 -0.5392
19734TIP3    H280618   3.149   6.792   1.645 -1.4589  1.5992  0.2783
19735TIP3   OH280619   0.991   5.955  14.942 -0.7351 -0.0315 -0.2177
19735TIP3    H180620   1.001   6.022  14.874  0.1722  1.1500  1.0579
19735TIP3    H280621   1.078   5.947  14.981 -1.4650 -0.0046  1.4428
19736TIP3   OH280622   1.083   1.963   1.367 -0.4010  0.1610 -0.3027
19736TIP3    H180623   1.052   1.873   1.378  0.0749  0.2702  2.2557
19736TIP3    H280624   1.152   1.972   1.432  0.0769  2.1572 -1.0645
19737TIP3   OH280625   4.690   4.614   4.129  0.3499  0.3494 -0.0432
19737TIP3    H180626   4.595   4.618   4.143  0.3850 -1.3105  0.8156
19737TIP3    H280627   4.703   4.534   4.078  1.1578  1.4151 -1.5481
19738TIP3   OH280628   1.152   5.797   3.848  0.1574 -1.1397 -0.4710
19738TIP3    H180629   1.076   5.809   3.792 -0.8103 -0.6145  0.9471
19738TIP3    H280630   1.119   5.807   3.937  1.8539 -1.0328  0.1709
19739TIP3   OH280631   1.566   5.475   2.869 -0.0352 -0.3332  0.3626
19739TIP3    H180632   1.567   5.451   2.962 -1.4878 -0.3550  0.3879
19739TIP3    H280633   1.506   5.550   2.864 -1.2701 -1.3681 -0.7930
19740TIP3   OH280634   3.750   3.043  17.233 -0.1759 -0.0607 -0.1832
19740TIP3    H180635   3.710   2.958  17.213  0.5182 -0.2896 -0.5951
19740TIP3    H280636   3.709   3.069  17.316  0.2732 -1.2230  0.4239
19741TIP3   OH280637   6.651   2.158   4.049 -0.3861 -0.7173  0.4999
19741TIP3    H180638   6.613   2.192   3.968 -0.0165 -2.0606 -0.2590
19741TIP3    H280639   6.584   2.174   4.115 -1.7633 -1.8688 -0.5695
19742TIP3   OH280640   4.819   6.467   2.634 -0.0097 -0.2651 -0.1085
19742TIP3    H180641   4.898   6.475   2.579 -0.0518  0.5576 -0.0611
19742TIP3    H280642   4.776   6.552   2.625 -0.9292 -0.7329 -0.1822
19743TIP3   OH280643   3.158   0.815  15.726 -0.0849 -0.4108 -0.2015
19743TIP3    H180644   3.091   0.882  15.740  0.3511 -0.1345  0.5636
19743TIP3    H280645   3.138   0.747  15.790 -0.8672 -1.2930 -1.3505
19744TIP3   OH280646   4.924   0.286  16.460  0.5019  0.0930 -0.2242
19744TIP3    H180647   4.958   0.375  16.451 -1.9139  1.1648  0.6705
19744TIP3    H280648   4.870   0.273  16.382  1.4153 -0.8820 -0.7060
19745TIP3   OH280649   1.972   1.525  13.803 -0.3331 -0.0783  0.8860
19745TIP3    H180650   1.923   1.446  13.780 -1.5709  0.9306  0.0344
19745TIP3    H280651   1.997   1.511  13.894 -1.2864 -1.0696  1.0122
19746TIP3   OH280652   2.506   5.678  14.398 -0.7735  0.5414  0.4590
19746TIP3    H180653   2.499   5.692  14.303 -1.8914  2.0149  0.7336
19746TIP3    H280654   2.552   5.594  14.407  0.7702  1.1603 -1.3653
19747TIP3   OH280655   6.003   5.119   2.024 -0.3519 -0.2705 -0.6510
19747TIP3    H180656   5.959   5.034   2.019 -0.6386 -0.1888  0.3118
19747TIP3    H280657   5.949   5.171   2.084 -0.2325  0.6316 -1.3068
19748TIP3   OH280658   4.745   5.792   3.766  0.3749 -0.4106 -0.4178
19748TIP3    H180659   4.754   5.770   3.673 -1.3003  1.2363 -1.0104
19748TIP3    H280660   4.834   5.815   3.793  0.5728  1.0154 -2.1565
19749TIP3   OH280661   4.388   0.343  15.405 -0.7681 -0.0433  0.0568
19749TIP3    H180662   4.357   0.257  15.377  1.5800 -1.0870  0.6281
19749TIP3    H280663   4.476   0.328  15.439 -0.6859  2.4363  1.0415
19750TIP3   OH280664   0.505   1.133   2.557 -0.0044 -0.0229 -0.0881
19750TIP3    H180665   0.519   1.044   2.527 -0.9971 -0.3594  0.4138
19750TIP3    H280666   0.412   1.136   2.580 -0.4141  1.6397 -1.7703
19751TIP3   OH280667   4.060   5.872  11.914 -0.0363 -0.3907 -0.0157
19751TIP3    H180668   4.136   5.893  11.859 -1.9456  1.4031 -2.0699
19751TIP3    H280669   4.045   5.779  11.900  1.1614 -0.5236 -0.4241
19752TIP3   OH280670   1.913   2.423   5.574  0.2256  0.1831 -0.2057
19752TIP3    H180671   1.907   2.330   5.555 -2.6018  0.6682 -1.9514
19752TIP3    H280672   1.947   2.461   5.492  3.9953  0.4353  1.3748
19753TIP3   OH280673   2.852   1.974  14.777  0.0943  0.2568 -0.3154
19753TIP3    H180674   2.775   2.028  14.796  0.1120  0.8206 -1.7661
19753TIP3    H280675   2.819   1.907  14.716  0.3484 -0.6273  0.5085
19754TIP3   OH280676   5.783   4.071  11.653 -0.3869 -0.1217 -0.2669
19754TIP3    H180677   5.788   4.069  11.748  0.6499 -2.0425 -0.3298
19754TIP3    H280678   5.716   4.005  11.632  0.9501 -1.2862 -0.9357
19755TIP3   OH280679   1.831   5.881  11.094  0.8462 -0.2176  0.2124
19755TIP3    H180680   1.738   5.892  11.073 -0.1149 -3.1230  2.5047
19755TIP3    H280681   1.832   5.860  11.188  3.6433 -1.9268 -0.1305
19756TIP3   OH280682   3.955   3.654   4.960  0.0142  0.0990 -0.6009
19756TIP3    H180683   3.990   3.691   4.879 -0.2896 -0.2567 -0.8943
19756TIP3    H280684   3.881   3.601   4.932  1.3153 -1.8975 -0.3493
19757TIP3   OH280685   5.678   1.312   0.571 -0.1401  0.2182  0.2200
19757TIP3    H180686   5.743   1.338   0.636  0.8065 -2.5652  0.4367
19757TIP3    H280687   5.713   1.344   0.488  0.3855  0.7085  0.6250
19758TIP3   OH280688   3.134   5.360  10.705  0.3068 -0.6867 -0.1060
19758TIP3    H180689   3.196   5.364  10.633 -0.2135 -1.0869 -0.5851
19758TIP3    H280690   3.085   5.442  10.700 -0.1951 -1.0154 -0.6393
19759TIP3   OH280691   6.612   4.214  11.280  0.3691 -0.3591 -0.3900
19759TIP3    H180692   6.705   4.219  11.301  0.4183 -0.8260 -0.4854
19759TIP3    H280693   6.599   4.123  11.253 -0.0151 -0.1669 -0.8515
19760TIP3   OH280694   2.603   0.211  15.458  0.0492 -0.5005 -0.0072
19760TIP3    H180695   2.694   0.228  15.483  0.0228 -0.6240  0.1723
19760TIP3    H280696   2.609   0.138  15.396  0.1542  0.1088 -0.7121
19761TIP3   OH280697   3.804   4.811   1.415 -0.9849  0.0734  0.0321
19761TIP3    H180698   3.772   4.865   1.343 -2.1766  0.9236  1.1559
19761TIP3    H280699   3.795   4.721   1.384 -2.5817  0.3786 -0.4663
19762TIP3   OH280700   6.354   2.755  16.559  0.5849 -0.2477 -0.1145
19762TIP3    H180701   6.315   2.713  16.482 -2.0085  1.4676  0.1975
19762TIP3    H280702   6.288   2.744  16.628  1.8002  0.4510  1.1695
19763TIP3   OH280703   0.536   2.504  13.546  0.0479  0.4878  0.2600
19763TIP3    H180704   0.573   2.589  13.571  1.8757 -0.0071 -0.7262
19763TIP3    H280705   0.608   2.457  13.505 -0.6944 -1.9355  1.6467
19764TIP3   OH280706   4.463   0.173  12.910 -0.1834 -0.2119 -0.4801
19764TIP3    H180707   4.552   0.137  12.907  0.3651  1.1359 -0.3982
19764TIP3    H280708   4.426   0.138  12.991 -0.6074 -2.7880 -1.7281
19765TIP3   OH280709   6.288   1.975  11.951  0.2173 -0.7270  0.2209
19765TIP3    H180710   6.325   2.043  11.894 -0.2258 -0.4585  0.2519
19765TIP3    H280711   6.245   1.914  11.891  0.0511 -0.6302  0.2422
19766TIP3   OH280712   2.657   0.710   0.220 -0.0872  0.0680 -0.0701
19766TIP3    H180713   2.646   0.636   0.160 -1.4915 -0.1167  0.3836
19766TIP3    H280714   2.695   0.780   0.166  0.0874 -0.5844 -0.7991
19767TIP3   OH280715   1.300   5.969   4.883  0.0659 -0.0143 -0.1883
19767TIP3    H180716   1.206   5.960   4.894 -0.2597  1.9257 -1.2526
19767TIP3    H280717   1.334   5.880   4.897 -2.0388 -1.0162 -1.1786
19768TIP3   OH280718   4.623   0.599   3.757  0.8694  0.5240 -0.3712
19768TIP3    H180719   4.553   0.632   3.699  0.5705  2.0012  0.8039
19768TIP3    H280720   4.699   0.589   3.699  0.7040  2.4250 -0.9619
19769TIP3   OH280721   4.868   0.097  16.820  0.0006 -0.0702  0.1834
19769TIP3    H180722   4.790   0.136  16.781  0.6475  1.2868  0.2108
19769TIP3    H280723   4.936   0.106  16.753  0.6021  0.4590  0.8480
19770TIP3   OH280724   4.259   4.239   6.429  0.5266 -0.3566 -0.6752
19770TIP3    H180725   4.322   4.230   6.500  2.2464 -0.1791 -2.1479
19770TIP3    H280726   4.224   4.151   6.417  2.5737 -1.0572 -1.7143
19771TIP3   OH280727   1.542   0.968   1.683 -1.2287  0.4909  0.7320
19771TIP3    H180728   1.538   0.982   1.588 -0.1128  2.0779  0.8890
19771TIP3    H280729   1.566   0.876   1.693 -0.7484  0.4654 -0.5521
19772TIP3   OH280730   4.941   1.696  17.109  0.0046  0.0401 -0.4704
19772TIP3    H180731   5.015   1.636  17.107 -0.8068 -1.0612  1.2659
19772TIP3    H280732   4.947   1.740  17.194 -0.7408  0.6975 -0.7450
19773TIP3   OH280733   5.971   3.975   1.979  0.0738  0.5383  0.0842
19773TIP3    H180734   5.891   4.025   1.996 -1.1678 -1.1242 -0.8118
19773TIP3    H280735   6.038   4.042   1.966 -1.5687  2.0018 -1.1533
19774TIP3   OH280736   2.990   2.836  15.093  0.0207 -0.5528  0.0490
19774TIP3    H180737   3.045   2.813  15.018  0.8373  1.4259  0.0262
19774TIP3    H280738   3.051   2.849  15.165 -0.4646  0.9530  0.2002
19775TIP3   OH280739   5.364   2.899   5.365 -0.1828 -0.5184 -0.2631
19775TIP3    H180740   5.279   2.889   5.408 -0.8499  1.2124 -1.1143
19775TIP3    H280741   5.343   2.909   5.272  0.9532 -0.1447 -0.4918
19776TIP3   OH280742   1.170   2.383   3.942  0.2071  0.1681  0.6003
19776TIP3    H180743   1.179   2.468   3.899 -0.1083 -0.0943  0.0018
19776TIP3    H280744   1.248   2.335   3.915  0.6000  0.4151  1.2876
19777TIP3   OH280745   3.150   0.370  16.607  0.2139 -0.0011 -0.1942
19777TIP3    H180746   3.197   0.339  16.684 -0.8329  0.4430  0.6298
19777TIP3    H280747   3.219   0.388  16.543  1.2958  1.9560  1.4440
19778TIP3   OH280748   3.227   2.586   2.084  0.2089 -0.1982 -0.3133
19778TIP3    H180749   3.203   2.515   2.143  1.4411 -0.6554 -0.3493
19778TIP3    H280750   3.193   2.665   2.125  0.2984 -0.6183  0.5719
19779TIP3   OH280751   2.821   1.649   2.237  0.4880 -0.0677  0.1617
19779TIP3    H180752   2.913   1.647   2.265  0.6462 -1.3989 -0.4232
19779TIP3    H280753   2.817   1.720   2.173  0.8904  0.6472  0.9162
19780TIP3   OH280754   1.651   4.763   1.546 -0.1723 -0.4578  0.3884
19780TIP3    H180755   1.610   4.757   1.460  1.0289 -0.9751 -0.1540
19780TIP3    H280756   1.582   4.738   1.607 -0.8785 -0.5962 -0.4533
19781TIP3   OH280757   6.209   3.458   6.762 -0.4829 -0.4016 -0.3562
19781TIP3    H180758   6.229   3.520   6.692 -2.2773 -0.5051 -0.9776
19781TIP3    H280759   6.141   3.401   6.726 -0.8067 -1.0145  1.1682
19782TIP3   OH280760   1.740   5.141  13.698 -0.3325 -0.2180  0.1665
19782TIP3    H180761   1.731   5.213  13.635 -3.5616 -0.0392  0.7232
19782TIP3    H280762   1.728   5.062  13.645  2.3902 -0.3532 -0.3048
19783TIP3   OH280763   4.958   2.774  14.995 -0.1741  0.1826  0.3569
19783TIP3    H180764   4.945   2.686  14.960 -0.9355 -0.3138  1.8485
19783TIP3    H280765   5.050   2.792  14.978  0.0474 -0.9874  0.2222
19784TIP3   OH280766   4.415   5.745  17.152 -0.0967 -0.4181  0.1995
19784TIP3    H180767   4.455   5.663  17.124 -0.3461 -0.1224 -1.0477
19784TIP3    H280768   4.462   5.768  17.233  2.5975  0.1716 -1.4726
19785TIP3   OH280769   6.008   4.851  11.257  0.1017  0.5712  0.4872
19785TIP3    H180770   6.019   4.760  11.232  2.0500  1.0678 -0.6382
19785TIP3    H280771   5.914   4.868  11.248  0.1887 -0.3738 -2.7246
19786TIP3   OH280772   0.501   2.178  12.691 -0.5140  0.0372 -0.5380
19786TIP3    H180773   0.416   2.220  12.699 -1.4157 -1.2675 -3.0051
19786TIP3    H280774   0.535   2.177  12.781 -1.9568  2.8395  0.0926
19787TIP3   OH280775   2.537   6.778   1.437  0.3968 -0.0493  0.0224
19787TIP3    H180776   2.507   6.841   1.372 -0.1115 -0.8580 -0.5416
19787TIP3    H280777   2.613   6.820   1.478  0.8965  0.3523 -1.2810
19788TIP3   OH280778   0.199   0.405  13.458 -0.2707  0.2995 -0.3525
19788TIP3    H180779   0.201   0.403  13.362  1.5526  1.5943 -0.3769
19788TIP3    H280780   0.230   0.319  13.485 -0.6959 -0.0332 -0.9216
19789TIP3   OH280781   3.788   3.738  11.123  0.7646  0.0932  0.1247
19789TIP3    H180782   3.731   3.678  11.075  0.6644  0.3401 -0.0639
19789TIP3    H280783   3.848   3.772  11.056  2.1326 -1.3281  0.5765
19790TIP3   OH280784   4.114   6.340   0.036 -0.1099  0.5378  0.3681
19790TIP3    H180785   4.022   6.366   0.048  0.3090  2.7109 -0.8211
19790TIP3    H280786   4.151   6.341   0.124 -0.6420  2.0255  0.5959
19791TIP3   OH280787   6.003   1.598   0.091  0.2236 -0.3346  0.0602
19791TIP3    H180788   5.962   1.534   0.150  0.4463 -0.8330 -0.3196
19791TIP3    H280789   5.948   1.675   0.097 -0.3023 -0.7160  0.1826
19792TIP3   OH280790   2.083   6.275   4.769 -0.1990  0.3075 -0.2994
19792TIP3    H180791   2.021   6.282   4.697 -0.2133  0.2520 -0.2920
19792TIP3    H280792   2.045   6.209   4.827 -0.9108  1.3835  0.4797
19793TIP3   OH280793   5.711   5.006   2.796 -0.0048 -0.0885  0.1013
19793TIP3    H180794   5.662   4.984   2.716  1.1193 -1.0284 -0.3382
19793TIP3    H280795   5.658   5.073   2.838  0.5303  2.1579 -2.6446
19794TIP3   OH280796   0.019   5.533  17.072 -0.5596 -0.2984 -0.0678
19794TIP3    H180797   0.094   5.569  17.025 -0.7343 -1.2057 -1.0467
19794TIP3    H280798   0.025   5.573  17.159 -0.2616  1.4108 -0.8487
19795TIP3   OH280799   2.646   4.428   0.574 -0.5991  0.1408 -0.1046
19795TIP3    H180800   2.669   4.404   0.664  2.7853 -0.6928 -1.1291
19795TIP3    H280801   2.642   4.523   0.575 -1.4444  0.0975  1.1289
19796TIP3   OH280802   6.272   3.485   5.996 -0.2446  0.2528 -0.4473
19796TIP3    H180803   6.203   3.540   5.959  0.0579  1.2101  0.3696
19796TIP3    H280804   6.277   3.512   6.088  1.8311  0.8480 -0.7091
19797TIP3   OH280805   1.129   4.770  11.470 -0.5614 -0.0157 -0.9881
19797TIP3    H180806   1.207   4.716  11.478 -0.3532 -0.1745 -3.6372
19797TIP3    H280807   1.161   4.860  11.462 -0.6833  0.0237 -1.0507
19798TIP3   OH280808   4.947   3.077  11.283 -0.6818 -0.1395  0.5657
19798TIP3    H180809   4.994   3.141  11.230 -1.1631  0.3507  0.7261
19798TIP3    H280810   4.937   3.001  11.226  0.2146 -0.2139  0.4963
19799TIP3   OH280811   2.990   4.185  15.686 -0.4851  0.1433  0.8149
19799TIP3    H180812   3.058   4.118  15.680 -0.2134  0.1616  3.2111
19799TIP3    H280813   2.984   4.222  15.598  3.3193  0.8403  0.7665
19800TIP3   OH280814   6.610   5.827   3.212  0.6411  0.2098 -0.0612
19800TIP3    H180815   6.686   5.853   3.264 -0.2304  0.4650  1.1170
19800TIP3    H280816   6.615   5.731   3.207  0.3649  0.1210  1.1098
19801TIP3   OH280817   2.435   4.089   1.294 -0.1739 -0.2448  0.2255
19801TIP3    H180818   2.471   4.175   1.319 -1.2193  1.2123 -2.9610
19801TIP3    H280819   2.344   4.107   1.272 -0.7728 -2.4676  0.7753
19802TIP3   OH280820   4.573   1.633  12.149  0.3555  0.1441 -0.4145
19802TIP3    H180821   4.532   1.680  12.222 -0.0105  0.1334 -0.6084
19802TIP3    H280822   4.536   1.545  12.154 -1.6886  0.8639 -2.1771
19803TIP3   OH280823   3.665   2.040  11.289 -0.2383  0.4296 -0.7745
19803TIP3    H180824   3.731   2.001  11.232 -1.0794  1.1518 -2.2664
19803TIP3    H280825   3.715   2.086  11.356  0.7669 -1.8382  0.0891
19804TIP3   OH280826   5.398   2.033   2.770 -1.0580 -0.1899  0.3367
19804TIP3    H180827   5.308   2.057   2.793 -0.5171  1.0170  1.2276
19804TIP3    H280828   5.388   1.961   2.707 -2.6237 -0.5501  0.9790
19805TIP3   OH280829   3.802   5.692  14.948  0.4560  0.0625 -0.0281
19805TIP3    H180830   3.752   5.686  15.029  0.2622 -1.3035 -0.2343
19805TIP3    H280831   3.754   5.754  14.893  0.3133  0.5976  0.7009
19806TIP3   OH280832   0.852   6.716   2.340  0.4084  0.1934 -0.3217
19806TIP3    H180833   0.851   6.807   2.369  0.7378 -0.9732  3.6681
19806TIP3    H280834   0.944   6.695   2.330  0.3441  0.1769 -0.9035
19807TIP3   OH280835   1.793   0.894  10.449 -0.0146 -0.2102  0.1012
19807TIP3    H180836   1.835   0.971  10.487 -1.6636  0.7860 -0.0698
19807TIP3    H280837   1.863   0.828  10.445  1.3673  1.2183  0.3800
19808TIP3   OH280838   5.129   2.082   0.029  0.6667 -0.4666  0.1593
19808TIP3    H180839   5.103   2.174   0.023  1.9081 -0.0715  0.7144
19808TIP3    H280840   5.164   2.062  -0.058 -1.8367 -1.1274 -0.7303
19809TIP3   OH280841   0.994   1.720   4.929 -0.0423  0.4941  0.1239
19809TIP3    H180842   1.069   1.665   4.909 -0.0134  0.5953 -0.0449
19809TIP3    H280843   0.926   1.659   4.958  0.6675  0.5515  1.9656
19810TIP3   OH280844   2.210   1.886   0.211  0.1384  0.6488  0.6282
19810TIP3    H180845   2.198   1.816   0.275  2.2160 -1.7560 -1.5301
19810TIP3    H280846   2.249   1.958   0.261 -0.7863 -0.2062  2.6047
19811TIP3   OH280847   1.687   1.698   6.843  0.4313 -0.0605  0.3636
19811TIP3    H180848   1.614   1.636   6.846  0.1053  0.2411 -1.3355
19811TIP3    H280849   1.763   1.645   6.819  0.4754 -0.0809  0.5419
19812TIP3   OH280850   5.555   4.382  16.549 -0.2591  0.1952 -0.1334
19812TIP3    H180851   5.490   4.312  16.548 -0.5310  0.4212  0.8988
19812TIP3    H280852   5.572   4.401  16.457 -2.2274  0.6739 -0.4219
19813TIP3   OH280853   6.503   5.583  15.438 -0.6320 -0.0136 -0.1684
19813TIP3    H180854   6.558   5.644  15.390  2.2562  0.3713  3.3941
19813TIP3    H280855   6.426   5.634  15.464  0.9032  1.6105  1.2339
19814TIP3   OH280856   5.873   3.999  16.896 -0.3634 -0.2805 -0.1648
19814TIP3    H180857   5.874   4.083  16.942  0.0412 -0.9646  1.1031
19814TIP3    H280858   5.805   4.009  16.830 -0.0777  1.1713 -0.2623
19815TIP3   OH280859   0.973   0.125  12.736 -0.3460 -0.1790  0.0602
19815TIP3    H180860   0.973   0.030  12.730  0.7112 -0.1898  0.1268
19815TIP3    H280861   0.892   0.152  12.693 -1.9728 -1.2416  2.3441
19816TIP3   OH280862   4.237   0.488  14.365  0.7819  0.0372 -0.1244
19816TIP3    H180863   4.184   0.445  14.432  0.2810  1.4806  0.4221
19816TIP3    H280864   4.179   0.554  14.327  1.8942  1.0318 -0.1265
19817TIP3   OH280865   5.346   2.774   3.144  0.2067  0.2793  0.1601
19817TIP3    H180866   5.289   2.738   3.077  1.9181 -2.3611  0.0674
19817TIP3    H280867   5.317   2.732   3.225 -1.9400  3.5422  1.2081
19818TIP3   OH280868   4.865   1.833  10.906 -0.0604 -0.4166 -0.7743
19818TIP3    H180869   4.795   1.871  10.853  0.3268 -1.5397 -2.1222
19818TIP3    H280870   4.918   1.783  10.844  1.2413 -0.5686  0.4316
19819TIP3   OH280871   3.053   0.478   1.432 -0.1565 -0.3405 -0.4072
19819TIP3    H180872   2.963   0.485   1.402 -0.6003 -0.3008  0.9476
19819TIP3    H280873   3.080   0.568   1.451 -0.0689 -0.4312 -0.0998
19820TIP3   OH280874   5.590   0.055  15.178  0.1941 -0.1878  0.3694
19820TIP3    H180875   5.645  -0.000  15.123 -1.1895 -0.6992 -0.5270
19820TIP3    H280876   5.523  -0.004  15.212  0.4938  0.3171  1.8757
19821TIP3   OH280877   6.005   5.503   3.747 -0.0112 -0.1935 -0.2825
19821TIP3    H180878   6.006   5.562   3.823 -0.8604  0.1363 -0.5250
19821TIP3    H280879   5.983   5.417   3.784 -0.3170 -0.0553 -0.1428
19822TIP3   OH280880   2.483   5.115   5.874 -0.3393  0.1952 -0.0699
19822TIP3    H180881   2.457   5.028   5.902 -1.1077  0.0660 -1.1354
19822TIP3    H280882   2.458   5.172   5.947 -0.9539 -0.3164  0.1252
19823TIP3   OH280883   4.520   6.547   2.629  0.4395 -0.3246  0.2158
19823TIP3    H180884   4.558   6.480   2.685 -0.1310  0.4889  1.5839
19823TIP3    H280885   4.588   6.614   2.622  0.7956 -0.7645 -0.6972
19824TIP3   OH280886   1.282   3.386   2.230 -0.3401  0.7606  0.0491
19824TIP3    H180887   1.229   3.426   2.161 -0.4584  0.1948 -0.2001
19824TIP3    H280888   1.218   3.348   2.290 -0.2373  1.3089  0.5089
19825TIP3   OH280889   4.065   5.073   5.764  0.4498 -0.1747 -0.3352
19825TIP3    H180890   4.089   4.994   5.717  0.6037 -0.2385 -0.1508
19825TIP3    H280891   4.139   5.133   5.750  0.3700 -0.0928 -0.4077
19826TIP3   OH280892   6.268   4.010   0.784  0.4841  0.1606 -0.1033
19826TIP3    H180893   6.326   4.058   0.843  1.1309  1.2275 -1.5863
19826TIP3    H280894   6.183   4.011   0.828  1.2677 -0.2416  1.4470
19827TIP3   OH280895   4.744   5.340   1.724  0.4316 -0.1370  0.1365
19827TIP3    H180896   4.687   5.273   1.687  0.0785 -0.2354  0.8564
19827TIP3    H280897   4.688   5.417   1.735  0.6819  0.0794 -0.0888
19828TIP3   OH280898   4.164   4.767  16.867  0.3861  0.2247 -0.1024
19828TIP3    H180899   4.255   4.771  16.838  0.9310  0.1157  1.5334
19828TIP3    H280900   4.169   4.733  16.957 -1.2027  0.9669  0.2880
19829TIP3   OH280901   3.107   2.268  15.242 -0.0798  0.2143 -0.7201
19829TIP3    H180902   3.194   2.228  15.240 -0.2957 -0.2237 -1.8594
19829TIP3    H280903   3.124   2.362  15.233  0.3105  0.1856 -0.2894
19830TIP3   OH280904   6.458   4.275  14.881 -0.4363  0.0406 -0.0588
19830TIP3    H180905   6.389   4.333  14.848 -0.8866 -0.0195  0.7744
19830TIP3    H280906   6.521   4.334  14.924 -0.2164  0.0437 -0.3807
19831TIP3   OH280907   0.530   1.114  10.329 -0.3608 -0.0831 -0.5771
19831TIP3    H180908   0.532   1.024  10.296 -1.0357  0.2460 -1.5471
19831TIP3    H280909   0.526   1.168  10.250 -1.1296  0.7516  0.0258
19832TIP3   OH280910   4.441   1.773   4.310  0.4918  0.2917 -0.1864
19832TIP3    H180911   4.353   1.807   4.323  0.4538  0.0272  0.2281
19832TIP3    H280912   4.495   1.852   4.296  0.1869  0.4491 -0.4702
19833TIP3   OH280913   3.093   5.620  12.788  0.7512  0.1777  0.1267
19833TIP3    H180914   3.142   5.635  12.869 -1.8916 -0.0713  1.8319
19833TIP3    H280915   3.099   5.703  12.740  0.9048  0.9022  1.3770
19834TIP3   OH280916   2.232   6.624  15.842  0.1241  0.3860  0.5964
19834TIP3    H180917   2.283   6.610  15.762  2.5572 -0.6722  2.2416
19834TIP3    H280918   2.184   6.543  15.855 -0.3556  0.5991  0.1517
19835TIP3   OH280919   2.558   1.173  14.318 -0.1609  0.2521 -0.4150
19835TIP3    H180920   2.490   1.167  14.385 -0.9280 -0.4445 -1.2321
19835TIP3    H280921   2.515   1.216  14.244  0.5488  0.6106 -0.6275
19836TIP3   OH280922   1.959   4.036  15.087 -0.5966 -0.7132  0.4613
19836TIP3    H180923   1.883   4.002  15.039 -0.7518  1.2277 -0.6996
19836TIP3    H280924   1.928   4.117  15.128  1.3202  1.1285 -1.5934
19837TIP3   OH280925   2.467   3.080  15.018 -0.0556 -0.4399  0.1042
19837TIP3    H180926   2.543   3.085  14.959 -0.6558  1.6498 -0.5645
19837TIP3    H280927   2.394   3.056  14.961 -0.5197  0.9617  0.0850
19838TIP3   OH280928   4.163   4.295   3.013  0.5122 -0.1570  0.1178
19838TIP3    H180929   4.122   4.359   3.072  2.3844  1.4622 -0.2692
19838TIP3    H280930   4.238   4.261   3.062  1.5685  0.5574 -0.9786
19839TIP3   OH280931   1.410   0.360   0.084 -0.1422 -0.3546 -0.5813
19839TIP3    H180932   1.450   0.320   0.161 -0.0138 -0.2174 -0.5752
19839TIP3    H280933   1.334   0.407   0.118  1.0569  1.3934 -0.2357
19840TIP3   OH280934   2.958   1.836  16.476  0.2476  0.2697  0.1134
19840TIP3    H180935   2.932   1.818  16.566 -1.6488  1.1571 -0.2163
19840TIP3    H280936   2.906   1.913  16.451  0.9262  0.1912 -1.6463
19841TIP3   OH280937   1.699   3.842  17.144  0.3591  0.4803 -0.7221
19841TIP3    H180938   1.777   3.840  17.199  0.2014 -0.6495 -0.5385
19841TIP3    H280939   1.712   3.918  17.087  1.4201  0.5072 -0.4571
19842TIP3   OH280940   1.586   1.824   1.662 -0.1907  0.2236 -0.1581
19842TIP3    H180941   1.644   1.851   1.733 -0.3294  0.7170 -0.2274
19842TIP3    H280942   1.498   1.835   1.699 -0.2625  0.4683 -0.3984
19843TIP3   OH280943   2.548   4.900  16.501 -0.1361  0.6739  0.0868
19843TIP3    H180944   2.636   4.900  16.538  0.3480  0.5349 -1.0417
19843TIP3    H280945   2.508   4.820  16.534  0.6936 -0.0471 -0.6220
19844TIP3   OH280946   3.710   3.714  15.012 -0.2343 -0.1432 -0.4742
19844TIP3    H180947   3.695   3.801  15.048  0.2930  0.5639 -1.9203
19844TIP3    H280948   3.629   3.692  14.966 -0.5527 -0.6411  0.3082
19845TIP3   OH280949   0.368   1.587   3.848 -0.3672  0.1297 -0.2806
19845TIP3    H180950   0.278   1.611   3.872  0.0767  0.7509  0.7976
19845TIP3    H280951   0.419   1.667   3.863  0.1142  0.2686 -2.3857
19846TIP3   OH280952   6.159   5.950  13.661 -0.4290  0.1371 -0.2548
19846TIP3    H180953   6.078   5.970  13.615 -1.2714  2.3160  2.0872
19846TIP3    H280954   6.170   6.021  13.723  1.8741 -1.5324  1.3380
19847TIP3   OH280955   4.861   6.275   2.099  0.4090 -0.0597  0.0733
19847TIP3    H180956   4.896   6.361   2.074 -1.0509  0.2338 -1.0141
19847TIP3    H280957   4.910   6.213   2.044 -0.8467  0.3679 -1.5832
19848TIP3   OH280958   1.034   4.985  15.654  0.1398 -0.3293  0.4598
19848TIP3    H180959   1.064   5.059  15.601  2.9605 -1.0395  0.9931
19848TIP3    H280960   0.961   5.021  15.705 -0.7052  1.1501 -1.7306
19849TIP3   OH280961   1.571   4.898  14.862 -0.0417 -0.3614 -0.4323
19849TIP3    H180962   1.499   4.894  14.799 -0.6487  0.0340  0.2250
19849TIP3    H280963   1.532   4.871  14.945  0.5706 -0.1611 -0.0762
19850TIP3   OH280964   5.742   6.588   3.293 -0.0697 -0.0281  0.2901
19850TIP3    H180965   5.742   6.521   3.361 -2.2875  1.4921  1.8879
19850TIP3    H280966   5.821   6.639   3.310  0.6757 -1.1320  0.1826
19851TIP3   OH280967   4.482   4.790  15.086 -0.0531  0.1732  0.0345
19851TIP3    H180968   4.453   4.778  15.177  1.3054  0.4622  0.5257
19851TIP3    H280969   4.536   4.714  15.068 -1.0370 -0.3313 -0.8508
19852TIP3   OH280970   4.526   0.094  13.399  0.1271 -0.2391  0.0458
19852TIP3    H180971   4.620   0.096  13.418 -0.3128 -0.1305  2.3572
19852TIP3    H280972   4.492   0.174  13.439 -1.2199 -1.1623  0.7998
19853TIP3   OH280973   0.095   0.152   3.510  0.0730 -0.1224 -0.4249
19853TIP3    H180974   0.006   0.137   3.542 -0.5744 -0.0605 -2.1472
19853TIP3    H280975   0.147   0.083   3.551 -0.9343 -0.6862 -0.0884
19854TIP3   OH280976   3.114   5.303   2.037 -0.0014  0.1427 -0.1544
19854TIP3    H180977   3.204   5.269   2.034  0.0603 -0.0742  2.6281
19854TIP3    H280978   3.122   5.389   2.078 -0.9465  0.6696 -1.0469
19855TIP3   OH280979   4.561   5.950  13.573  0.0683 -0.1689  0.3605
19855TIP3    H180980   4.598   5.953  13.485  0.7062  2.1835  0.6770
19855TIP3    H280981   4.502   6.026  13.577  0.2129 -0.1171  2.0286
19856TIP3   OH280982   1.560   5.795  13.106 -0.7528 -0.6440 -0.2775
19856TIP3    H180983   1.521   5.859  13.165 -0.9134 -0.9386 -0.0606
19856TIP3    H280984   1.487   5.766  13.050 -0.5425 -0.1621 -0.8020
19857TIP3   OH280985   0.509   3.742  11.692 -0.4857 -1.2140  0.4443
19857TIP3    H180986   0.543   3.770  11.777 -0.8685  1.2831 -0.1870
19857TIP3    H280987   0.414   3.734  11.707 -0.4901 -1.2482  0.3943
19858TIP3   OH280988   6.423   4.663   5.935  0.0376 -0.5777 -0.1420
19858TIP3    H180989   6.434   4.690   5.844 -0.4137 -0.0100 -0.0340
19858TIP3    H280990   6.357   4.723   5.969  1.3699  0.2629  1.0056
19859TIP3   OH280991   0.055   6.156  16.350  0.5905  0.0115  0.3414
19859TIP3    H180992   0.014   6.070  16.360 -0.2402  0.3947  0.2513
19859TIP3    H280993  -0.009   6.217  16.387  1.1118  0.6087  0.2599
19860TIP3   OH280994   1.833   2.276   1.499 -0.0369 -0.0509  0.3070
19860TIP3    H180995   1.920   2.303   1.471  0.1497 -0.9131  0.0584
19860TIP3    H280996   1.780   2.278   1.419 -0.0975 -0.1373  0.3448
19861TIP3   OH280997   6.623   3.304   6.183  0.0730 -0.1006  0.2642
19861TIP3    H180998   6.657   3.234   6.238  0.8325  1.5882  2.0147
19861TIP3    H280999   6.683   3.378   6.198 -0.0261  0.5760 -2.4135
19862TIP3   OH281000   1.468   0.507  12.980 -0.1338 -0.1010  0.2797
19862TIP3    H181001   1.494   0.592  13.014 -0.3623 -0.4153  1.2517
19862TIP3    H281002   1.373   0.505  12.990  0.0166 -1.0208  1.5422
19863TIP3   OH281003   2.327   4.313   0.267 -0.3158 -0.2438 -0.1075
19863TIP3    H181004   2.281   4.373   0.327  0.9816  0.9177 -0.2462
19863TIP3    H281005   2.395   4.273   0.321 -0.4139 -0.6971 -0.3183
19864TIP3   OH281006   5.640   4.217   4.905  0.6306  0.0338  0.2691
19864TIP3    H181007   5.558   4.184   4.943  0.3097 -0.3410 -0.7477
19864TIP3    H281008   5.617   4.244   4.816  1.6894 -0.4175 -0.1480
19865TIP3   OH281009   1.691   2.310  10.859  0.2408 -0.0837  0.6621
19865TIP3    H181010   1.667   2.244  10.924  0.5602  0.3702  1.2464
19865TIP3    H281011   1.785   2.322  10.871  0.4426 -0.5203 -0.3755
19866TIP3   OH281012   0.542   4.296  13.360 -0.2593 -0.4559  0.3715
19866TIP3    H181013   0.457   4.338  13.343 -0.0581  0.0097  0.5171
19866TIP3    H281014   0.555   4.306  13.454  0.5872  0.6822  0.1527
19867TIP3   OH281015   0.868   3.888   0.485 -1.0155  0.2871 -0.3168
19867TIP3    H181016   0.815   3.947   0.539 -1.5377 -0.2999 -0.1936
19867TIP3    H281017   0.857   3.802   0.524  0.0976  0.1752 -0.2451
19868TIP3   OH281018   6.560   4.253   1.595  0.0096 -0.7577 -0.1710
19868TIP3    H181019   6.498   4.215   1.532 -0.8979 -0.6691  0.6539
19868TIP3    H281020   6.635   4.280   1.542  0.1744 -2.6413 -0.9301
19869TIP3   OH281021   3.701   4.917   1.207 -1.4868  1.1381 -0.0611
19869TIP3    H181022   3.661   4.837   1.173  0.5434 -0.6755  1.6575
19869TIP3    H281023   3.634   4.984   1.197 -2.9062 -0.5656 -2.3919
19870TIP3   OH281024   1.769   1.129  13.282 -0.0789  0.2782 -0.1408
19870TIP3    H181025   1.811   1.199  13.232  1.2107  0.0706  0.6414
19870TIP3    H281026   1.824   1.117  13.359 -0.4572 -1.3699 -0.0978
19871TIP3   OH281027   3.081   6.283  16.190 -0.8714 -0.2857 -0.3827
19871TIP3    H181028   3.025   6.218  16.233 -1.4750  1.0134  0.8188
19871TIP3    H281029   3.051   6.284  16.099 -2.4758  0.0619  0.1474
19872TIP3   OH281030   1.432   3.205   0.770  0.2952  0.5672  0.1533
19872TIP3    H181031   1.357   3.259   0.749 -0.5900 -0.4967  0.5538
19872TIP3    H281032   1.396   3.127   0.812  1.3167 -1.4641 -2.5585
19873TIP3   OH281033   2.804   4.909  16.620 -0.1870  0.7394  0.2762
19873TIP3    H181034   2.825   4.952  16.702 -1.1033  1.7492 -0.0073
19873TIP3    H281035   2.841   4.821  16.629  1.5898  1.5268  0.9043
19874TIP3   OH281036   4.815   6.357   4.105 -0.3130  0.4593  0.0260
19874TIP3    H181037   4.720   6.347   4.107 -0.1589 -1.0186  1.6578
19874TIP3    H281038   4.843   6.301   4.032 -0.7255  1.4575 -0.9199
19875TIP3   OH281039   4.769   4.354  13.061 -0.8011  0.7275  0.1554
19875TIP3    H181040   4.803   4.304  13.136 -1.1472 -0.2033 -0.2977
19875TIP3    H281041   4.725   4.429  13.100 -3.1140 -1.0265  1.0352
19876TIP3   OH281042   2.333   4.767  16.189 -0.5080 -0.0764 -0.1549
19876TIP3    H181043   2.239   4.757  16.205 -0.4518  0.6753  0.6714
19876TIP3    H281044   2.340   4.780  16.095 -1.3891  1.5711 -0.0029
19877TIP3   OH281045   1.887   4.852   4.203  0.7904 -0.6332 -0.0060
19877TIP3    H181046   1.893   4.759   4.179 -0.0208 -0.3696 -1.2901
19877TIP3    H281047   1.794   4.869   4.209  0.9502 -0.0420  0.8540
19878TIP3   OH281048   4.874   5.987   2.910  0.4941 -0.2891  0.1336
19878TIP3    H181049   4.906   5.931   2.982 -3.2697 -0.8040  1.5076
19878TIP3    H281050   4.866   5.927   2.836 -1.9552 -1.2847  1.1543
19879TIP3   OH281051   0.348   4.774  16.969 -0.0765  0.0532  0.1128
19879TIP3    H181052   0.277   4.732  17.017 -0.4246  0.4646 -0.0409
19879TIP3    H281053   0.336   4.744  16.878  1.1104 -1.4446  0.4243
19880TIP3   OH281054   4.831   2.937  11.919  0.4494 -0.2633 -0.0521
19880TIP3    H181055   4.782   2.993  11.979  0.5282 -1.3914  1.0614
19880TIP3    H281056   4.877   2.999  11.862 -2.0847  0.8081 -0.9910
19881TIP3   OH281057   1.726   6.101  13.393 -0.1836 -0.2985 -0.4837
19881TIP3    H181058   1.656   6.064  13.446 -0.1576 -1.5482 -1.2948
19881TIP3    H281059   1.777   6.025  13.364  1.6140  0.5914  0.2381
19882TIP3   OH281060   0.039   1.378  15.756  0.2960 -0.5215 -0.0330
19882TIP3    H181061  -0.037   1.395  15.812  0.0467 -0.3743 -0.4180
19882TIP3    H281062   0.002   1.353  15.671  0.5913  4.0127 -1.6423
19883TIP3   OH281063   3.548   3.539  13.534 -0.6793  0.2378  0.0561
19883TIP3    H181064   3.553   3.543  13.630  1.9324 -0.1836 -0.0140
19883TIP3    H281065   3.571   3.628  13.506  0.7620 -0.1984 -0.1994
19884TIP3   OH281066   3.074   1.677   2.646  0.2629  0.8159 -0.9603
19884TIP3    H181067   3.101   1.618   2.717 -0.4633 -0.4891 -1.7611
19884TIP3    H281068   3.141   1.665   2.578 -0.2620  0.3992 -1.4050
19885TIP3   OH281069   6.062   3.983  15.333  0.3541  0.2928 -0.0755
19885TIP3    H181070   6.021   3.999  15.248 -0.8572 -0.1615  0.4050
19885TIP3    H281071   6.052   4.065  15.380  1.9095  0.8607 -0.7178
19886TIP3   OH281072   6.397   4.413  12.406  0.4427 -0.4408 -0.2591
19886TIP3    H181073   6.401   4.448  12.318 -1.1762  2.0366  0.6092
19886TIP3    H281074   6.318   4.452  12.444  2.2331  0.2209  2.9755
19887TIP3   OH281075   5.796   3.894   0.171  0.1567 -0.0193  0.8155
19887TIP3    H181076   5.790   3.887   0.266  0.3484  1.7196  0.9622
19887TIP3    H281077   5.875   3.844   0.149 -0.4392 -1.2788  1.4461
19888TIP3   OH281078   2.575   4.059   2.925  0.6316 -0.5311 -0.2405
19888TIP3    H181079   2.654   4.044   2.976 -0.2955 -1.1999  1.0078
19888TIP3    H281080   2.607   4.088   2.839  2.1915  0.5839  0.7059
19889TIP3   OH281081   1.667   6.031  11.481  0.0358  0.6551  0.4958
19889TIP3    H181082   1.576   6.046  11.454 -0.1390  0.0820  0.7489
19889TIP3    H281083   1.692   5.950  11.436  0.4190  0.8091  0.4309
19890TIP3   OH281084   6.021   3.648   5.981 -0.1758  0.0367 -0.0507
19890TIP3    H181085   5.975   3.732   5.975  1.5838  0.9509 -1.2131
19890TIP3    H281086   6.001   3.616   6.069 -0.8147  1.7188  0.4383
19891TIP3   OH281087   0.266   4.674  16.681  0.3550 -0.2324 -0.0713
19891TIP3    H181088   0.306   4.588  16.673 -1.8283 -1.3211  0.4371
19891TIP3    H281089   0.188   4.670  16.625  0.4405  1.5504 -0.3518
19892TIP3   OH281090   1.887   2.124   5.713 -0.2280 -0.4032  0.0783
19892TIP3    H181091   1.954   2.107   5.646  1.6650 -1.8052  2.2599
19892TIP3    H281092   1.931   2.182   5.776 -2.4109  1.9726 -0.5308
19893TIP3   OH281093   3.539   3.263  17.191  0.2998 -0.0338  0.0935
19893TIP3    H181094   3.613   3.311  17.229  0.8606 -0.9659  0.1791
19893TIP3    H281095   3.462   3.310  17.224  0.8282  0.3803  0.7579
19894TIP3   OH281096   5.212   0.581  13.700  0.3337  0.1184 -0.1748
19894TIP3    H181097   5.281   0.633  13.742  1.4131  0.5896 -2.4152
19894TIP3    H281098   5.224   0.598  13.607 -0.8494 -2.2581 -0.7907
19895TIP3   OH281099   0.750   0.656  15.597 -0.2190 -0.0951  0.4718
19895TIP3    H181100   0.781   0.618  15.679  1.5062  0.4153  0.0722
19895TIP3    H281101   0.747   0.583  15.536  2.1922  0.2097 -0.0389
19896TIP3   OH281102   0.729   0.926  11.266  0.0808  1.2594 -0.4487
19896TIP3    H181103   0.708   0.917  11.173 -0.8928 -0.6015 -0.0767
19896TIP3    H281104   0.665   0.989  11.299 -1.0783  0.1974 -0.5966
19897TIP3   OH281105   0.373   1.650   4.358  0.2232 -0.2495 -0.3334
19897TIP3    H181106   0.326   1.625   4.279 -2.0651  1.5788  0.3611
19897TIP3    H281107   0.391   1.744   4.347  2.0090 -0.4930  0.2927
19898TIP3   OH281108   3.946   6.286   0.959 -0.2150 -0.7166 -0.0034
19898TIP3    H181109   3.852   6.300   0.967 -0.2638 -0.7045 -0.6098
19898TIP3    H281110   3.962   6.206   1.010 -0.7462 -1.4145 -0.9213
19899TIP3   OH281111   4.804   4.881  17.078 -0.1352 -0.1641 -0.0812
19899TIP3    H181112   4.824   4.905  17.168 -1.3135 -1.3217  0.4954
19899TIP3    H281113   4.860   4.938  17.025  2.7102 -1.4889  1.4116
19900TIP3   OH281114   3.576   0.503  10.820 -0.5811 -0.1908 -0.0333
19900TIP3    H181115   3.488   0.516  10.784  0.7309  1.6183 -2.7471
19900TIP3    H281116   3.605   0.420  10.783 -0.9631 -0.5745  0.5177
19901TIP3   OH281117   3.457   6.487   5.316  0.0928 -0.3422  0.1195
19901TIP3    H181118   3.532   6.440   5.354  0.3075  1.7390  2.3934
19901TIP3    H281119   3.386   6.473   5.378  0.1799  2.3276  0.8636
19902TIP3   OH281120   0.172   0.676  14.481  0.3151 -0.1573 -0.3219
19902TIP3    H181121   0.232   0.637  14.418  0.5091 -1.9967  0.9684
19902TIP3    H281122   0.167   0.768  14.455  2.4383 -0.3135 -1.4200
19903TIP3   OH281123   0.220   0.251   2.664 -0.5811 -0.0353  0.0670
19903TIP3    H181124   0.152   0.295   2.613 -0.4899  2.8674  2.2787
19903TIP3    H281125   0.294   0.243   2.603 -1.2987  1.1280 -0.9829
19904TIP3   OH281126   1.439   5.712  17.147 -0.0388 -0.3097  1.2456
19904TIP3    H181127   1.439   5.785  17.085  1.1484 -1.9403 -0.7397
19904TIP3    H281128   1.433   5.753  17.233  0.5155  2.1162  0.1526
19905TIP3   OH281129   0.415   2.831  15.438  0.9733  0.5944 -0.3284
19905TIP3    H181130   0.354   2.775  15.389  0.5700  0.3972  0.3953
19905TIP3    H281131   0.389   2.820  15.529  3.1223 -0.7064  0.1548
19906TIP3   OH281132   3.081   3.608   3.080 -0.1952 -0.4700 -0.1137
19906TIP3    H181133   3.112   3.530   3.126 -2.1124 -0.8918  0.5121
19906TIP3    H281134   3.133   3.680   3.116  2.2704 -1.5389 -1.3854
19907TIP3   OH281135   1.147   0.163   3.238 -0.2669  0.0601 -0.2707
19907TIP3    H181136   1.155   0.220   3.314  0.5176 -1.0727  0.5114
19907TIP3    H281137   1.098   0.087   3.270  2.5457 -1.7545 -0.0964
19908TIP3   OH281138   2.858   1.520   2.965 -0.2444  0.9502  0.4405
19908TIP3    H181139   2.815   1.442   2.931 -0.7587  1.3430  0.1926
19908TIP3    H281140   2.863   1.506   3.060 -1.3787  1.1352  0.5292
19909TIP3   OH281141   4.034   2.699   2.275 -0.4580  0.1862 -0.3903
19909TIP3    H181142   4.077   2.695   2.361  0.1823  0.4735 -0.6923
19909TIP3    H281143   3.944   2.724   2.295 -0.4178 -0.1574  0.2317
19910TIP3   OH281144   1.397   0.841   5.946  0.4582 -0.2677  0.3646
19910TIP3    H181145   1.387   0.769   6.009  0.1915 -1.5368 -1.1141
19910TIP3    H281146   1.314   0.890   5.953 -0.3719 -1.5325 -0.3721
19911TIP3   OH281147   1.243   4.814  15.743  0.3749 -0.0638  0.0101
19911TIP3    H181148   1.199   4.734  15.770 -0.6801  0.4193 -0.2832
19911TIP3    H281149   1.174   4.871  15.712  0.9800  1.3759  1.2065
19912TIP3   OH281150   4.947   1.955   0.761  0.5622  0.1799 -0.2361
19912TIP3    H181151   4.967   1.882   0.819  0.1576  0.4236  0.2038
19912TIP3    H281152   4.996   1.936   0.681  0.3927 -0.6133 -0.1496
19913TIP3   OH281153   4.875   6.064   1.549  0.0621  0.3675  0.4792
19913TIP3    H181154   4.794   6.013   1.551 -0.4873  1.1265 -1.7978
19913TIP3    H281155   4.850   6.149   1.586 -0.4691  0.9564 -1.1763
19914TIP3   OH281156   2.368   2.254  14.259  0.1951 -0.3477  0.4815
19914TIP3    H181157   2.396   2.256  14.167 -0.0184 -2.2193  0.3584
19914TIP3    H281158   2.445   2.223  14.307 -0.1844 -0.9229  0.7274
19915TIP3   OH281159   1.596   3.586   2.491 -0.3200  0.6106 -0.2326
19915TIP3    H181160   1.547   3.591   2.409 -0.1541 -2.7334 -0.6058
19915TIP3    H281161   1.640   3.670   2.497 -1.0269  1.2677 -3.1596
19916TIP3   OH281162   4.661   0.819  13.002  0.1090  0.1124 -0.4972
19916TIP3    H181163   4.621   0.776  13.078  0.1434  0.5660 -0.2210
19916TIP3    H281164   4.640   0.761  12.929  1.4140 -1.1542  0.0918
19917TIP3   OH281165   1.337   4.093   3.232 -0.1240  0.2960  0.2136
19917TIP3    H181166   1.262   4.067   3.286 -0.7428  0.5640 -0.5100
19917TIP3    H281167   1.352   4.017   3.175  0.6292 -0.0497  0.8661
19918TIP3   OH281168   2.728   5.184  16.242  0.2015  0.0254  0.1504
19918TIP3    H181169   2.726   5.184  16.338 -1.1772  0.1553  0.1336
19918TIP3    H281170   2.700   5.096  16.218 -0.0885  0.1974 -0.1424
19919TIP3   OH281171   4.135   1.219  16.488 -0.3079 -0.1173 -0.8797
19919TIP3    H181172   4.174   1.149  16.541 -1.5483  1.3766  2.1734
19919TIP3    H281173   4.041   1.199  16.489 -0.3522 -0.0110 -2.4862
19920TIP3   OH281174   5.908   4.669   5.142  0.8280 -0.5646  0.3500
19920TIP3    H181175   5.938   4.592   5.192 -0.5050 -1.6045 -0.4019
19920TIP3    H281176   5.841   4.708   5.198  0.3865 -0.8711  0.0388
19921TIP3   OH281177   5.670   3.394  15.034 -0.0340  0.2272 -0.0418
19921TIP3    H181178   5.630   3.387  15.120  0.0724  1.0125  0.0785
19921TIP3    H281179   5.625   3.328  14.981  0.7324 -1.0953  0.9151
19922TIP3   OH281180   2.930   6.141   3.609 -0.0528  0.3133  0.4257
19922TIP3    H181181   2.889   6.138   3.522  1.1188  0.8500 -0.1582
19922TIP3    H281182   2.923   6.052   3.642  1.2537 -0.3685 -1.0706
19923TIP3   OH281183   1.610   0.303   0.322  0.0556  0.3825  0.1961
19923TIP3    H181184   1.627   0.273   0.412  0.2096 -0.5231 -0.1251
19923TIP3    H281185   1.670   0.252   0.268 -1.5065 -0.6646 -0.6321
19924TIP3   OH281186   3.752   4.886  12.993  0.2984 -0.2132 -0.1974
19924TIP3    H181187   3.725   4.961  13.047  1.0649 -1.1096  1.4441
19924TIP3    H281188   3.776   4.925  12.909  1.8290  1.5488  1.0083
19925TIP3   OH281189   4.840   5.856  17.075 -0.2943 -0.5285 -0.2276
19925TIP3    H181190   4.860   5.920  17.006  2.2059 -1.3588 -0.3017
19925TIP3    H281191   4.815   5.909  17.150  0.8368  0.5070 -0.5728
19926TIP3   OH281192   0.160   4.895   0.478 -0.0817  0.3600  0.2517
19926TIP3    H181193   0.083   4.845   0.505  0.9920  0.6534  4.1125
19926TIP3    H281194   0.130   4.986   0.477 -1.0063  0.0945 -3.0446
19927TIP3   OH281195   5.079   2.096  16.263 -0.1415  0.4591  0.9233
19927TIP3    H181196   5.119   2.124  16.181  0.0402 -0.9188  0.5300
19927TIP3    H281197   5.145   2.040  16.304 -0.5990  0.3953  1.5814
19928TIP3   OH281198   4.803   4.974   1.763 -0.3735  0.2588 -0.0846
19928TIP3    H181199   4.713   4.966   1.733 -0.1142 -0.0521 -0.7903
19928TIP3    H281200   4.797   4.968   1.858 -0.9962 -0.7351 -0.1782
19929TIP3   OH281201   0.066   4.316  15.049  0.0158  0.8199  0.3479
19929TIP3    H181202   0.111   4.319  14.964  0.9764 -0.7632  0.7722
19929TIP3    H281203   0.129   4.350  15.111  0.0825  0.0482  0.7173
19930TIP3   OH281204   2.570   2.376   2.192  0.2276 -0.8105  0.0168
19930TIP3    H181205   2.639   2.347   2.132  1.9404 -0.4023  1.7524
19930TIP3    H281206   2.613   2.381   2.277 -2.3387 -2.0552  1.4330
19931TIP3   OH281207   4.384   1.441  13.998  0.1035  0.0916 -0.3084
19931TIP3    H181208   4.458   1.501  13.993  0.4043 -0.3956 -1.7766
19931TIP3    H281209   4.308   1.498  14.007  0.2956  0.7421 -2.6017
19932TIP3   OH281210   3.582   3.641   2.991  0.3907  0.0756  0.3560
19932TIP3    H181211   3.566   3.643   2.897 -1.3909  0.4589  0.6372
19932TIP3    H281212   3.613   3.729   3.012 -0.2447  0.3227  0.2814
19933TIP3   OH281213   0.446   5.237  14.005 -0.0667  0.7241 -0.1982
19933TIP3    H181214   0.392   5.220  14.083 -0.3949  0.4206 -0.4905
19933TIP3    H281215   0.421   5.325  13.977  0.7027  1.1924  0.5646
19934TIP3   OH281216   1.555   5.829  12.393 -0.3351 -0.2612  0.3866
19934TIP3    H181217   1.567   5.814  12.299  2.0553 -0.5072  0.6938
19934TIP3    H281218   1.464   5.856  12.401 -0.7208 -0.6994 -1.9432
19935TIP3   OH281219   2.522   3.164  12.477 -0.5464  0.0512  0.1693
19935TIP3    H181220   2.464   3.141  12.550 -0.5913  0.2622  0.1991
19935TIP3    H281221   2.576   3.235  12.512  0.7806 -1.1700  0.6582
19936TIP3   OH281222   0.689   4.404  16.245 -0.0182  0.1560 -0.1908
19936TIP3    H181223   0.611   4.351  16.229  0.1461  0.2163 -1.1649
19936TIP3    H281224   0.665   4.492  16.216 -0.3311  0.6760  1.5290
19937TIP3   OH281225   5.006   1.733   0.901  0.3059 -0.0118 -0.1307
19937TIP3    H181226   5.096   1.755   0.876  0.4012  0.2691  0.4398
19937TIP3    H281227   5.001   1.754   0.995  0.1953 -1.8199  0.2868
19938TIP3   OH281228   5.115   1.023   3.719  0.5864 -0.5295  0.0589
19938TIP3    H181229   5.177   1.018   3.646  1.4180 -2.5672  0.8647
19938TIP3    H281230   5.045   0.961   3.695  0.0614 -0.0290  0.2765
19939TIP3   OH281231   3.333   2.855   2.296  0.2050  0.7647  0.9855
19939TIP3    H181232   3.370   2.857   2.384 -0.5049  0.3880  1.2868
19939TIP3    H281233   3.249   2.811   2.305  0.8481 -0.7448 -0.1497
19940TIP3   OH281234   1.209   0.758  15.245 -0.2268  0.4965 -0.1228
19940TIP3    H181235   1.235   0.666  15.234 -0.5668  0.4074 -0.2174
19940TIP3    H281236   1.247   0.803  15.169  1.9718  0.8933  1.1741
19941TIP3   OH281237   3.385   2.621  11.301  0.6333 -0.2362  0.1343
19941TIP3    H181238   3.378   2.545  11.243  2.1430 -0.5873  0.4038
19941TIP3    H281239   3.363   2.696  11.245 -2.8447 -0.9917  0.3218
19942TIP3   OH281240   1.769   0.756  14.751  0.1617  0.2998 -0.1069
19942TIP3    H181241   1.771   0.727  14.660  1.6644  0.0529 -0.0117
19942TIP3    H281242   1.814   0.686  14.799 -0.0608  0.7274  0.7354
19943TIP3   OH281243   0.477   2.562   3.428  0.2739  0.3362  0.0345
19943TIP3    H181244   0.404   2.623   3.442 -1.2654 -1.8476  1.7962
19943TIP3    H281245   0.439   2.475   3.443  2.7894 -0.9682 -0.9231
19944TIP3   OH281246   3.127   0.870  14.559 -0.0377 -0.3313 -0.3910
19944TIP3    H181247   3.081   0.866  14.643 -1.0863  0.3198 -0.9160
19944TIP3    H281248   3.058   0.891  14.495  1.0268  0.8959 -1.1613
19945TIP3   OH281249   0.033   3.298  11.501 -0.0837  0.4020  0.2053
19945TIP3    H181250  -0.021   3.219  11.494  0.8254 -0.3298  1.3014
19945TIP3    H281251   0.102   3.286  11.435  0.9562 -0.4651  1.4180
19946TIP3   OH281252   4.604   5.777   0.169 -0.3427 -1.0859  0.4549
19946TIP3    H181253   4.598   5.777   0.264 -2.1490 -0.2313  0.3573
19946TIP3    H281254   4.687   5.821   0.150 -1.2838  1.2617  1.5720
19947TIP3   OH281255   2.003   4.481   5.571 -0.9279  0.3154  0.0192
19947TIP3    H181256   1.927   4.537   5.558 -0.5537  1.0897  1.0907
19947TIP3    H281257   2.072   4.541   5.600 -0.5472 -0.7026  1.2697
19948TIP3   OH281258   6.447   4.663  11.942  0.1041 -0.6141  0.2151
19948TIP3    H181259   6.426   4.729  11.876  0.1393  0.0287  0.8410
19948TIP3    H281260   6.514   4.704  11.997 -2.3860  0.2233  2.7693
19949TIP3   OH281261   3.939   3.471   1.634 -0.5890 -0.3233  0.1595
19949TIP3    H181262   3.919   3.438   1.547  0.5206  1.6964 -0.8969
19949TIP3    H281263   3.905   3.404   1.694 -0.3749 -2.2552 -1.8303
19950TIP3   OH281264   2.737   0.631   2.859  0.0249 -0.0668  0.5802
19950TIP3    H181265   2.692   0.584   2.788  0.2138 -0.5112  0.7557
19950TIP3    H281266   2.815   0.580   2.876 -0.0443  0.0164  1.1487
19951TIP3   OH281267   1.746   2.597   5.338 -0.5042  0.3965  0.1386
19951TIP3    H181268   1.696   2.517   5.355 -0.2009  0.0595 -0.5653
19951TIP3    H281269   1.679   2.666   5.334 -0.7592  0.1944  0.7987
19952TIP3   OH281270   2.891   5.922   1.974  0.3845 -0.4134 -0.1946
19952TIP3    H181271   2.884   6.017   1.985 -0.6037 -0.7636  2.7301
19952TIP3    H281272   2.863   5.906   1.884  0.4891  2.0602 -0.7007
19953TIP3   OH281273   5.492   2.932   2.430 -0.5283 -0.2929 -0.3319
19953TIP3    H181274   5.530   2.859   2.478 -1.0968 -0.5124 -0.2187
19953TIP3    H281275   5.536   3.009   2.466  1.5063 -0.7154 -1.8188
19954TIP3   OH281276   5.501   6.485   0.104  0.2342  0.3541  0.1090
19954TIP3    H181277   5.450   6.412   0.140 -0.0788  0.3274 -0.3773
19954TIP3    H281278   5.554   6.515   0.178  0.7745 -0.7161  0.1693
19955TIP3   OH281279   5.936   2.362  17.055  0.6573  0.1671  0.0614
19955TIP3    H181280   5.889   2.282  17.078  0.0359  0.5411  0.1183
19955TIP3    H281281   5.925   2.370  16.960 -1.4617  1.5140  0.3731
19956TIP3   OH281282   1.408   2.947  11.033 -0.2628  0.0235  0.5147
19956TIP3    H181283   1.409   2.874  11.095 -0.3923 -0.8208 -0.4650
19956TIP3    H281284   1.366   3.018  11.081 -0.5342 -0.6822  1.3350
19957TIP3   OH281285   3.205   4.579  12.041 -0.3342  0.8103  0.3464
19957TIP3    H181286   3.225   4.661  12.086 -1.8940  1.6716 -0.4925
19957TIP3    H281287   3.230   4.594  11.951 -0.8215  0.4384  0.1434
19958TIP3   OH281288   5.509   2.570   1.000  0.6533 -0.0872 -0.2719
19958TIP3    H181289   5.541   2.516   0.927  1.9621  0.5384 -0.1778
19958TIP3    H281290   5.422   2.597   0.973  1.2323  0.3534 -1.7469
19959TIP3   OH281291   1.868   3.293   2.595  0.0780  0.3623 -0.3267
19959TIP3    H181292   1.855   3.276   2.502 -1.8706  0.8851 -0.1558
19959TIP3    H281293   1.785   3.329   2.625  0.7137  0.2624  1.6069
19960TIP3   OH281294   0.677   0.440  15.442 -0.3767 -0.0133  0.4817
19960TIP3    H181295   0.674   0.459  15.348 -0.8874 -1.3166  0.2241
19960TIP3    H281296   0.693   0.346  15.446 -1.5007 -0.1527  1.7041
19961TIP3   OH281297   6.648   4.809   0.109  0.0099  0.1826 -0.0895
19961TIP3    H181298   6.579   4.787   0.046 -1.0848  1.6337  0.5793
19961TIP3    H281299   6.695   4.727   0.123 -0.2333 -0.3352 -2.1917
19962LIG      S81300   3.435   3.563  15.850 -0.0127 -0.1904  0.2052
19962LIG     N181301   3.686   3.510  16.334  0.7713 -0.2922  0.2872
19962LIG     N281302   3.505   3.451  16.120  0.0773 -0.3171  0.0936
19962LIG     C181303   3.594   3.622  16.348 -0.1993  0.2409  0.5047
19962LIG     C281304   3.565   3.680  16.211  0.1640 -0.2016 -0.0272
19962LIG     C381305   3.511   3.599  16.107 -0.5762  0.4585  0.5450
19962LIG     C481306   3.680   3.427  16.451  0.5891  0.0892  0.1914
19962LIG     C581307   3.819   3.536  16.281  0.4409  0.4607  0.1562
19962LIG     C681308   3.457   3.600  16.411  0.1201  0.0686 -0.0300
19962LIG     C781309   3.468   3.658  15.989 -0.1256 -0.0922 -0.3705
19962LIG     C881310   3.563   3.822  16.190  0.1147 -0.5132  0.4550
19962LIG     C981311   3.569   3.386  16.008 -0.4690 -0.5505 -0.0633
19962LIG    C1081312   3.754   3.471  16.582  0.5727 -0.3811 -0.2036
19962LIG    C1181313   3.908   3.416  16.259 -0.4102  0.4161 -0.1664
19962LIG    C1281314   3.465   3.797  15.977  0.0758  0.7441  0.0608
19962LIG    C1381315   3.509   3.880  16.078  0.3964 -0.4117 -0.1670
19962LIG    C1481316   3.538   3.419  15.873  0.1139 -0.3724  0.0625
19962LIG    C1581317   3.653   3.275  16.030  0.1820  0.2894  0.2499
19962LIG    C1681318   3.595   3.354  15.763 -0.5108 -0.0534 -0.4549
19962LIG    C1781319   3.712   3.214  15.921 -1.0672  0.2484  1.6200
19962LIG    C1881320   3.675   3.243  15.790  0.7964 -0.8584  0.5943
19962LIG     H181321   3.647   3.697  16.412 -0.9687  0.9278  0.3521
19962LIG     H281322   3.719   3.328  16.422  0.9863  0.2830  0.0540
19962LIG     H381323   3.581   3.407  16.495  0.0000 -0.3975 -1.3209
19962LIG     H481324   3.876   3.601  16.350 -1.0600 -1.0459  2.8901
19962LIG     H581325   3.814   3.589  16.183  0.4727 -1.2336 -0.7898
19962LIG     H681326   3.397   3.520  16.363  0.2739 -0.1669  0.1684
19962LIG     H781327   3.393   3.690  16.422  1.1407  0.8294 -0.1709
19962LIG     H881328   3.475   3.568  16.516  1.9760  3.1600  0.6842
19962LIG     H981329   3.598   3.882  16.272  1.2382  0.3359 -0.6249
19962LIG    H1081330   3.546   3.423  16.209 -1.0316 -2.6338 -0.0717
19962LIG    H1181331   3.718   3.563  16.635  0.1732 -0.3129 -0.5915
19962LIG    H1281332   3.856   3.504  16.552 -0.4414  0.3056 -3.0383
19962LIG    H1381333   3.765   3.386  16.652 -2.0291 -1.4391 -1.0346
19962LIG    H1481334   3.919   3.358  16.353  2.5765  3.3378  1.3741
19962LIG    H1581335   4.007   3.451  16.224  0.0968 -0.0591  0.7501
19962LIG    H1681336   3.865   3.352  16.178 -0.3074 -0.0202  0.1183
19962LIG    H1781337   3.421   3.837  15.888  0.1834 -0.8556 -0.7413
19962LIG    H1881338   3.501   3.987  16.080  1.2668 -0.3546  0.9580
19962LIG    H1981339   3.679   3.235  16.126 -2.1269  1.2034  1.2810
19962LIG    H2081340   3.582   3.388  15.662 -0.8320 -1.7684 -1.0087
19962LIG    H2181341   3.790   3.144  15.947 -1.2750 -1.6908 -2.5081
19962LIG    H2281342   3.721   3.203  15.701  1.0197 -1.6879  1.0844
   6.78697   6.78697  17.23950
